Title
81374
    1CHL1    C3    1   3.988   3.183  10.238  0.2394 -0.0045 -0.3493
    1CHL1    H3    2   3.918   3.262  10.204  0.1970 -0.3962 -1.1890
    1CHL1    O3    3   4.001   3.200  10.376  0.2428 -0.6348  0.4749
    1CHL1   H3'    4   4.062   3.131  10.402 -0.6011 -0.0152  5.0345
    1CHL1    C4    5   3.917   3.049  10.214 -0.1475  0.4111 -0.5601
    1CHL1   H4A    6   3.973   2.967  10.265 -0.4833 -0.8533 -2.1513
    1CHL1   H4B    7   3.817   3.039  10.262  0.2914 -0.7281  0.1778
    1CHL1    C5    8   3.906   3.029  10.059 -0.1242  0.3291  0.3366
    1CHL1    C6    9   3.784   3.019  10.001 -0.3032 -0.5059  0.5128
    1CHL1    H6   10   3.695   3.021  10.067 -0.8279 -1.0568 -0.1621
    1CHL1    C7   11   3.769   2.996   9.851  0.3431 -0.7424 -1.0023
    1CHL1   H7A   12   3.704   2.907   9.834  0.5230 -0.5580 -2.7560
    1CHL1   H7B   13   3.714   3.083   9.809  0.2347  0.3475  1.2240
    1CHL1    C8   14   3.897   2.965   9.784 -0.3416 -0.5302  1.1807
    1CHL1    H8   15   3.934   2.865   9.813 -1.4831 -1.1251  0.6743
    1CHL1   C14   16   3.882   2.967   9.627 -0.3842 -0.1648  0.1740
    1CHL1   H14   17   3.869   3.073   9.596 -1.5955 -0.4156 -0.2416
    1CHL1   C15   18   3.764   2.890   9.567 -0.8828  0.4007  0.6675
    1CHL1  H15A   19   3.727   2.803   9.626 -2.5725  1.2431  0.9362
    1CHL1  H15B   20   3.677   2.959   9.558 -1.4423 -0.4619 -0.9924
    1CHL1   C16   21   3.815   2.876   9.424 -0.4885 -0.3482 -0.7704
    1CHL1  H16A   22   3.809   2.768   9.399 -0.1382 -0.4643 -0.3651
    1CHL1  H16B   23   3.745   2.928   9.355 -2.0545 -2.1920 -0.6675
    1CHL1   C17   24   3.959   2.933   9.411 -0.3859  0.6573  0.6639
    1CHL1   H17   25   3.951   3.042   9.389  0.7993  0.6495  0.1577
    1CHL1   C13   26   4.019   2.928   9.554 -0.3030 -0.7504  0.3182
    1CHL1   C18   27   4.054   2.782   9.584 -0.6827 -0.1358  0.1047
    1CHL1  H18A   28   3.977   2.710   9.552  0.2124 -0.7412 -0.7510
    1CHL1  H18B   29   4.146   2.758   9.526  0.3851 -0.2727  1.7736
    1CHL1  H18C   30   4.079   2.759   9.690  0.0543  3.1566  0.7522
    1CHL1   C12   31   4.122   3.037   9.600  0.2731  0.1437  0.5425
    1CHL1  H12A   32   4.222   3.030   9.553 -1.6443  0.6105 -4.2059
    1CHL1  H12B   33   4.090   3.136   9.562  1.9316  0.4675 -0.0709
    1CHL1   C11   34   4.137   3.038   9.751  0.4297 -0.0488 -0.3451
    1CHL1  H11A   35   4.192   2.944   9.775  1.6966  0.7979  0.2210
    1CHL1  H11B   36   4.216   3.112   9.776  1.6107 -1.1685 -0.5987
    1CHL1    C9   37   4.007   3.058   9.831  0.2271 -0.3363  0.6130
    1CHL1    H9   38   3.974   3.163   9.818  0.9241  0.1663  2.4676
    1CHL1   C10   39   4.035   3.046   9.979 -0.1208 -0.0643  0.5318
    1CHL1   C19   40   4.116   2.922  10.017  0.0572 -0.5337  0.0598
    1CHL1  H19A   41   4.072   2.822   9.995  1.1238 -1.2919  1.1949
    1CHL1  H19B   42   4.219   2.926   9.976  0.2142 -0.3775  0.4589
    1CHL1  H19C   43   4.135   2.909  10.126 -1.7910  0.3686  0.5318
    1CHL1    C1   44   4.112   3.171  10.027 -0.1103  0.1162 -0.5008
    1CHL1   H1A   45   4.214   3.172   9.982  0.3581  0.7800  0.5269
    1CHL1   H1B   46   4.067   3.264   9.987  2.9735  1.2898 -1.5825
    1CHL1    C2   47   4.123   3.184  10.180 -0.3253 -0.1072  0.0251
    1CHL1   H2A   48   4.188   3.270  10.205 -0.0948  0.0208 -0.9635
    1CHL1   H2B   49   4.180   3.094  10.210  0.2136  0.4533  0.7050
    1CHL1   C20   50   4.024   2.868   9.287 -0.6041  0.6409 -0.7632
    1CHL1   H20   51   4.029   2.757   9.297 -2.6095  0.4801 -1.2787
    1CHL1   C21   52   4.180   2.924   9.280  0.5357  0.5523  0.5455
    1CHL1  H21A   53   4.232   2.898   9.185 -1.1515  0.3820 -0.3664
    1CHL1  H21B   54   4.229   2.879   9.369 -0.5051 -1.7326  0.0567
    1CHL1  H21C   55   4.179   3.034   9.290 -1.4660  0.4100  2.8397
    1CHL1   C22   56   3.955   2.901   9.159  0.0975  0.0152  0.2041
    1CHL1  H22A   57   3.845   2.890   9.158 -0.0619  0.9665 -2.5219
    1CHL1  H22B   58   3.982   3.003   9.123  1.7769 -0.3372  0.3481
    1CHL1   C23   59   4.004   2.808   9.043  0.0243  0.0017  0.0921
    1CHL1  H23A   60   4.106   2.769   9.064 -0.0796 -1.2536 -1.5504
    1CHL1  H23B   61   3.946   2.713   9.043  0.7301 -0.5036 -2.3748
    1CHL1   C24   62   4.000   2.852   8.896  0.1876  0.0198  0.3342
    1CHL1  H24A   63   4.004   2.763   8.829 -0.4067 -0.4007  0.8513
    1CHL1  H24B   64   3.902   2.901   8.876 -0.3691 -1.5149 -0.9724
    1CHL1   C25   65   4.112   2.954   8.864  0.3174 -0.1005  0.4945
    1CHL1   H25   66   4.124   3.009   8.960 -0.7903  2.5975 -0.8080
    1CHL1   C26   67   4.241   2.885   8.817  0.7099  0.4634  0.0958
    1CHL1  H26A   68   4.337   2.940   8.823  0.6052  0.8764 -1.6232
    1CHL1  H26B   69   4.254   2.796   8.882  1.5711  0.4127 -0.1357
    1CHL1  H26C   70   4.223   2.851   8.713  2.0244 -0.1546  0.0536
    1CHL1   C27   71   4.061   3.058   8.761  0.2811 -0.3906  0.3757
    1CHL1  H27A   72   3.975   3.110   8.807 -0.1234 -2.0190  1.5741
    1CHL1  H27B   73   4.135   3.139   8.746 -0.2673 -0.0907 -0.8132
    1CHL1  H27C   74   4.037   3.013   8.663 -0.1982  0.5249  0.0686
    2CHL1    C3   75   5.350   1.434   9.805  0.5003  0.3755 -0.0162
    2CHL1    H3   76   5.284   1.345   9.811  0.6439  0.2716  0.0357
    2CHL1    O3   77   5.376   1.448   9.946 -0.0839 -0.4671  0.2662
    2CHL1   H3'   78   5.291   1.452   9.988 -0.6899  1.5887 -1.0240
    2CHL1    C4   79   5.487   1.415   9.744  0.1945  0.2541 -0.0521
    2CHL1   H4A   80   5.562   1.480   9.792 -0.2333  0.5125  0.2740
    2CHL1   H4B   81   5.522   1.312   9.765  4.6497  0.9092 -2.8767
    2CHL1    C5   82   5.483   1.441   9.596  0.2208  0.2142  0.5701
    2CHL1    C6   83   5.549   1.359   9.514 -0.4260 -0.2848  0.7202
    2CHL1    H6   84   5.603   1.276   9.562 -1.0522 -0.1241  1.7361
    2CHL1    C7   85   5.583   1.390   9.368  0.2927 -0.1318 -0.2609
    2CHL1   H7A   86   5.692   1.376   9.351  0.5486  0.9894  0.3632
    2CHL1   H7B   87   5.537   1.315   9.301 -0.0174 -1.1144  1.0015
    2CHL1    C8   88   5.524   1.526   9.322  0.7931  0.4619  0.0266
    2CHL1    H8   89   5.601   1.602   9.349  1.5596 -0.5831  0.8741
    2CHL1   C14   90   5.492   1.534   9.170 -0.0320  0.9300 -0.1202
    2CHL1   H14   91   5.411   1.460   9.162  0.9054 -0.2741  1.0181
    2CHL1   C15   92   5.609   1.488   9.077  0.1142 -0.3898  0.3689
    2CHL1  H15A   93   5.709   1.525   9.109 -0.2023  0.0777  0.8394
    2CHL1  H15B   94   5.615   1.378   9.066  1.8193 -0.2616 -0.1704
    2CHL1   C16   95   5.570   1.552   8.943 -0.2624 -0.4144  0.0402
    2CHL1  H16A   96   5.654   1.616   8.911 -0.2967  1.3265  3.0117
    2CHL1  H16B   97   5.554   1.485   8.856  0.5238  0.3834 -0.7248
    2CHL1   C17   98   5.441   1.642   8.966 -0.7232 -0.8034  0.5509
    2CHL1   H17   99   5.347   1.585   8.955 -1.9202  0.9762  1.2170
    2CHL1   C13  100   5.447   1.669   9.118  0.2769 -0.2597 -0.3683
    2CHL1   C18  101   5.560   1.777   9.149  0.3943 -0.2580  0.1377
    2CHL1  H18A  102   5.664   1.751   9.118  1.0262  1.9913  0.2458
    2CHL1  H18B  103   5.521   1.876   9.117 -2.0515 -1.4781 -0.9277
    2CHL1  H18C  104   5.578   1.787   9.258  2.5605  2.2074 -0.3487
    2CHL1   C12  105   5.317   1.697   9.193  0.4723 -0.0149 -0.1517
    2CHL1  H12A  106   5.296   1.801   9.157  0.8287  0.5316  1.1570
    2CHL1  H12B  107   5.240   1.626   9.156  0.7926  0.4952 -1.9132
    2CHL1   C11  108   5.334   1.697   9.341 -0.3817  0.3207 -0.5262
    2CHL1  H11A  109   5.394   1.782   9.380  2.9935 -0.2278 -3.8888
    2CHL1  H11B  110   5.233   1.711   9.384  0.0638 -1.8177  1.4469
    2CHL1    C9  111   5.401   1.564   9.393  0.8005 -0.1342  0.3852
    2CHL1    H9  112   5.323   1.490   9.364  0.9687  0.6958 -2.4899
    2CHL1   C10  113   5.404   1.564   9.542  0.4687 -0.0802  0.1655
    2CHL1   C19  114   5.486   1.686   9.601 -0.3233  0.8574  0.1636
    2CHL1  H19A  115   5.577   1.714   9.544 -0.0065  1.5971  1.0188
    2CHL1  H19B  116   5.430   1.782   9.595 -1.5320  0.0881 -3.4485
    2CHL1  H19C  117   5.504   1.679   9.710 -0.2653  2.3003  0.2533
    2CHL1    C1  118   5.259   1.564   9.604  0.6803  0.4422 -0.3636
    2CHL1   H1A  119   5.200   1.655   9.580  1.6061  1.3060  0.5391
    2CHL1   H1B  120   5.197   1.479   9.567 -0.4943 -1.4506  5.0512
    2CHL1    C2  121   5.262   1.548   9.755  0.7143  0.1995  0.2377
    2CHL1   H2A  122   5.158   1.530   9.791  1.0678  2.8487  2.8928
    2CHL1   H2B  123   5.279   1.642   9.810 -2.3841 -0.0259  1.7585
    2CHL1   C20  124   5.434   1.760   8.863  0.4659 -0.5161  0.6162
    2CHL1   H20  125   5.534   1.807   8.862  0.6687 -0.8737 -1.5015
    2CHL1   C21  126   5.336   1.874   8.897 -0.8623  0.0474 -0.2682
    2CHL1  H21A  127   5.353   1.918   8.997 -0.2503  1.2246 -0.8768
    2CHL1  H21B  128   5.233   1.835   8.918 -0.5825 -0.1066  0.8835
    2CHL1  H21C  129   5.325   1.955   8.822  1.8037  1.7861  1.0719
    2CHL1   C22  130   5.398   1.709   8.722  0.3319  0.4298  0.4235
    2CHL1  H22A  131   5.456   1.614   8.715 -0.4055 -0.3241  3.1175
    2CHL1  H22B  132   5.293   1.676   8.719  0.8796 -1.7164  2.1073
    2CHL1   C23  133   5.425   1.813   8.605 -0.2611  1.0053 -0.0588
    2CHL1  H23A  134   5.407   1.920   8.627  4.0365  1.9248 -0.2419
    2CHL1  H23B  135   5.535   1.810   8.592 -0.1316  2.5715  0.5493
    2CHL1   C24  136   5.346   1.769   8.474  0.0617 -0.2995  0.4653
    2CHL1  H24A  137   5.241   1.747   8.505 -0.0091 -1.2737 -0.3934
    2CHL1  H24B  138   5.338   1.845   8.395 -3.1302 -0.3219  0.6333
    2CHL1   C25  139   5.398   1.645   8.408 -0.1020 -0.6316 -0.1150
    2CHL1   H25  140   5.390   1.557   8.475  2.0922 -1.6365 -1.0510
    2CHL1   C26  141   5.313   1.606   8.283 -0.6978 -0.4443  0.4339
    2CHL1  H26A  142   5.317   1.694   8.216  2.2446 -0.2140  0.7859
    2CHL1  H26B  143   5.352   1.510   8.243 -0.1910 -0.7782  1.6645
    2CHL1  H26C  144   5.213   1.584   8.325 -1.0173  0.2687  0.0478
    2CHL1   C27  145   5.545   1.662   8.371 -0.6080 -0.7406  0.0892
    2CHL1  H27A  146   5.564   1.762   8.325 -0.0172 -0.6008  0.6263
    2CHL1  H27B  147   5.609   1.659   8.462 -0.7312 -2.3612  0.1405
    2CHL1  H27C  148   5.578   1.579   8.305  1.6305  0.6419 -0.6355
    3CHL1    C3  149   5.947   1.071  10.105  0.7397  0.5405 -0.7082
    3CHL1    H3  150   6.044   1.018  10.120  1.0559  1.7680  2.5875
    3CHL1    O3  151   5.874   1.055  10.229 -0.2717 -0.4025 -0.4519
    3CHL1   H3'  152   5.843   0.964  10.230  0.3494 -0.6166 -0.3134
    3CHL1    C4  153   5.979   1.220  10.079 -0.2785  0.0321  0.2349
    3CHL1   H4A  154   5.887   1.276  10.102 -0.1791 -0.2636  1.4245
    3CHL1   H4B  155   6.060   1.243  10.152  2.0984  0.2323 -2.2904
    3CHL1    C5  156   6.024   1.254   9.940 -0.0165  0.0134  0.0537
    3CHL1    C6  157   6.139   1.318   9.917  0.3075 -0.3159  0.3961
    3CHL1    H6  158   6.198   1.358  10.001 -0.4024  1.0353  0.2711
    3CHL1    C7  159   6.194   1.348   9.782  0.7188  0.2296  0.2940
    3CHL1   H7A  160   6.231   1.453   9.777  1.1128  0.0623 -0.5253
    3CHL1   H7B  161   6.281   1.280   9.765  1.7138  1.7480 -0.9548
    3CHL1    C8  162   6.084   1.319   9.676 -0.6194  0.0826  0.4719
    3CHL1    H8  163   6.015   1.406   9.679 -0.6239  0.2255 -2.1680
    3CHL1   C14  164   6.156   1.310   9.538 -0.2994 -0.3135 -0.7243
    3CHL1   H14  165   6.233   1.231   9.546  1.8726  1.6950 -0.5129
    3CHL1   C15  166   6.236   1.438   9.493  0.0648  0.0649  0.1556
    3CHL1  H15A  167   6.162   1.521   9.501  0.5178  0.5530 -0.5999
    3CHL1  H15B  168   6.319   1.452   9.565 -1.7330 -0.1655  2.3976
    3CHL1   C16  169   6.268   1.413   9.351  0.2434  0.6879 -0.0386
    3CHL1  H16A  170   6.231   1.494   9.284 -2.3022 -0.9886 -0.8207
    3CHL1  H16B  171   6.377   1.398   9.333 -0.0898 -1.5993 -0.3502
    3CHL1   C17  172   6.182   1.284   9.313 -0.1500  0.2327  0.5552
    3CHL1   H17  173   6.256   1.202   9.326  2.0337  1.8275 -1.0524
    3CHL1   C13  174   6.069   1.270   9.418 -0.7282 -0.4182  0.1080
    3CHL1   C18  175   5.962   1.381   9.391  0.7023  0.1290  0.4949
    3CHL1  H18A  176   5.996   1.478   9.349 -1.3756  1.6438  2.1169
    3CHL1  H18B  177   5.887   1.338   9.322 -0.2637 -2.7459  3.1037
    3CHL1  H18C  178   5.898   1.404   9.478 -1.4493 -0.2795 -0.8985
    3CHL1   C12  179   6.009   1.133   9.454 -0.4157 -0.0591  0.0540
    3CHL1  H12A  180   5.937   1.108   9.373  1.2686 -2.2120 -0.8844
    3CHL1  H12B  181   6.092   1.059   9.453 -0.5496 -0.2934  2.0131
    3CHL1   C11  182   5.927   1.134   9.582  0.3077  0.1483 -0.0020
    3CHL1  H11A  183   5.844   1.200   9.547 -0.3503 -1.2387 -1.1709
    3CHL1  H11B  184   5.886   1.031   9.595  0.6319  0.1388  0.9765
    3CHL1    C9  185   6.015   1.180   9.704  0.0794 -0.2354  0.2221
    3CHL1    H9  186   6.086   1.095   9.708 -0.0926 -0.4062 -0.2040
    3CHL1   C10  187   5.937   1.182   9.836 -1.2610  0.8051  0.1921
    3CHL1   C19  188   5.813   1.270   9.826  0.4617 -0.0197  0.2948
    3CHL1  H19A  189   5.736   1.238   9.753  0.1832  1.5593 -0.1247
    3CHL1  H19B  190   5.760   1.267   9.923  2.0971 -0.3458  1.2196
    3CHL1  H19C  191   5.837   1.374   9.796  2.1024  0.0451  1.6739
    3CHL1    C1  192   5.907   1.027   9.860  0.0536  0.0182 -0.0691
    3CHL1   H1A  193   5.829   0.993   9.788 -0.7249  1.8768 -0.1503
    3CHL1   H1B  194   6.002   0.971   9.849 -0.9758 -1.6157 -1.1191
    3CHL1    C2  195   5.851   1.008  10.005 -0.1386 -0.0190  0.3228
    3CHL1   H2A  196   5.822   0.902  10.016 -0.4666  0.2452  2.2445
    3CHL1   H2B  197   5.755   1.064  10.013 -1.3747 -2.2398  1.9509
    3CHL1   C20  198   6.141   1.298   9.164 -0.2802  0.4512  0.3069
    3CHL1   H20  199   6.064   1.379   9.165  1.5485  2.3395 -1.2979
    3CHL1   C21  200   6.080   1.168   9.116  0.3825  0.2194  0.0026
    3CHL1  H21A  201   6.080   1.146   9.007  1.9436 -1.9681  0.3685
    3CHL1  H21B  202   5.977   1.163   9.157 -0.7046  0.7285 -2.5021
    3CHL1  H21C  203   6.154   1.095   9.157  1.7864  1.4338 -0.2716
    3CHL1   C22  204   6.263   1.331   9.067  0.1678 -0.1939 -0.4158
    3CHL1  H22A  205   6.329   1.407   9.113  0.8643 -1.6290  1.0772
    3CHL1  H22B  206   6.338   1.249   9.061  0.2050 -0.0846 -1.7143
    3CHL1   C23  207   6.231   1.385   8.925 -0.1013  0.2665  0.0951
    3CHL1  H23A  208   6.328   1.415   8.879 -0.1277  0.7933  0.3749
    3CHL1  H23B  209   6.197   1.306   8.855 -2.0279 -1.1603  2.4815
    3CHL1   C24  210   6.126   1.496   8.917 -0.3828  0.0496  0.2194
    3CHL1  H24A  211   6.036   1.450   8.963  1.1525 -1.9159  1.4125
    3CHL1  H24B  212   6.159   1.585   8.975  0.1588 -0.5846  0.9005
    3CHL1   C25  213   6.091   1.549   8.775  0.3898 -0.5061  0.9256
    3CHL1   H25  214   6.180   1.594   8.726  0.1466 -1.0589 -0.0389
    3CHL1   C26  215   6.028   1.441   8.686 -0.4446  0.4310 -0.1241
    3CHL1  H26A  216   6.100   1.365   8.650  0.0534  0.0337  1.6081
    3CHL1  H26B  217   5.946   1.397   8.748 -0.5205  0.9264  0.1333
    3CHL1  H26C  218   5.984   1.477   8.591 -0.6180  0.0620 -0.1864
    3CHL1   C27  219   5.983   1.656   8.801  0.4401 -0.4547 -0.5723
    3CHL1  H27A  220   5.933   1.686   8.706  0.2677 -0.6151 -0.5344
    3CHL1  H27B  221   5.912   1.612   8.874  0.0392  1.0357 -0.0372
    3CHL1  H27C  222   6.035   1.741   8.849 -2.4757  0.3165  1.4944
    4CHL1    C3  223   5.240   3.962  10.514  0.5348  0.5494  0.4314
    4CHL1    H3  224   5.332   4.011  10.553  0.4386  0.8299  0.3090
    4CHL1    O3  225   5.138   3.959  10.617  0.1066  0.0641 -0.1876
    4CHL1   H3'  226   5.144   4.042  10.665 -1.1116 -0.2139  0.4873
    4CHL1    C4  227   5.178   4.046  10.399  0.1063 -0.0607 -0.0609
    4CHL1   H4A  228   5.075   4.007  10.388  0.1542  0.1577 -1.4287
    4CHL1   H4B  229   5.151   4.153  10.408 -2.2611 -0.3916 -2.0179
    4CHL1    C5  230   5.250   4.032  10.269 -0.8125 -0.6452  0.5180
    4CHL1    C6  231   5.288   4.129  10.190 -0.1996 -0.3557  0.1180
    4CHL1    H6  232   5.258   4.229  10.224 -1.9591 -0.8467  0.1215
    4CHL1    C7  233   5.356   4.113  10.056  0.0413  0.1044 -0.2590
    4CHL1   H7A  234   5.317   4.188   9.984  0.4083 -1.0610 -1.7208
    4CHL1   H7B  235   5.462   4.132  10.082  0.5368 -2.6002 -0.0023
    4CHL1    C8  236   5.340   3.969  10.000 -0.2900 -0.1956 -0.0166
    4CHL1    H8  237   5.237   3.954   9.961  0.2399  1.2270 -2.1052
    4CHL1   C14  238   5.434   3.958   9.880  0.1409  0.3925  0.1414
    4CHL1   H14  239   5.539   3.967   9.914  1.0453 -3.1584 -1.2303
    4CHL1   C15  240   5.430   4.061   9.766 -0.0737 -0.0030 -0.0426
    4CHL1  H15A  241   5.324   4.091   9.749 -0.1578 -0.3643 -0.1709
    4CHL1  H15B  242   5.502   4.145   9.778 -0.8353  0.3942  2.2922
    4CHL1   C16  243   5.496   3.987   9.647 -0.1741 -0.9938 -0.0019
    4CHL1  H16A  244   5.420   3.978   9.566  1.8641 -1.3888 -1.9808
    4CHL1  H16B  245   5.588   4.044   9.622 -0.9308  0.3970  0.2906
    4CHL1   C17  246   5.534   3.843   9.697  0.0290 -0.4030 -0.3379
    4CHL1   H17  247   5.628   3.848   9.755 -0.8528 -1.3676  1.2548
    4CHL1   C13  248   5.440   3.816   9.811  0.0263  0.9472 -0.0420
    4CHL1   C18  249   5.298   3.788   9.758 -0.1076  0.7702 -0.1431
    4CHL1  H18A  250   5.216   3.786   9.832  2.3582  0.1364  2.7566
    4CHL1  H18B  251   5.248   3.850   9.680 -1.9486  1.0348  1.1858
    4CHL1  H18C  252   5.302   3.689   9.708  0.5121  1.6919 -2.0340
    4CHL1   C12  253   5.483   3.712   9.917  0.4010 -0.7017  0.2351
    4CHL1  H12A  254   5.496   3.607   9.883  2.1000 -0.0748 -1.2146
    4CHL1  H12B  255   5.581   3.746   9.957  1.8452 -1.9244 -2.0521
    4CHL1   C11  256   5.391   3.718  10.045 -0.0299  0.1837  0.6344
    4CHL1  H11A  257   5.293   3.675  10.016 -0.0861 -1.0060  2.4041
    4CHL1  H11B  258   5.435   3.651  10.122  1.1819 -0.7004 -0.7912
    4CHL1    C9  259   5.381   3.868  10.107  0.0542  1.0337  0.4124
    4CHL1    H9  260   5.485   3.882  10.143  0.6031 -3.2146  1.0768
    4CHL1   C10  261   5.284   3.886  10.231  0.4576  0.2586  0.1658
    4CHL1   C19  262   5.149   3.818  10.204 -0.6102 -0.2964  0.2995
    4CHL1  H19A  263   5.172   3.710  10.202 -0.1706 -0.2030 -0.8160
    4CHL1  H19B  264   5.071   3.839  10.280  0.5889  2.5109  0.8745
    4CHL1  H19C  265   5.109   3.850  10.105 -0.5029 -0.4274  0.2135
    4CHL1    C1  266   5.348   3.815  10.349  0.1096 -0.0534  0.3369
    4CHL1   H1A  267   5.365   3.711  10.311 -0.3727  0.6780 -2.0279
    4CHL1   H1B  268   5.451   3.855  10.364 -0.5651  2.2637 -0.7367
    4CHL1    C2  269   5.270   3.816  10.476  0.7105  0.3302 -0.3549
    4CHL1   H2A  270   5.336   3.767  10.551  0.3641  1.7984  0.9611
    4CHL1   H2B  271   5.176   3.756  10.470  0.0070  1.5582 -2.9071
    4CHL1   C20  272   5.546   3.737   9.589 -0.2376  0.1679 -0.1258
    4CHL1   H20  273   5.448   3.733   9.537 -0.0988 -2.9735 -0.3361
    4CHL1   C21  274   5.570   3.597   9.634 -0.5051 -0.1450  0.3063
    4CHL1  H21A  275   5.481   3.568   9.692 -0.5116  2.1021  1.5417
    4CHL1  H21B  276   5.655   3.597   9.705 -0.1040  1.0559 -0.1373
    4CHL1  H21C  277   5.594   3.532   9.547  0.2153 -1.6971  1.6221
    4CHL1   C22  278   5.651   3.775   9.482 -0.4250  0.4999 -0.0523
    4CHL1  H22A  279   5.722   3.853   9.518 -0.4236  0.3591  0.2564
    4CHL1  H22B  280   5.714   3.687   9.459 -0.7073 -0.0097  1.0852
    4CHL1   C23  281   5.583   3.825   9.348 -0.2679  0.8062 -0.0012
    4CHL1  H23A  282   5.520   3.744   9.307 -0.4034  0.5795  0.6414
    4CHL1  H23B  283   5.506   3.896   9.386 -0.8242 -1.3060  3.2447
    4CHL1   C24  284   5.679   3.895   9.257 -0.0804  0.1877  0.4634
    4CHL1  H24A  285   5.750   3.961   9.311  1.3533 -0.3315 -0.7285
    4CHL1  H24B  286   5.739   3.812   9.214 -1.1153 -0.7771  0.8361
    4CHL1   C25  287   5.620   3.989   9.147 -0.0764  0.5247 -0.4735
    4CHL1   H25  288   5.539   3.932   9.097  0.6093 -0.5439 -0.3876
    4CHL1   C26  289   5.567   4.125   9.207  0.2288  0.1042  0.4197
    4CHL1  H26A  290   5.528   4.181   9.119 -1.0237 -0.0443  0.8618
    4CHL1  H26B  291   5.481   4.106   9.275  1.0801 -0.6256  1.3134
    4CHL1  H26C  292   5.649   4.179   9.258 -0.8260  1.7274  0.4729
    4CHL1   C27  293   5.727   4.020   9.041  0.3866 -0.4237 -0.9406
    4CHL1  H27A  294   5.813   4.076   9.082 -0.4719  0.5678 -0.4555
    4CHL1  H27B  295   5.756   3.917   9.009  1.5111 -0.3129 -0.3039
    4CHL1  H27C  296   5.671   4.071   8.959 -0.8376  0.7302  0.5706
    5CHL1    C3  297   0.299   1.282  10.242 -0.0982 -0.1923 -0.1770
    5CHL1    H3  298   0.200   1.236  10.220  0.4084 -1.1398 -0.5105
    5CHL1    O3  299   0.324   1.268  10.382 -0.3204  0.2234 -0.1775
    5CHL1   H3'  300   0.308   1.176  10.406 -1.1903  0.3573 -0.2102
    5CHL1    C4  301   0.400   1.202  10.157  0.1994  0.3604 -0.2148
    5CHL1   H4A  302   0.502   1.238  10.185  0.4753 -0.1158 -0.5811
    5CHL1   H4B  303   0.382   1.098  10.194  2.1478 -0.7574 -2.1525
    5CHL1    C5  304   0.390   1.227  10.012  0.1297 -0.2076  0.6597
    5CHL1    C6  305   0.377   1.117   9.934 -0.5977  0.0391 -0.5924
    5CHL1    H6  306   0.379   1.014   9.971 -1.9091  0.8816  2.0951
    5CHL1    C7  307   0.366   1.132   9.783  0.0934  0.8985  0.7051
    5CHL1   H7A  308   0.435   1.060   9.733 -2.8739 -0.6560 -1.4519
    5CHL1   H7B  309   0.266   1.106   9.742 -1.3083  3.0657  2.5525
    5CHL1    C8  310   0.408   1.269   9.730 -0.1045 -0.1681  0.1180
    5CHL1    H8  311   0.518   1.278   9.739 -0.0426 -0.8224  0.0556
    5CHL1   C14  312   0.362   1.296   9.586 -0.2326  0.9310  0.1271
    5CHL1   H14  313   0.252   1.283   9.596  0.0061  0.1202  2.1381
    5CHL1   C15  314   0.389   1.186   9.481 -0.2805 -0.0827  0.0182
    5CHL1  H15A  315   0.495   1.154   9.490  0.3361  2.3903  3.1088
    5CHL1  H15B  316   0.326   1.097   9.502  0.3573 -0.2083  1.4830
    5CHL1   C16  317   0.363   1.259   9.348 -0.1732 -0.3885  0.4010
    5CHL1  H16A  318   0.456   1.248   9.289  0.0902 -0.4206  0.8138
    5CHL1  H16B  319   0.277   1.209   9.298 -0.7438  0.8867  0.0729
    5CHL1   C17  320   0.333   1.408   9.381  0.1704  0.5383 -0.3981
    5CHL1   H17  321   0.223   1.416   9.392  0.2386  2.5313 -0.8901
    5CHL1   C13  322   0.390   1.434   9.528  0.6945  0.6239  0.8305
    5CHL1   C18  323   0.540   1.457   9.508  0.0670  0.2189  0.1474
    5CHL1  H18A  324   0.547   1.556   9.459  0.4920 -0.4741 -1.2848
    5CHL1  H18B  325   0.602   1.444   9.599  1.3740 -1.4310 -0.8945
    5CHL1  H18C  326   0.584   1.385   9.435  1.8996 -0.3298  1.7136
    5CHL1   C12  327   0.315   1.544   9.608 -0.3404 -0.4913  0.1108
    5CHL1  H12A  328   0.332   1.648   9.572 -1.4748 -1.1288 -2.5687
    5CHL1  H12B  329   0.205   1.529   9.612 -0.3385 -0.2189  1.6872
    5CHL1   C11  330   0.359   1.528   9.751 -0.5983  0.2164  0.2696
    5CHL1  H11A  331   0.468   1.547   9.756 -0.3000 -1.4945  0.9850
    5CHL1  H11B  332   0.320   1.606   9.820  0.1383  1.1348 -0.3347
    5CHL1    C9  333   0.343   1.386   9.812  0.1897  0.6832 -0.1763
    5CHL1    H9  334   0.234   1.366   9.820  0.6068 -0.9099  3.6694
    5CHL1   C10  335   0.384   1.378   9.962  0.4285 -0.2675 -0.2110
    5CHL1   C19  336   0.529   1.432   9.985  0.6078  0.5051 -0.1150
    5CHL1  H19A  337   0.530   1.542   9.968 -0.9374  0.5781  0.1215
    5CHL1  H19B  338   0.555   1.423  10.092 -2.0169  3.3390  0.9118
    5CHL1  H19C  339   0.600   1.397   9.907  0.0340 -0.3352 -0.2713
    5CHL1    C1  340   0.288   1.456  10.055  0.6056 -0.5875 -0.4411
    5CHL1   H1A  341   0.303   1.565  10.041  1.4570 -0.8412 -1.7090
    5CHL1   H1B  342   0.180   1.438  10.038  0.2228  2.0750 -1.3699
    5CHL1    C2  343   0.306   1.432  10.207  0.2218  0.6967 -0.2064
    5CHL1   H2A  344   0.234   1.486  10.272  1.1583 -0.3109  1.7580
    5CHL1   H2B  345   0.409   1.464  10.234  0.8542 -0.3872 -1.2316
    5CHL1   C20  346   0.354   1.499   9.262  0.6029 -1.1812 -0.4088
    5CHL1   H20  347   0.459   1.490   9.227  1.4086 -0.5142  1.6432
    5CHL1   C21  348   0.318   1.649   9.301  0.4751  0.5315 -0.3504
    5CHL1  H21A  349   0.322   1.714   9.211 -0.7039 -2.4232 -2.6856
    5CHL1  H21B  350   0.386   1.686   9.380  1.3969 -0.0414 -0.8642
    5CHL1  H21C  351   0.212   1.648   9.334  0.1458  1.0636 -1.3504
    5CHL1   C22  352   0.261   1.459   9.144  0.0328 -0.3392  0.1604
    5CHL1  H22A  353   0.277   1.351   9.124  1.0719 -0.1158 -0.3004
    5CHL1  H22B  354   0.154   1.465   9.172  0.3556  0.8019  1.2312
    5CHL1   C23  355   0.289   1.530   9.014 -0.1556  0.1372  0.5306
    5CHL1  H23A  356   0.260   1.636   9.033  0.1673  0.1071  1.2316
    5CHL1  H23B  357   0.395   1.536   8.982 -0.8353  0.3704 -1.9020
    5CHL1   C24  358   0.196   1.466   8.908  0.0946  0.1072 -0.4306
    5CHL1  H24A  359   0.233   1.363   8.892 -1.6518 -0.6905  0.3064
    5CHL1  H24B  360   0.096   1.452   8.955 -0.3098  1.0411 -0.9824
    5CHL1   C25  361   0.179   1.534   8.770  0.2521 -0.3971  0.4307
    5CHL1   H25  362   0.136   1.456   8.703 -1.8927  0.0039  1.2443
    5CHL1   C26  363   0.064   1.640   8.790  0.1292 -0.1541  0.0615
    5CHL1  H26A  364   0.090   1.683   8.889  0.9442 -3.2356  1.2678
    5CHL1  H26B  365   0.061   1.717   8.710 -0.8151 -1.1221 -0.8664
    5CHL1  H26C  366  -0.037   1.595   8.803 -0.2070  0.9742  1.8351
    5CHL1   C27  367   0.316   1.593   8.727  0.3430  0.2358 -0.3165
    5CHL1  H27A  368   0.296   1.653   8.636 -1.1521 -2.1853 -1.7020
    5CHL1  H27B  369   0.348   1.668   8.803  0.0062 -0.0235  0.0841
    5CHL1  H27C  370   0.393   1.513   8.717 -1.7576 -1.8172 -0.9584
    6CHL1    C3  371   2.996   5.053  10.128  0.1614 -0.0294 -0.7513
    6CHL1    H3  372   2.944   5.147  10.103  1.8179  1.4458  0.9988
    6CHL1    O3  373   3.059   5.066  10.257 -0.2913 -0.6239 -0.0083
    6CHL1   H3'  374   3.143   5.109  10.240 -1.0528  0.8363 -0.2457
    6CHL1    C4  375   2.887   4.946  10.127 -0.3336 -0.4861  0.0070
    6CHL1   H4A  376   2.930   4.850  10.161 -0.7367 -0.5861  0.2306
    6CHL1   H4B  377   2.806   4.964  10.200 -0.9941 -0.1896 -0.7756
    6CHL1    C5  378   2.836   4.920   9.983  0.7739 -0.6908  0.0398
    6CHL1    C6  379   2.706   4.925   9.958  0.9559 -0.7474 -0.3922
    6CHL1    H6  380   2.637   4.951  10.039  2.3065 -1.5325  1.0772
    6CHL1    C7  381   2.644   4.899   9.824  0.4142  0.2054 -0.4491
    6CHL1   H7A  382   2.555   4.835   9.841 -0.9638  1.9804 -0.6825
    6CHL1   H7B  383   2.591   4.987   9.781 -0.1792  1.3834  2.4802
    6CHL1    C8  384   2.743   4.833   9.731  0.1894 -0.2781 -0.1337
    6CHL1    H8  385   2.757   4.726   9.755 -0.6894 -0.2770  0.3999
    6CHL1   C14  386   2.684   4.841   9.592  0.7544 -0.2967  0.2127
    6CHL1   H14  387   2.681   4.951   9.577 -0.2538 -0.4071 -0.4582
    6CHL1   C15  388   2.541   4.782   9.571  0.0651  0.6547  0.6104
    6CHL1  H15A  389   2.527   4.681   9.613 -1.7563  1.4063  1.9158
    6CHL1  H15B  390   2.470   4.853   9.619 -0.5804  1.0723 -0.9174
    6CHL1   C16  391   2.531   4.773   9.421 -0.0851  0.1670  0.3319
    6CHL1  H16A  392   2.492   4.672   9.396 -0.3601  0.8157 -2.1393
    6CHL1  H16B  393   2.462   4.847   9.375 -0.9116 -0.5449  0.4012
    6CHL1   C17  394   2.675   4.796   9.364 -0.1366 -0.5910  0.1797
    6CHL1   H17  395   2.675   4.903   9.336  0.2920 -0.8454 -0.8357
    6CHL1   C13  396   2.769   4.780   9.488  0.2833  0.8110 -0.1852
    6CHL1   C18  397   2.798   4.626   9.508  0.0011 -0.5188  0.2258
    6CHL1  H18A  398   2.709   4.560   9.509  0.4708 -1.1944  2.2718
    6CHL1  H18B  399   2.866   4.593   9.427  0.5089  0.1459  0.3738
    6CHL1  H18C  400   2.846   4.602   9.606 -0.3707 -1.8345  0.1069
    6CHL1   C12  401   2.907   4.854   9.487  0.4526  0.3909  0.6971
    6CHL1  H12A  402   2.964   4.786   9.420 -2.3890  0.5145 -2.1143
    6CHL1  H12B  403   2.908   4.959   9.450 -2.1781  0.6266  1.0692
    6CHL1   C11  404   2.975   4.842   9.621 -0.1294 -0.1987  0.1537
    6CHL1  H11A  405   3.010   4.737   9.626 -0.5528 -0.3182  0.7477
    6CHL1  H11B  406   3.062   4.911   9.621 -0.6207  0.4590  1.3552
    6CHL1    C9  407   2.877   4.899   9.731  0.0778 -0.0972 -0.6853
    6CHL1    H9  408   2.872   5.009   9.717  0.3253 -0.0246 -0.2027
    6CHL1   C10  409   2.937   4.892   9.874 -0.3075  0.2657 -0.1373
    6CHL1   C19  410   2.998   4.753   9.900 -0.2581  0.0951 -0.1773
    6CHL1  H19A  411   2.960   4.673   9.833  2.0869 -3.3245  2.2261
    6CHL1  H19B  412   3.105   4.750   9.872  0.0503  1.6678  0.7419
    6CHL1  H19C  413   2.984   4.722  10.006 -1.3761  1.3407  0.0676
    6CHL1    C1  414   3.049   4.999   9.884 -0.4574  0.1141 -0.6399
    6CHL1   H1A  415   3.136   4.976   9.820  0.3748 -1.0955  0.8489
    6CHL1   H1B  416   3.007   5.099   9.859 -0.4099  0.7333  1.5087
    6CHL1    C2  417   3.107   5.019  10.028 -0.5717 -0.0158 -0.1221
    6CHL1   H2A  418   3.188   5.095  10.023  0.0381 -0.7178 -1.4377
    6CHL1   H2B  419   3.150   4.926  10.071  2.4671  0.8932 -0.9284
    6CHL1   C20  420   2.705   4.729   9.232 -0.2449  0.0964 -0.1529
    6CHL1   H20  421   2.710   4.619   9.240 -2.8114 -0.0178  0.7718
    6CHL1   C21  422   2.844   4.783   9.181  0.5718  0.2344  0.1292
    6CHL1  H21A  423   2.921   4.715   9.224 -0.9410 -0.3655  2.0733
    6CHL1  H21B  424   2.857   4.883   9.228 -3.4454  0.4644  1.1074
    6CHL1  H21C  425   2.864   4.786   9.072  2.0905 -1.4958  0.3003
    6CHL1   C22  426   2.607   4.754   9.118 -0.3009  0.1185 -0.5447
    6CHL1  H22A  427   2.654   4.704   9.030 -2.2918  1.1360 -2.2764
    6CHL1  H22B  428   2.514   4.694   9.130 -0.5290  0.1653 -1.8662
    6CHL1   C23  429   2.578   4.900   9.091 -0.1244  1.0248  0.1994
    6CHL1  H23A  430   2.517   4.922   9.181 -2.6046 -2.8212 -0.2795
    6CHL1  H23B  431   2.674   4.956   9.095  2.5929 -3.1976  0.8549
    6CHL1   C24  432   2.506   4.921   8.963  1.2523  0.0900  0.0731
    6CHL1  H24A  433   2.566   4.867   8.887 -0.5912 -1.5403 -0.3041
    6CHL1  H24B  434   2.406   4.875   8.975  1.3265  0.0759  0.6686
    6CHL1   C25  435   2.486   5.059   8.913  0.3716  0.0764 -0.7403
    6CHL1   H25  436   2.577   5.118   8.935 -0.0397  0.5288 -0.2422
    6CHL1   C26  437   2.468   5.080   8.761 -0.0608  0.7342  0.1344
    6CHL1  H26A  438   2.455   5.189   8.742  1.0681  1.0384  1.0055
    6CHL1  H26B  439   2.563   5.046   8.714  0.0810 -0.8779  1.5215
    6CHL1  H26C  440   2.371   5.036   8.728 -0.4248  0.6352  1.2886
    6CHL1   C27  441   2.377   5.141   8.989 -0.2062 -0.2901 -0.0665
    6CHL1  H27A  442   2.363   5.248   8.961  0.6197 -0.1465  0.0477
    6CHL1  H27B  443   2.275   5.101   8.971 -0.5045  0.9936 -1.3997
    6CHL1  H27C  444   2.399   5.140   9.098 -1.3327 -2.1712  0.1836
    7CHL1    C3  445   0.990   3.025  10.278 -0.1530 -0.0511  0.1641
    7CHL1    H3  446   0.924   3.112  10.298  0.7559  1.0815 -1.5431
    7CHL1    O3  447   1.045   2.985  10.402 -0.2120 -0.0168 -0.2274
    7CHL1   H3'  448   0.973   2.934  10.441  2.0384 -3.2260  0.1812
    7CHL1    C4  449   0.909   2.914  10.219  0.4786  0.3371 -0.4922
    7CHL1   H4A  450   0.977   2.826  10.215 -1.8836 -1.6725  0.7903
    7CHL1   H4B  451   0.825   2.880  10.284  0.9254  0.2767  0.0564
    7CHL1    C5  452   0.851   2.940  10.081  0.6323 -0.2385  0.3938
    7CHL1    C6  453   0.717   2.936  10.061 -1.5161 -0.6253 -0.6782
    7CHL1    H6  454   0.652   2.918  10.148 -0.3672 -1.3310  0.0517
    7CHL1    C7  455   0.657   2.966   9.927  0.3159  0.4941 -0.2441
    7CHL1   H7A  456   0.588   2.880   9.912  0.7692  0.3458 -1.5513
    7CHL1   H7B  457   0.617   3.069   9.923  0.4163  0.5015 -1.2609
    7CHL1    C8  458   0.759   2.970   9.807  0.5206  0.8024 -0.0498
    7CHL1    H8  459   0.801   2.870   9.785 -0.8146  0.8242 -3.1503
    7CHL1   C14  460   0.698   3.026   9.679  0.0146 -0.4353 -0.2203
    7CHL1   H14  461   0.666   3.129   9.705  1.0666  0.1756 -1.2521
    7CHL1   C15  462   0.573   2.960   9.618 -0.3831  0.0534 -1.0890
    7CHL1  H15A  463   0.576   2.849   9.613  0.6100  0.0384 -0.4499
    7CHL1  H15B  464   0.485   2.996   9.676  0.7269  0.8197  0.1720
    7CHL1   C16  465   0.570   3.003   9.465  0.1852  0.2279 -0.1965
    7CHL1  H16A  466   0.566   2.914   9.397  3.1044  0.7588 -1.1966
    7CHL1  H16B  467   0.481   3.067   9.450  1.0620  1.3728 -0.6635
    7CHL1   C17  468   0.704   3.080   9.455  0.0858 -0.1135  0.2901
    7CHL1   H17  469   0.674   3.182   9.489 -0.2939 -0.7897  2.0816
    7CHL1   C13  470   0.792   3.032   9.568 -0.6824  0.0972  0.2809
    7CHL1   C18  471   0.861   2.902   9.536 -0.1825  0.0194 -0.1627
    7CHL1  H18A  472   0.917   2.862   9.624 -0.1985 -0.3525 -0.3207
    7CHL1  H18B  473   0.789   2.822   9.508 -0.1447 -0.0244 -0.1352
    7CHL1  H18C  474   0.939   2.918   9.457 -0.5492  0.2664 -0.4787
    7CHL1   C12  475   0.904   3.129   9.602 -0.6823  0.4318 -0.3530
    7CHL1  H12A  476   0.977   3.122   9.519 -0.7717 -0.7255 -0.3526
    7CHL1  H12B  477   0.867   3.233   9.613  0.2129  1.2212 -3.5796
    7CHL1   C11  478   0.971   3.098   9.733  0.2931  0.8524 -0.5473
    7CHL1  H11A  479   1.039   3.013   9.711  0.1349 -0.1105  2.2295
    7CHL1  H11B  480   1.034   3.183   9.766  2.8425 -1.4978  1.1711
    7CHL1    C9  481   0.877   3.060   9.848 -0.2988  0.1033  0.5390
    7CHL1    H9  482   0.832   3.156   9.881 -0.4985  0.3392 -0.3876
    7CHL1   C10  483   0.949   2.991   9.972 -0.1974 -0.0217 -0.3848
    7CHL1   C19  484   1.032   2.873   9.925 -0.7856  0.6345 -0.0559
    7CHL1  H19A  485   0.969   2.800   9.871 -1.4152  1.4708 -0.4841
    7CHL1  H19B  486   1.116   2.892   9.855  0.0943 -2.9881 -0.1944
    7CHL1  H19C  487   1.075   2.819  10.013  1.2634 -0.7334 -1.7939
    7CHL1    C1  488   1.032   3.101  10.041  0.4232  0.2853 -0.0196
    7CHL1   H1A  489   1.105   3.140   9.967 -1.3341  2.3072 -0.8230
    7CHL1   H1B  490   0.962   3.187  10.054 -1.6557 -1.6079  2.3538
    7CHL1    C2  491   1.099   3.061  10.174  0.6503 -0.3054  1.0174
    7CHL1   H2A  492   1.162   3.144  10.212 -1.6232  0.5702  3.1841
    7CHL1   H2B  493   1.167   2.975  10.160 -1.0071 -1.4520 -0.5295
    7CHL1   C20  494   0.763   3.098   9.313 -0.3152  0.4726 -0.0187
    7CHL1   H20  495   0.870   3.125   9.316 -0.4317  1.1220 -1.1671
    7CHL1   C21  496   0.686   3.224   9.255  0.0518  0.0303 -0.0402
    7CHL1  H21A  497   0.685   3.239   9.145 -2.1684 -0.2357 -0.1008
    7CHL1  H21B  498   0.720   3.315   9.309 -0.3300 -0.2680  0.7331
    7CHL1  H21C  499   0.580   3.208   9.283 -0.1884  0.2824 -0.7856
    7CHL1   C22  500   0.746   2.975   9.216 -0.1968 -0.2585  0.7203
    7CHL1  H22A  501   0.769   2.878   9.265 -2.1016  0.0087  2.2981
    7CHL1  H22B  502   0.637   2.978   9.193  0.0870  4.3376 -1.0218
    7CHL1   C23  503   0.820   2.989   9.080  0.3355  0.6665  0.2153
    7CHL1  H23A  504   0.808   3.095   9.049 -0.7569  0.9207  1.4151
    7CHL1  H23B  505   0.927   2.978   9.107  0.1667 -0.0576  0.6055
    7CHL1   C24  506   0.777   2.905   8.956 -0.5582  0.9754 -0.8653
    7CHL1  H24A  507   0.796   2.798   8.979 -1.6542  1.2438  1.7070
    7CHL1  H24B  508   0.666   2.911   8.948 -0.8128 -0.8940  0.5687
    7CHL1   C25  509   0.840   2.948   8.822  0.2208 -0.3830  0.3678
    7CHL1   H25  510   0.786   3.036   8.783  0.3186 -0.6392 -0.3624
    7CHL1   C26  511   0.984   2.992   8.824 -0.0044 -0.2870  0.1073
    7CHL1  H26A  512   1.010   3.070   8.898  1.5213  0.0133 -0.7039
    7CHL1  H26B  513   1.046   2.906   8.856  0.0875 -1.0903 -2.0704
    7CHL1  H26C  514   1.012   3.015   8.719  1.2154  0.0330  0.4884
    7CHL1   C27  515   0.804   2.843   8.711  0.3015  0.2696 -0.2434
    7CHL1  H27A  516   0.823   2.884   8.609 -0.6175  0.0374 -0.5133
    7CHL1  H27B  517   0.865   2.755   8.740  1.6681  0.7026 -1.6220
    7CHL1  H27C  518   0.701   2.802   8.712  0.7458 -0.9365  2.2768
    8CHL1    C3  519   1.387   4.035  10.170  0.2063  0.2592 -0.0063
    8CHL1    H3  520   1.282   4.009  10.143  0.1110  0.6837 -0.0475
    8CHL1    O3  521   1.384   4.027  10.311 -0.0484  0.1452  0.0251
    8CHL1   H3'  522   1.404   4.115  10.344  0.2792 -0.1152  0.5132
    8CHL1    C4  523   1.489   3.931  10.120  0.0471 -0.0433  0.0952
    8CHL1   H4A  524   1.592   3.944  10.157  0.2341  1.4323 -0.8600
    8CHL1   H4B  525   1.453   3.830  10.149  1.5234 -0.9326 -1.0463
    8CHL1    C5  526   1.488   3.947   9.968 -0.8211 -0.1387  0.4204
    8CHL1    C6  527   1.468   3.845   9.883  0.3851 -0.0480 -0.1412
    8CHL1    H6  528   1.445   3.748   9.931  0.5353 -0.3789 -0.7260
    8CHL1    C7  529   1.467   3.850   9.729 -0.2203 -0.7206  0.2322
    8CHL1   H7A  530   1.527   3.763   9.694 -0.3975 -0.8244  0.1885
    8CHL1   H7B  531   1.365   3.840   9.687 -0.0641  0.0246 -0.3489
    8CHL1    C8  532   1.532   3.978   9.673  0.2781 -0.1064  0.7591
    8CHL1    H8  533   1.640   3.966   9.694  0.2341 -2.3355 -0.0845
    8CHL1   C14  534   1.497   3.996   9.522  0.2861  0.3683 -0.5117
    8CHL1   H14  535   1.390   4.025   9.511  0.2506  0.3257 -0.2752
    8CHL1   C15  536   1.520   3.872   9.424 -0.0877  0.2189  0.1811
    8CHL1  H15A  537   1.614   3.817   9.444 -0.9561 -1.1021  0.7189
    8CHL1  H15B  538   1.441   3.794   9.427  0.8566 -0.7499  2.6811
    8CHL1   C16  539   1.514   3.937   9.284 -0.4100 -0.3336  0.1108
    8CHL1  H16A  540   1.599   3.891   9.230 -0.2785 -1.9499  1.6184
    8CHL1  H16B  541   1.418   3.925   9.230 -0.7691  0.9202  0.4340
    8CHL1   C17  542   1.536   4.089   9.309 -0.3917  0.1544 -0.3936
    8CHL1   H17  543   1.430   4.124   9.311  0.0044  1.4380  2.2684
    8CHL1   C13  544   1.585   4.107   9.457  0.1008 -0.0337 -0.0094
    8CHL1   C18  545   1.734   4.080   9.462  0.2867 -0.2787  0.2239
    8CHL1  H18A  546   1.768   4.080   9.568 -1.1785  1.7283  0.7558
    8CHL1  H18B  547   1.765   3.986   9.411  1.7894 -0.1582  0.8532
    8CHL1  H18C  548   1.792   4.164   9.419 -2.0202  1.4368  0.2957
    8CHL1   C12  549   1.542   4.242   9.523  0.3314 -0.0679  0.8960
    8CHL1  H12A  550   1.615   4.320   9.490  0.6781 -1.5294 -2.1467
    8CHL1  H12B  551   1.434   4.256   9.503  0.7687  2.6155 -0.1339
    8CHL1   C11  552   1.559   4.230   9.677  0.0730 -1.0394  0.5001
    8CHL1  H11A  553   1.669   4.224   9.689  0.1884  1.8911  1.8662
    8CHL1  H11B  554   1.525   4.324   9.726 -0.0628 -0.6086 -0.4084
    8CHL1    C9  555   1.495   4.109   9.745  0.2055 -0.4006 -0.6319
    8CHL1    H9  556   1.385   4.120   9.733  0.2689  0.0477 -0.8423
    8CHL1   C10  557   1.522   4.089   9.898 -0.2581 -0.0140 -0.0129
    8CHL1   C19  558   1.674   4.109   9.929 -1.0888  0.1925 -0.3313
    8CHL1  H19A  559   1.695   4.094  10.037 -0.1914  0.6549 -0.4316
    8CHL1  H19B  560   1.736   4.036   9.873 -1.5574 -0.3982 -0.0870
    8CHL1  H19C  561   1.712   4.209   9.899  1.4261 -0.5343  0.2348
    8CHL1    C1  562   1.433   4.185   9.973  0.1933 -0.3357  0.0665
    8CHL1   H1A  563   1.454   4.286   9.934  1.0856 -1.2283 -1.9030
    8CHL1   H1B  564   1.327   4.184   9.939  0.8865  0.3533 -2.2646
    8CHL1    C2  565   1.431   4.173  10.123 -0.0473  0.2314 -1.2143
    8CHL1   H2A  566   1.370   4.259  10.157  1.4811  0.7319  0.3822
    8CHL1   H2B  567   1.530   4.200  10.166 -1.4293  1.9403  1.1363
    8CHL1   C20  568   1.607   4.177   9.204  0.2821  0.0362  0.5398
    8CHL1   H20  569   1.712   4.200   9.235 -0.0194 -0.0456  1.6457
    8CHL1   C21  570   1.528   4.312   9.202  0.4870 -0.5180 -0.4602
    8CHL1  H21A  571   1.531   4.368   9.298 -3.9242 -0.3478 -0.1816
    8CHL1  H21B  572   1.418   4.295   9.191  1.0562 -4.3337 -1.5267
    8CHL1  H21C  573   1.564   4.378   9.120 -0.4791 -0.9167 -1.2280
    8CHL1   C22  574   1.617   4.113   9.069  0.4341 -0.3984  0.6118
    8CHL1  H22A  575   1.696   4.035   9.076  0.0572 -0.8162  0.2381
    8CHL1  H22B  576   1.514   4.076   9.051 -0.6390  2.0270  1.2398
    8CHL1   C23  577   1.643   4.188   8.936  0.3574  0.2387  0.7047
    8CHL1  H23A  578   1.636   4.125   8.845  0.8835  0.0283  0.8031
    8CHL1  H23B  579   1.575   4.276   8.927  1.4899  1.1458  0.7089
    8CHL1   C24  580   1.783   4.240   8.934  0.0925  0.3724  0.0091
    8CHL1  H24A  581   1.810   4.284   9.033  0.8182 -0.7263  0.3186
    8CHL1  H24B  582   1.857   4.158   8.923 -1.7431 -1.1388 -1.7104
    8CHL1   C25  583   1.805   4.345   8.830  0.1478 -0.5555  1.0712
    8CHL1   H25  584   1.764   4.302   8.736 -3.0756 -0.3304  2.2346
    8CHL1   C26  585   1.725   4.477   8.845 -0.1134 -0.1249 -0.0235
    8CHL1  H26A  586   1.619   4.472   8.815  0.6825  0.7895 -3.4589
    8CHL1  H26B  587   1.741   4.524   8.945  2.0624  1.6457 -1.1004
    8CHL1  H26C  588   1.779   4.551   8.781  2.5253 -0.7075  1.4043
    8CHL1   C27  589   1.954   4.389   8.815 -0.1294  1.0301  0.5263
    8CHL1  H27A  590   1.985   4.429   8.717 -0.2016  1.3917  0.6475
    8CHL1  H27B  591   1.975   4.457   8.901 -0.6847  1.2689  0.4804
    8CHL1  H27C  592   2.023   4.303   8.830  0.1428  1.2674  0.6464
    9CHL1    C3  593   4.321   5.971  10.104  0.2797 -0.1503 -0.5801
    9CHL1    H3  594   4.372   6.070  10.097  0.6499 -0.4542 -3.4181
    9CHL1    O3  595   4.367   5.906  10.223 -0.1445  0.5472 -0.1832
    9CHL1   H3'  596   4.308   5.832  10.240 -1.3611  1.6487  0.6377
    9CHL1    C4  597   4.170   5.966  10.098 -0.4347 -0.5715 -0.3865
    9CHL1   H4A  598   4.154   5.857  10.114  1.3453 -0.4276  3.2417
    9CHL1   H4B  599   4.133   6.017  10.190  2.1805 -0.4870  0.7079
    9CHL1    C5  600   4.120   6.024   9.975  0.3137 -0.0647  0.0200
    9CHL1    C6  601   4.042   6.133   9.974  0.0578 -0.7284  0.0136
    9CHL1    H6  602   3.994   6.164  10.068 -0.6034 -0.1651 -0.4943
    9CHL1    C7  603   3.988   6.203   9.854 -0.2248  0.1123  0.1945
    9CHL1   H7A  604   3.883   6.240   9.854  0.1831  1.8187 -3.6049
    9CHL1   H7B  605   4.042   6.300   9.845 -2.4808  1.8652  3.4317
    9CHL1    C8  606   4.000   6.110   9.727 -0.0806  0.4404 -0.5088
    9CHL1    H8  607   3.932   6.022   9.731  2.3289 -1.5392 -0.1080
    9CHL1   C14  608   3.979   6.196   9.605  0.4549 -0.1186  0.3048
    9CHL1   H14  609   4.062   6.269   9.606  0.5682  0.1550 -4.7438
    9CHL1   C15  610   3.849   6.279   9.604  0.7117 -0.7813  0.4559
    9CHL1  H15A  611   3.756   6.218   9.619 -0.5933  1.3551  1.5960
    9CHL1  H15B  612   3.844   6.353   9.687  0.1638  0.2848 -0.5064
    9CHL1   C16  613   3.851   6.335   9.464  0.6029  0.3704  0.8007
    9CHL1  H16A  614   3.742   6.334   9.443  0.6374  2.0126  0.3212
    9CHL1  H16B  615   3.890   6.439   9.452  0.7235  0.1343 -1.2153
    9CHL1   C17  616   3.951   6.251   9.377  0.0187  0.1611 -0.3602
    9CHL1   H17  617   4.050   6.299   9.361  0.0417  1.0380  2.1365
    9CHL1   C13  618   3.984   6.128   9.469  0.1894  0.3863 -0.8326
    9CHL1   C18  619   3.876   6.022   9.462  0.2813  0.6419 -0.2559
    9CHL1  H18A  620   3.776   6.071   9.462 -1.2017 -2.1427 -0.4590
    9CHL1  H18B  621   3.887   5.954   9.376 -0.5797 -2.3920  1.8548
    9CHL1  H18C  622   3.879   5.947   9.545 -1.4541  0.1844 -0.5652
    9CHL1   C12  623   4.125   6.072   9.462 -0.5981  1.2551  0.2698
    9CHL1  H12A  624   4.130   6.008   9.371 -2.7422 -0.6368  1.3628
    9CHL1  H12B  625   4.206   6.147   9.467  0.9249 -0.4032  1.8422
    9CHL1   C11  626   4.147   5.975   9.581 -0.2350 -0.4817  0.1344
    9CHL1  H11A  627   4.079   5.888   9.575 -0.7496 -0.0233 -1.0622
    9CHL1  H11B  628   4.249   5.937   9.559 -0.4039  1.0223 -4.3414
    9CHL1    C9  629   4.139   6.046   9.720 -0.4920  0.5211  0.1280
    9CHL1    H9  630   4.208   6.133   9.718  3.6228 -2.3648 -3.1688
    9CHL1   C10  631   4.170   5.956   9.842 -0.4988 -0.0281 -0.1681
    9CHL1   C19  632   4.093   5.821   9.822 -0.6719 -0.3464  0.0755
    9CHL1  H19A  633   3.988   5.844   9.795 -1.8675  0.2183  4.4221
    9CHL1  H19B  634   4.138   5.751   9.748 -2.1063 -1.1134 -0.1066
    9CHL1  H19C  635   4.082   5.764   9.917 -0.7200  0.0405  0.3045
    9CHL1    C1  636   4.322   5.934   9.845 -0.2563  0.3155 -0.1108
    9CHL1   H1A  637   4.361   5.875   9.759 -1.8874 -1.1989  0.1313
    9CHL1   H1B  638   4.370   6.033   9.832 -0.0143  0.4641  1.6541
    9CHL1    C2  639   4.371   5.884   9.985  0.0854  0.1382  0.6729
    9CHL1   H2A  640   4.480   5.906   9.990 -0.1973  1.6499  0.4494
    9CHL1   H2B  641   4.358   5.777  10.014  2.7136  0.2278  2.5212
    9CHL1   C20  642   3.888   6.231   9.233 -0.7346  0.5779 -0.0559
    9CHL1   H20  643   3.793   6.174   9.241 -0.1698 -0.2137  1.6097
    9CHL1   C21  644   3.989   6.125   9.157  0.2713 -0.3117 -0.5148
    9CHL1  H21A  645   3.961   6.106   9.051 -0.2636  1.1746 -0.6609
    9CHL1  H21B  646   4.009   6.037   9.221 -1.2253  0.6005  1.3020
    9CHL1  H21C  647   4.086   6.177   9.143 -1.1411  2.9015  0.5309
    9CHL1   C22  648   3.871   6.361   9.145  0.1850  0.3880 -1.0133
    9CHL1  H22A  649   3.803   6.435   9.190  0.8811  0.0211  0.7194
    9CHL1  H22B  650   3.973   6.404   9.137  0.4276 -0.1312 -0.7271
    9CHL1   C23  651   3.824   6.338   9.002  0.3877 -0.4209 -1.0841
    9CHL1  H23A  652   3.881   6.257   8.951  2.1327 -0.1998  0.4029
    9CHL1  H23B  653   3.717   6.309   9.000 -0.0225  0.7517  1.0211
    9CHL1   C24  654   3.827   6.468   8.915  0.0847 -0.3408 -0.4273
    9CHL1  H24A  655   3.767   6.442   8.825 -0.0219  1.5171 -0.9292
    9CHL1  H24B  656   3.785   6.562   8.955 -0.6467  0.0517 -2.0473
    9CHL1   C25  657   3.971   6.515   8.881 -0.3948  0.5850 -0.1267
    9CHL1   H25  658   4.012   6.544   8.980  1.2959 -0.3119 -0.5222
    9CHL1   C26  659   4.061   6.412   8.811  0.3728  0.1118  0.2298
    9CHL1  H26A  660   4.016   6.386   8.713  1.9687  0.8029 -0.7259
    9CHL1  H26B  661   4.164   6.451   8.795 -1.1008  3.3979 -2.5096
    9CHL1  H26C  662   4.063   6.316   8.867  0.9494  0.4101  0.7238
    9CHL1   C27  663   3.965   6.640   8.793  0.7312 -0.0682  0.7056
    9CHL1  H27A  664   4.058   6.695   8.771 -0.4582  1.5171 -0.5457
    9CHL1  H27B  665   3.935   6.609   8.691 -1.9328 -1.4427  1.7867
    9CHL1  H27C  666   3.901   6.721   8.835  0.4081 -0.5649  1.1912
   10CHL1    C3  667   2.740   3.142  10.141  0.0464 -0.6539  0.0316
   10CHL1    H3  668   2.753   3.033  10.128 -0.5022 -0.8200  0.7991
   10CHL1    O3  669   2.748   3.170  10.280  0.1809  0.3186 -0.7000
   10CHL1   H3'  670   2.739   3.265  10.292  0.6116  0.7354 -3.1805
   10CHL1    C4  671   2.852   3.216  10.072  0.4095 -0.5153  0.1668
   10CHL1   H4A  672   2.858   3.326  10.087 -0.6413 -0.6640  1.9105
   10CHL1   H4B  673   2.947   3.191  10.125 -0.1733 -0.2667  1.3519
   10CHL1    C5  674   2.853   3.200   9.920 -0.1487  0.5063 -0.2854
   10CHL1    C6  675   2.951   3.145   9.853  0.4964  0.3101 -0.8004
   10CHL1    H6  676   3.038   3.108   9.909 -1.6808 -2.3933  1.0548
   10CHL1    C7  677   2.958   3.124   9.706  0.0679 -0.5846 -1.0678
   10CHL1   H7A  678   3.054   3.168   9.671 -0.0600 -0.0357 -0.7475
   10CHL1   H7B  679   2.951   3.015   9.684 -0.4804 -0.9655  0.7754
   10CHL1    C8  680   2.845   3.202   9.635  0.1448 -1.4548  0.7924
   10CHL1    H8  681   2.874   3.309   9.633  2.3587 -1.9858 -2.2434
   10CHL1   C14  682   2.824   3.149   9.494 -0.4455 -0.6444 -0.2569
   10CHL1   H14  683   2.793   3.047   9.526 -0.9719 -0.0641  1.1285
   10CHL1   C15  684   2.955   3.122   9.401  0.5336 -0.7616 -0.6647
   10CHL1  H15A  685   3.007   3.218   9.384  0.1763 -0.3260  0.5432
   10CHL1  H15B  686   3.017   3.033   9.425 -0.7245 -1.6582 -0.6195
   10CHL1   C16  687   2.886   3.102   9.267 -0.2491 -0.3682  0.5110
   10CHL1  H16A  688   2.941   3.171   9.200  0.0362 -0.4518  0.6588
   10CHL1  H16B  689   2.895   3.001   9.222  1.1467  0.4523 -1.1684
   10CHL1   C17  690   2.728   3.131   9.282  0.5664  0.8403  0.0757
   10CHL1   H17  691   2.689   3.028   9.296 -0.6660  1.2069 -0.5503
   10CHL1   C13  692   2.712   3.216   9.412  0.4179  0.3455  0.1566
   10CHL1   C18  693   2.738   3.363   9.399 -0.8059 -0.3096  0.0285
   10CHL1  H18A  694   2.829   3.382   9.338  0.3521 -1.4633  1.3297
   10CHL1  H18B  695   2.659   3.408   9.336  1.6395  1.5442 -1.9102
   10CHL1  H18C  696   2.739   3.415   9.498 -0.4687  0.5475 -0.4102
   10CHL1   C12  697   2.588   3.173   9.489 -0.4483 -0.2096 -0.0129
   10CHL1  H12A  698   2.500   3.216   9.435  0.2566 -1.0631 -1.9346
   10CHL1  H12B  699   2.588   3.063   9.495  1.8946 -0.2591 -0.1083
   10CHL1   C11  700   2.589   3.236   9.626  0.0436 -0.0618  0.3753
   10CHL1  H11A  701   2.593   3.347   9.625 -1.0523 -0.0053  0.5381
   10CHL1  H11B  702   2.493   3.212   9.677 -2.8820  2.8572 -3.2365
   10CHL1    C9  703   2.711   3.186   9.709  0.3870 -0.4818 -0.7917
   10CHL1    H9  704   2.693   3.077   9.721  1.2053 -0.4703  0.7585
   10CHL1   C10  705   2.716   3.239   9.853 -0.2054  0.4654 -0.1957
   10CHL1   C19  706   2.704   3.390   9.855 -0.0961 -0.3871 -0.2947
   10CHL1  H19A  707   2.788   3.435   9.798  1.6176 -1.9194  0.8976
   10CHL1  H19B  708   2.609   3.438   9.823  2.0476  3.4685 -1.6144
   10CHL1  H19C  709   2.721   3.433   9.956 -2.4067 -2.7372  1.2031
   10CHL1    C1  710   2.610   3.155   9.932 -0.6586 -0.4512 -0.5691
   10CHL1   H1A  711   2.512   3.178   9.886 -1.2434 -0.6940  0.5260
   10CHL1   H1B  712   2.616   3.045   9.919  1.2129 -0.4925  0.2328
   10CHL1    C2  713   2.603   3.189  10.081 -0.9066  0.0994  0.2755
   10CHL1   H2A  714   2.517   3.141  10.134 -2.3900  3.2896  0.9846
   10CHL1   H2B  715   2.589   3.298  10.093  1.6288  0.4105  1.0058
   10CHL1   C20  716   2.655   3.184   9.157 -0.9884 -0.4977  0.0152
   10CHL1   H20  717   2.636   3.294   9.162  2.3140  0.1698  2.0202
   10CHL1   C21  718   2.516   3.116   9.152  0.7200 -0.5281 -0.3558
   10CHL1  H21A  719   2.545   3.009   9.153 -3.3093 -1.8153 -2.0775
   10CHL1  H21B  720   2.468   3.150   9.058  1.1115  0.4116 -0.2368
   10CHL1  H21C  721   2.453   3.130   9.243  1.2991 -1.5019  0.2124
   10CHL1   C22  722   2.734   3.155   9.026 -0.5074 -0.3536  0.7019
   10CHL1  H22A  723   2.841   3.185   9.021 -0.6622 -0.0152 -1.6774
   10CHL1  H22B  724   2.735   3.046   9.009  1.2542 -0.3878  0.8081
   10CHL1   C23  725   2.666   3.217   8.904  0.4773 -0.2173 -0.0427
   10CHL1  H23A  726   2.589   3.144   8.874  0.7213  0.2869 -2.0739
   10CHL1  H23B  727   2.607   3.303   8.942 -0.8145 -1.5217  0.9702
   10CHL1   C24  728   2.760   3.261   8.781  0.7805  0.2864 -0.4768
   10CHL1  H24A  729   2.826   3.341   8.821  0.4164  0.0776  0.5737
   10CHL1  H24B  730   2.820   3.173   8.752 -1.9948 -1.6986 -0.5594
   10CHL1   C25  731   2.695   3.322   8.658 -0.2835 -0.7251 -0.4192
   10CHL1   H25  732   2.776   3.365   8.595 -0.5153  0.9174  0.3389
   10CHL1   C26  733   2.609   3.215   8.578  0.3176 -0.5768  0.2395
   10CHL1  H26A  734   2.576   3.263   8.483  2.6384 -0.3307 -0.5257
   10CHL1  H26B  735   2.672   3.127   8.551 -0.1725 -0.2611 -2.1152
   10CHL1  H26C  736   2.524   3.191   8.645 -0.5866  1.6698  0.0066
   10CHL1   C27  737   2.604   3.444   8.688 -0.4114 -0.1985 -0.0580
   10CHL1  H27A  738   2.657   3.516   8.755 -2.0081 -1.0062  2.1919
   10CHL1  H27B  739   2.561   3.487   8.595 -0.4552  1.8850  0.8654
   10CHL1  H27C  740   2.524   3.409   8.756  0.4634 -0.8468  0.6466
   11CHL1    C3  741   4.735   0.505   9.995 -0.0921  0.2316 -0.1492
   11CHL1    H3  742   4.628   0.493   9.971 -0.0820 -0.3075  0.0613
   11CHL1    O3  743   4.763   0.453  10.122 -0.2156 -0.4758  0.1149
   11CHL1   H3'  744   4.859   0.453  10.117 -0.1194  3.1853 -1.6925
   11CHL1    C4  745   4.819   0.427   9.884 -0.1803  0.3139 -0.1043
   11CHL1   H4A  746   4.926   0.426   9.912 -0.7352 -2.3824  2.4140
   11CHL1   H4B  747   4.800   0.318   9.889 -2.4116  0.7010  0.9012
   11CHL1    C5  748   4.790   0.489   9.747  0.2055 -0.5098  0.6787
   11CHL1    C6  749   4.730   0.412   9.648  0.3357  0.2204  1.6912
   11CHL1    H6  750   4.705   0.306   9.663  0.7303 -0.1562 -0.1072
   11CHL1    C7  751   4.692   0.474   9.516 -0.1362  0.4607  0.2064
   11CHL1   H7A  752   4.729   0.411   9.432  1.2369  1.6755 -0.1315
   11CHL1   H7B  753   4.582   0.479   9.499 -0.6493 -2.3744  1.8705
   11CHL1    C8  754   4.761   0.610   9.488  0.4684  0.6497 -0.4223
   11CHL1    H8  755   4.868   0.591   9.463  0.1704 -0.3620 -0.9602
   11CHL1   C14  756   4.708   0.673   9.363  0.1428 -0.4895 -0.6095
   11CHL1   H14  757   4.599   0.686   9.378 -0.2613 -3.9057  0.0544
   11CHL1   C15  758   4.729   0.598   9.229 -0.3397 -0.0549 -0.0805
   11CHL1  H15A  759   4.830   0.553   9.229 -1.2694 -2.2897 -1.6049
   11CHL1  H15B  760   4.662   0.511   9.210 -1.5368  0.7129  0.4508
   11CHL1   C16  761   4.711   0.698   9.119  0.3384  0.1772 -0.3987
   11CHL1  H16A  762   4.794   0.691   9.046  0.9094  0.4565  0.2152
   11CHL1  H16B  763   4.617   0.689   9.061 -0.2640  1.5254  0.3069
   11CHL1   C17  764   4.702   0.841   9.189  0.2585 -0.3367  0.2876
   11CHL1   H17  765   4.593   0.855   9.207  0.1377  1.8118 -1.6115
   11CHL1   C13  766   4.764   0.818   9.332 -0.9484 -0.1564  1.9095
   11CHL1   C18  767   4.922   0.807   9.319 -0.0441 -1.0064  0.0249
   11CHL1  H18A  768   4.958   0.755   9.227 -0.9341  0.1650 -1.0098
   11CHL1  H18B  769   4.974   0.905   9.319 -1.8286 -0.0240  0.8774
   11CHL1  H18C  770   4.970   0.764   9.410  0.7422  0.1693  0.1926
   11CHL1   C12  771   4.730   0.909   9.446 -0.0059  0.1177 -0.0266
   11CHL1  H12A  772   4.766   1.013   9.435  0.5063  0.2437  2.3910
   11CHL1  H12B  773   4.620   0.925   9.448  0.1961  2.1032  3.7591
   11CHL1   C11  774   4.788   0.853   9.583  0.1966 -0.8068  0.0906
   11CHL1  H11A  775   4.899   0.860   9.586  0.1885  0.0304 -1.0300
   11CHL1  H11B  776   4.755   0.917   9.668 -0.8184 -3.2557  1.6808
   11CHL1    C9  777   4.749   0.700   9.609 -0.1110 -0.9354 -0.4432
   11CHL1    H9  778   4.638   0.702   9.618  0.0881  1.0400  3.7245
   11CHL1   C10  779   4.813   0.638   9.734 -0.3809  0.2484  0.1302
   11CHL1   C19  780   4.968   0.666   9.730 -0.6400  0.5139 -0.1981
   11CHL1  H19A  781   4.991   0.774   9.732  1.0135  0.2319 -1.8432
   11CHL1  H19B  782   5.034   0.631   9.812 -1.4580  1.0194  0.6998
   11CHL1  H19C  783   5.015   0.626   9.638  1.4487 -3.5820  2.3647
   11CHL1    C1  784   4.759   0.710   9.859  0.2882  0.1111  0.2626
   11CHL1   H1A  785   4.807   0.810   9.863  2.0726 -0.5582 -2.3277
   11CHL1   H1B  786   4.648   0.712   9.849  0.2798  3.0210  0.0107
   11CHL1    C2  787   4.785   0.650   9.995  0.3055  0.6984  0.1256
   11CHL1   H2A  788   4.728   0.714  10.066 -0.8594 -0.4721  0.2995
   11CHL1   H2B  789   4.892   0.653  10.022  0.0004 -2.5570  2.2069
   11CHL1   C20  790   4.767   0.948   9.099  0.2037 -1.1723 -0.3561
   11CHL1   H20  791   4.876   0.933   9.081  0.1563  1.1369 -3.4298
   11CHL1   C21  792   4.750   1.083   9.180 -0.4290 -0.8663 -0.5282
   11CHL1  H21A  793   4.651   1.105   9.226 -0.2463 -0.6505 -0.2358
   11CHL1  H21B  794   4.767   1.168   9.111  0.7541  0.0685  0.8347
   11CHL1  H21C  795   4.839   1.092   9.246 -1.0045  1.3327  0.0310
   11CHL1   C22  796   4.714   0.953   8.960 -0.2093  0.6007  0.4856
   11CHL1  H22A  797   4.699   0.848   8.926  0.7291  0.8080 -0.6017
   11CHL1  H22B  798   4.609   0.990   8.965 -0.7360 -0.8109  0.3502
   11CHL1   C23  799   4.800   1.018   8.854 -0.2997  0.4795  0.5812
   11CHL1  H23A  800   4.732   1.048   8.772 -1.1309  2.1922  1.8282
   11CHL1  H23B  801   4.831   1.117   8.895 -0.3160  0.0887  1.5611
   11CHL1   C24  802   4.930   0.935   8.819  0.5500 -0.5204  0.2749
   11CHL1  H24A  803   4.987   0.926   8.914  0.9387  1.0120  0.2027
   11CHL1  H24B  804   4.886   0.843   8.775 -1.7297  0.2589  0.7391
   11CHL1   C25  805   5.020   0.997   8.710  0.2846 -0.1525  0.1139
   11CHL1   H25  806   5.051   1.096   8.751 -2.2450 -0.3435  2.7620
   11CHL1   C26  807   5.134   0.903   8.680  0.2741  0.7182 -0.0722
   11CHL1  H26A  808   5.097   0.798   8.680  1.8282  0.1395 -0.1353
   11CHL1  H26B  809   5.176   0.927   8.580  3.3637  1.0689  1.1716
   11CHL1  H26C  810   5.211   0.898   8.761  1.1188 -0.6094 -0.9012
   11CHL1   C27  811   4.944   1.032   8.580 -0.3212  0.6718 -0.3945
   11CHL1  H27A  812   4.880   1.123   8.585 -0.0686  0.8112  0.5749
   11CHL1  H27B  813   5.003   1.031   8.486 -1.9383 -2.1861 -1.5060
   11CHL1  H27C  814   4.881   0.941   8.576  2.1509 -1.0838 -3.8408
   12CHL1    C3  815   1.763   3.009  10.367 -1.1736 -0.1161 -0.0626
   12CHL1    H3  816   1.830   2.927  10.333  1.1342  2.4607 -2.2750
   12CHL1    O3  817   1.784   3.024  10.508  0.2260 -0.6024 -0.2008
   12CHL1   H3'  818   1.874   2.992  10.515 -0.2364 -2.1987 -1.0338
   12CHL1    C4  819   1.794   3.141  10.295 -0.3534  0.4851 -0.0116
   12CHL1   H4A  820   1.741   3.227  10.341 -2.8408 -1.4820  1.0508
   12CHL1   H4B  821   1.899   3.170  10.316 -0.2652  0.4434 -0.3868
   12CHL1    C5  822   1.769   3.143  10.143  0.4669  0.0504  0.1727
   12CHL1    C6  823   1.857   3.167  10.048 -0.3451  0.6602 -0.0327
   12CHL1    H6  824   1.958   3.199  10.080 -0.6715  1.9632 -0.2432
   12CHL1    C7  825   1.839   3.153   9.899 -0.2703  0.3457 -0.1147
   12CHL1   H7A  826   1.896   3.224   9.835 -0.1353 -0.6979 -1.1974
   12CHL1   H7B  827   1.872   3.052   9.863 -2.9660 -0.1343 -1.5402
   12CHL1    C8  828   1.691   3.160   9.867 -0.4973 -0.2351  0.1614
   12CHL1    H8  829   1.672   3.270   9.872  0.3980  0.1925 -3.1395
   12CHL1   C14  830   1.660   3.116   9.726  0.3875  0.6377 -0.0518
   12CHL1   H14  831   1.690   3.010   9.713  0.7258  0.8183 -0.7726
   12CHL1   C15  832   1.765   3.167   9.617  0.1951 -0.0428  0.0615
   12CHL1  H15A  833   1.754   3.278   9.622  1.2283  0.0912 -0.3311
   12CHL1  H15B  834   1.871   3.133   9.628  0.0020 -0.5455  0.3867
   12CHL1   C16  835   1.695   3.131   9.486  0.2727  0.8313 -0.5353
   12CHL1  H16A  836   1.698   3.216   9.415 -1.9065  3.8780  2.6782
   12CHL1  H16B  837   1.757   3.045   9.453  0.9273  0.2935  1.8557
   12CHL1   C17  838   1.547   3.075   9.529  0.6592  0.9131 -0.0536
   12CHL1   H17  839   1.557   2.965   9.534  3.8058  1.1018  0.2152
   12CHL1   C13  840   1.521   3.121   9.680 -0.3732 -0.2181 -0.4149
   12CHL1   C18  841   1.480   3.269   9.678 -0.4925  0.2572 -0.5265
   12CHL1  H18A  842   1.472   3.309   9.781  0.8344 -0.4566 -0.1146
   12CHL1  H18B  843   1.551   3.339   9.628  0.2714  1.0734  1.5937
   12CHL1  H18C  844   1.379   3.287   9.636  0.1358  0.2565 -2.1479
   12CHL1   C12  845   1.436   3.028   9.769 -0.1609  0.3666  0.8302
   12CHL1  H12A  846   1.332   3.047   9.734 -0.0493  0.2281  0.4240
   12CHL1  H12B  847   1.465   2.926   9.736  1.7434  0.8547  0.8881
   12CHL1   C11  848   1.462   3.064   9.916  0.1847  0.2371  0.0544
   12CHL1  H11A  849   1.414   3.162   9.930 -1.4113 -0.6017  0.6994
   12CHL1  H11B  850   1.407   2.992   9.980 -2.7241 -1.2865 -3.7509
   12CHL1    C9  851   1.608   3.071   9.964  0.0219 -0.9578 -0.3635
   12CHL1    H9  852   1.658   2.973   9.947  1.6671 -0.0368 -1.0938
   12CHL1   C10  853   1.625   3.100  10.115 -0.4471 -0.4912  0.2197
   12CHL1   C19  854   1.528   3.210  10.162  0.6647 -0.7683 -0.1762
   12CHL1  H19A  855   1.418   3.194  10.158  0.7669 -1.3206 -0.8049
   12CHL1  H19B  856   1.546   3.247  10.266  1.4182  1.7149 -1.1154
   12CHL1  H19C  857   1.541   3.295  10.092 -1.6083 -1.2154 -1.2477
   12CHL1    C1  858   1.593   2.967  10.193  0.0713 -0.5126  0.1205
   12CHL1   H1A  859   1.483   2.951  10.188  0.2738 -2.0842  0.1910
   12CHL1   H1B  860   1.652   2.882  10.151 -1.8996 -0.8363 -2.2211
   12CHL1    C2  861   1.624   2.971  10.343 -0.5294 -0.3039  0.2225
   12CHL1   H2A  862   1.612   2.868  10.381  2.3052 -0.8549 -0.1545
   12CHL1   H2B  863   1.561   3.037  10.407  0.6272  0.3286  0.7398
   12CHL1   C20  864   1.450   3.119   9.419 -0.6316 -0.7790 -0.5119
   12CHL1   H20  865   1.458   3.230   9.415 -0.5834 -0.8152 -1.5725
   12CHL1   C21  866   1.302   3.087   9.458  0.1638  0.1123 -0.4955
   12CHL1  H21A  867   1.283   2.984   9.493  0.3401 -0.2818 -1.5320
   12CHL1  H21B  868   1.231   3.095   9.373 -0.1601  0.9343 -0.1663
   12CHL1  H21C  869   1.265   3.149   9.543 -0.1841 -0.7218 -0.0293
   12CHL1   C22  870   1.472   3.058   9.282 -0.8056 -1.0656  0.4809
   12CHL1  H22A  871   1.576   3.049   9.244 -1.6565 -2.4498 -1.7147
   12CHL1  H22B  872   1.444   2.951   9.292 -0.7299 -1.0763  0.5815
   12CHL1   C23  873   1.392   3.116   9.163  0.2534  0.2140 -0.4787
   12CHL1  H23A  874   1.282   3.110   9.176 -0.0022  2.5059 -1.0193
   12CHL1  H23B  875   1.414   3.225   9.165 -0.1816  0.3640  3.1344
   12CHL1   C24  876   1.431   3.042   9.037 -0.7100 -0.3207  0.6723
   12CHL1  H24A  877   1.540   3.037   9.018 -1.2344 -2.9324 -2.8846
   12CHL1  H24B  878   1.406   2.935   9.056 -2.1332  0.0563  1.0482
   12CHL1   C25  879   1.364   3.092   8.909 -0.4733  0.2554 -0.2387
   12CHL1   H25  880   1.261   3.117   8.942 -0.2700  1.5800 -0.5201
   12CHL1   C26  881   1.415   3.221   8.841  0.2208 -0.2784 -0.2698
   12CHL1  H26A  882   1.423   3.304   8.914 -1.1528 -1.2066  1.0104
   12CHL1  H26B  883   1.511   3.199   8.791  1.0271  0.0025  1.1045
   12CHL1  H26C  884   1.344   3.256   8.763 -1.4726 -1.0513  0.8686
   12CHL1   C27  885   1.356   2.977   8.798 -0.5695 -0.5517  0.1586
   12CHL1  H27A  886   1.285   3.012   8.720  1.6554  2.3121 -0.7488
   12CHL1  H27B  887   1.448   2.965   8.738 -2.8178 -0.4577 -3.6570
   12CHL1  H27C  888   1.324   2.878   8.836  0.1093 -0.4900  0.9114
   13CHL1    C3  889   1.120   6.221   9.900  0.2846  0.1598 -0.1375
   13CHL1    H3  890   1.049   6.307   9.897  1.0343  0.7774 -1.1780
   13CHL1    O3  891   1.194   6.231  10.017  0.1887 -0.0718 -0.0973
   13CHL1   H3'  892   1.231   6.319  10.019 -1.5646  0.6990  1.4423
   13CHL1    C4  893   1.038   6.084   9.885  0.7718  0.3542 -0.3296
   13CHL1   H4A  894   1.107   5.997   9.893 -0.2395 -0.6072 -1.5574
   13CHL1   H4B  895   0.979   6.074   9.978  2.1569 -1.8304  0.3714
   13CHL1    C5  896   0.966   6.069   9.757  0.0284 -0.1998  0.6248
   13CHL1    C6  897   0.834   6.026   9.756  0.4797  0.3786 -0.6974
   13CHL1    H6  898   0.791   6.003   9.855  0.6255  0.7821 -0.5370
   13CHL1    C7  899   0.750   6.004   9.635 -0.4137  0.1043 -0.1114
   13CHL1   H7A  900   0.715   5.899   9.634  1.3713 -0.5370 -1.2188
   13CHL1   H7B  901   0.661   6.070   9.632  1.2933  2.5890  0.2952
   13CHL1    C8  902   0.825   6.014   9.503  1.0857  0.2748  0.3441
   13CHL1    H8  903   0.877   5.918   9.484 -0.8457 -0.9795  1.1189
   13CHL1   C14  904   0.727   6.020   9.396  0.0265 -0.4295 -0.3569
   13CHL1   H14  905   0.674   6.118   9.395  1.3475  0.3076 -0.0298
   13CHL1   C15  906   0.612   5.919   9.387  0.4520 -0.6980 -0.6457
   13CHL1  H15A  907   0.632   5.823   9.439  1.6390  1.1872  2.6979
   13CHL1  H15B  908   0.527   5.976   9.430 -0.2614 -2.7030  0.7447
   13CHL1   C16  909   0.582   5.904   9.237  0.0195  0.0734 -0.7944
   13CHL1  H16A  910   0.621   5.805   9.205  0.2306 -0.0975 -0.0357
   13CHL1  H16B  911   0.473   5.915   9.215  0.5477  0.2342 -3.6820
   13CHL1   C17  912   0.670   6.012   9.165 -1.1864  0.3353  0.0510
   13CHL1   H17  913   0.622   6.111   9.147 -0.7521  0.3592 -1.0582
   13CHL1   C13  914   0.789   6.022   9.261  0.0434  0.0227 -0.0485
   13CHL1   C18  915   0.879   5.902   9.231  0.9279  0.0161 -0.0328
   13CHL1  H18A  916   0.968   5.893   9.297  1.6278 -1.4167 -1.1353
   13CHL1  H18B  917   0.832   5.802   9.217 -0.4071  0.4987  0.7743
   13CHL1  H18C  918   0.941   5.912   9.140  0.2256 -1.3662 -0.6908
   13CHL1   C12  919   0.880   6.147   9.255  0.5821 -0.0789  0.2894
   13CHL1  H12A  920   0.928   6.155   9.155 -2.0181  0.1748 -1.0269
   13CHL1  H12B  921   0.823   6.242   9.254 -0.4333 -0.5981 -2.9164
   13CHL1   C11  922   0.980   6.161   9.367  0.2060  0.8353 -0.0804
   13CHL1  H11A  923   1.060   6.089   9.340  0.3417  0.7737  0.4845
   13CHL1  H11B  924   1.023   6.264   9.373  0.7748  0.6892 -1.1969
   13CHL1    C9  925   0.930   6.126   9.510 -0.6033 -0.1665 -0.2942
   13CHL1    H9  926   0.871   6.217   9.533 -2.2055 -0.6452 -2.2768
   13CHL1   C10  927   1.039   6.115   9.624 -0.0257  0.3517  0.1324
   13CHL1   C19  928   1.128   5.993   9.593  0.6697 -0.3615 -0.3611
   13CHL1  H19A  929   1.056   5.918   9.552  0.7706  0.4970 -2.1706
   13CHL1  H19B  930   1.199   6.024   9.514  0.8218 -1.8093 -0.8344
   13CHL1  H19C  931   1.184   5.950   9.679  0.6803 -0.6952 -0.5303
   13CHL1    C1  932   1.121   6.242   9.642 -0.5430  0.1855 -0.5531
   13CHL1   H1A  933   1.188   6.255   9.554 -0.7142 -5.2577 -1.8270
   13CHL1   H1B  934   1.050   6.328   9.647 -2.0854 -1.1080  1.0972
   13CHL1    C2  935   1.210   6.245   9.777  0.6124  0.5687  0.4354
   13CHL1   H2A  936   1.261   6.343   9.793  0.5563  0.5132  0.9960
   13CHL1   H2B  937   1.279   6.159   9.768  1.2311  1.0593  0.4318
   13CHL1   C20  938   0.698   5.962   9.018 -0.5804 -0.4946  0.1850
   13CHL1   H20  939   0.763   5.871   9.013 -0.2801 -0.3290  0.9321
   13CHL1   C21  940   0.770   6.073   8.933 -0.0663 -0.6413  0.5159
   13CHL1  H21A  941   0.710   6.167   8.931 -2.6410 -2.1956  0.5242
   13CHL1  H21B  942   0.774   6.032   8.830 -0.2147 -0.7216  0.5414
   13CHL1  H21C  943   0.875   6.079   8.969  0.4404  0.0309 -0.9746
   13CHL1   C22  944   0.567   5.925   8.949 -0.5410 -0.2958  0.5285
   13CHL1  H22A  945   0.484   5.982   8.995  0.0901 -0.6251  2.1165
   13CHL1  H22B  946   0.576   5.956   8.842 -1.0450 -0.0210  0.5614
   13CHL1   C23  947   0.522   5.778   8.951  0.0039 -0.9296 -0.2613
   13CHL1  H23A  948   0.482   5.745   9.049  1.6470  0.0840  0.7951
   13CHL1  H23B  949   0.441   5.783   8.875  1.5289  0.6159 -1.8899
   13CHL1   C24  950   0.626   5.671   8.897  0.3189  0.2027 -0.6388
   13CHL1  H24A  951   0.711   5.683   8.967  2.3069  2.2856 -3.2094
   13CHL1  H24B  952   0.590   5.566   8.904 -0.3910  0.5537  2.0772
   13CHL1   C25  953   0.685   5.696   8.756 -0.2265  0.0122 -0.5230
   13CHL1   H25  954   0.702   5.804   8.736 -1.6246  0.7548  1.8874
   13CHL1   C26  955   0.813   5.618   8.740  0.5845  0.1728 -0.4914
   13CHL1  H26A  956   0.851   5.648   8.640 -0.1528  0.6020 -0.6461
   13CHL1  H26B  957   0.887   5.664   8.809  1.2550  0.1517 -1.1728
   13CHL1  H26C  958   0.814   5.507   8.751  1.6273  0.3281  1.3845
   13CHL1   C27  959   0.587   5.662   8.640  0.3826 -0.5981 -0.0040
   13CHL1  H27A  960   0.562   5.553   8.637 -2.9529 -0.0185  1.6300
   13CHL1  H27B  961   0.489   5.715   8.646  0.5455  0.0428 -2.1506
   13CHL1  H27C  962   0.625   5.697   8.542  1.0128 -0.8125  0.1604
   14CHL1    C3  963   0.009   2.411  10.416  0.0035  0.4864 -0.3462
   14CHL1    H3  964   0.025   2.521  10.405 -2.0739  0.7805 -0.8570
   14CHL1    O3  965   0.005   2.367  10.550 -0.8133  0.0202  0.0821
   14CHL1   H3'  966  -0.006   2.273  10.538  0.4983 -0.1566  0.1285
   14CHL1    C4  967  -0.124   2.369  10.350 -0.8385  1.0621  1.4563
   14CHL1   H4A  968  -0.144   2.261  10.366 -2.0482  0.4094 -2.9367
   14CHL1   H4B  969  -0.216   2.405  10.401 -2.8679 -1.3474 -0.2363
   14CHL1    C5  970  -0.120   2.394  10.201  0.2884 -0.1353  0.3839
   14CHL1    C6  971  -0.205   2.493  10.156 -0.1053  0.0531 -0.1044
   14CHL1    H6  972  -0.274   2.537  10.229 -0.0215  0.8674 -0.5017
   14CHL1    C7  973  -0.220   2.516  10.008  0.4174 -0.1494 -0.2706
   14CHL1   H7A  974  -0.327   2.506   9.977  0.3129 -2.7725  0.6773
   14CHL1   H7B  975  -0.173   2.613   9.982  1.3246  0.2338  2.4506
   14CHL1    C8  976  -0.146   2.413   9.912 -0.0429  0.0030 -0.2480
   14CHL1    H8  977  -0.202   2.317   9.908  1.8887 -1.3474  2.3071
   14CHL1   C14  978  -0.130   2.478   9.774 -0.3973 -0.1957  0.6007
   14CHL1   H14  979  -0.075   2.573   9.798  0.4102 -1.2024  3.1591
   14CHL1   C15  980  -0.255   2.506   9.696 -0.2089  0.3024 -0.0040
   14CHL1  H15A  981  -0.323   2.418   9.697 -0.4187  0.4113 -1.5828
   14CHL1  H15B  982  -0.315   2.590   9.737  2.9591  1.4773  2.6312
   14CHL1   C16  983  -0.211   2.519   9.547 -0.3423 -0.2515  0.7434
   14CHL1  H16A  984  -0.278   2.451   9.490  0.6903 -0.6192 -0.0669
   14CHL1  H16B  985  -0.222   2.624   9.513  0.6090 -0.5901 -0.7064
   14CHL1   C17  986  -0.056   2.485   9.550 -0.2884 -0.0681  0.4533
   14CHL1   H17  987  -0.003   2.580   9.575 -1.4325  1.0061 -1.0369
   14CHL1   C13  988  -0.044   2.392   9.679  0.9090  0.2575  0.5097
   14CHL1   C18  989  -0.102   2.256   9.650  0.0785 -0.1511 -0.3430
   14CHL1  H18A  990  -0.114   2.178   9.728  2.2318  0.2646  0.4813
   14CHL1  H18B  991  -0.205   2.265   9.611 -0.3042 -0.4803  0.5794
   14CHL1  H18C  992  -0.038   2.209   9.571  1.1237 -0.1160  0.4594
   14CHL1   C12  993   0.090   2.378   9.746 -0.1008 -0.0547 -0.3483
   14CHL1  H12A  994   0.161   2.334   9.673  0.1997 -2.9955  1.5644
   14CHL1  H12B  995   0.122   2.483   9.763 -0.5714  0.4058 -2.0871
   14CHL1   C11  996   0.082   2.303   9.876 -0.5952 -0.7550  0.1372
   14CHL1  H11A  997   0.034   2.204   9.859 -2.0767  0.0705 -0.7176
   14CHL1  H11B  998   0.181   2.299   9.926 -0.3543 -0.7465 -0.3290
   14CHL1    C9  999  -0.009   2.383   9.973  0.8257  0.5337 -0.3594
   14CHL1    H9 1000   0.044   2.480   9.981  1.8270  0.1786 -2.2319
   14CHL1   C10 1001  -0.016   2.319  10.113  0.1033  0.2206 -0.0607
   14CHL1   C19 1002  -0.050   2.165  10.100 -0.5419 -0.6567  0.4233
   14CHL1  H19A 1003   0.029   2.107  10.047  0.3816 -0.7920  1.8966
   14CHL1  H19B 1004  -0.060   2.121  10.202 -0.4652  1.5008  1.4196
   14CHL1  H19C 1005  -0.144   2.157  10.041 -0.4244 -0.5582  0.2214
   14CHL1    C1 1006   0.120   2.340  10.185  0.7071  0.2668  0.2076
   14CHL1   H1A 1007   0.189   2.265  10.141 -0.0607  0.9810 -2.3908
   14CHL1   H1B 1008   0.163   2.439  10.161  1.4059 -0.1689 -0.3845
   14CHL1    C2 1009   0.122   2.332  10.341  0.5002 -0.0819 -0.2305
   14CHL1   H2A 1010   0.221   2.373  10.367  1.1946  0.3726 -3.2797
   14CHL1   H2B 1011   0.102   2.225  10.363 -0.7226 -0.4277 -2.7320
   14CHL1   C20 1012  -0.014   2.427   9.416  0.1672  0.0351  0.3359
   14CHL1   H20 1013  -0.052   2.323   9.406  4.0954 -1.7608  1.9289
   14CHL1   C21 1014   0.140   2.416   9.400  0.0503  0.4604  0.3527
   14CHL1  H21A 1015   0.172   2.366   9.307  1.3635  2.4249 -0.3092
   14CHL1  H21B 1016   0.178   2.351   9.483  1.2113  1.6116  0.7558
   14CHL1  H21C 1017   0.206   2.505   9.395  0.4575  0.0827 -1.5812
   14CHL1   C22 1018  -0.071   2.496   9.291  0.1554  0.4444  0.4088
   14CHL1  H22A 1019  -0.181   2.496   9.299  0.1156 -1.7589  0.3704
   14CHL1  H22B 1020  -0.041   2.604   9.287 -1.5628  0.9138 -0.6787
   14CHL1   C23 1021  -0.040   2.421   9.156  0.3216  0.0853 -0.4404
   14CHL1  H23A 1022   0.063   2.445   9.122  0.8596 -1.9742 -0.3705
   14CHL1  H23B 1023  -0.060   2.312   9.168 -1.1403  0.0361 -2.6598
   14CHL1   C24 1024  -0.137   2.448   9.036  0.9051 -0.6606 -0.3353
   14CHL1  H24A 1025  -0.242   2.434   9.070  0.6375 -2.7433 -1.8010
   14CHL1  H24B 1026  -0.126   2.550   8.993 -1.8075 -1.0637 -2.2457
   14CHL1   C25 1027  -0.124   2.352   8.918  0.3736  0.0507 -0.4307
   14CHL1   H25 1028  -0.092   2.255   8.960  1.7901  0.5124 -0.3930
   14CHL1   C26 1029  -0.254   2.317   8.846  0.2855  0.2616  0.3669
   14CHL1  H26A 1030  -0.337   2.282   8.911  0.2290  0.4942  0.4237
   14CHL1  H26B 1031  -0.282   2.416   8.802  1.5922  0.4949  0.0093
   14CHL1  H26C 1032  -0.242   2.245   8.762  0.6484 -0.8328  1.3452
   14CHL1   C27 1033  -0.038   2.410   8.808  0.6288 -0.4184  0.2439
   14CHL1  H27A 1034   0.057   2.446   8.854  0.6161 -0.1655  0.0704
   14CHL1  H27B 1035  -0.025   2.323   8.741 -1.6726 -0.5173 -0.1589
   14CHL1  H27C 1036  -0.088   2.495   8.756  0.7680 -0.8933 -0.6790
   15CHL1    C3 1037   6.609   1.692  10.024 -0.4008  0.2280 -0.2643
   15CHL1    H3 1038   6.614   1.582  10.009  1.5389  0.4404 -1.4332
   15CHL1    O3 1039   6.614   1.725  10.165  0.2616  0.4807  0.1870
   15CHL1   H3' 1040   6.542   1.787  10.173  0.5075  1.0923 -1.8204
   15CHL1    C4 1041   6.711   1.771   9.946 -0.6054  0.4603  0.2227
   15CHL1   H4A 1042   6.700   1.881   9.960 -0.3765  0.9314 -2.7625
   15CHL1   H4B 1043   6.813   1.745   9.981 -2.2310 -2.7215  3.2910
   15CHL1    C5 1044   6.702   1.748   9.792 -0.2352 -0.4470  0.2480
   15CHL1    C6 1045   6.805   1.701   9.721 -0.0228  0.4342  0.0116
   15CHL1    H6 1046   6.904   1.680   9.764 -0.9496 -2.2691  1.0653
   15CHL1    C7 1047   6.799   1.687   9.572 -0.7521 -0.2505 -0.8015
   15CHL1   H7A 1048   6.896   1.729   9.538 -0.5930 -1.0072 -1.2885
   15CHL1   H7B 1049   6.788   1.584   9.534  2.1636 -1.4164  1.1915
   15CHL1    C8 1050   6.684   1.772   9.509  0.0051  0.3331  0.0821
   15CHL1    H8 1051   6.709   1.880   9.515  0.6658  0.1047  2.2326
   15CHL1   C14 1052   6.651   1.727   9.370 -0.2580  0.1547  0.2157
   15CHL1   H14 1053   6.596   1.631   9.371 -2.2127  1.0983 -2.6343
   15CHL1   C15 1054   6.771   1.690   9.275  0.0198  0.8131  0.2670
   15CHL1  H15A 1055   6.848   1.768   9.293  1.8437 -1.2055  1.6559
   15CHL1  H15B 1056   6.824   1.594   9.295 -0.5846  0.3906 -0.1235
   15CHL1   C16 1057   6.711   1.694   9.133  0.4114 -0.0199  0.2561
   15CHL1  H16A 1058   6.770   1.759   9.065  0.6287 -0.1950  0.2774
   15CHL1  H16B 1059   6.698   1.594   9.086  0.4931 -0.3190  0.8584
   15CHL1   C17 1060   6.556   1.751   9.150 -0.6693  0.3657  0.6381
   15CHL1   H17 1061   6.494   1.659   9.157 -0.2528 -0.0284 -0.5747
   15CHL1   C13 1062   6.552   1.817   9.288 -0.5352 -0.3369 -0.0453
   15CHL1   C18 1063   6.598   1.964   9.282 -0.0971  0.3358  0.5916
   15CHL1  H18A 1064   6.586   2.015   9.381 -0.6108  0.2961  0.5535
   15CHL1  H18B 1065   6.707   1.963   9.263 -0.1972  0.4573  0.0073
   15CHL1  H18C 1066   6.547   2.023   9.203  2.2084 -1.0366 -2.0719
   15CHL1   C12 1067   6.421   1.799   9.366  0.4996 -0.7334 -0.7856
   15CHL1  H12A 1068   6.331   1.844   9.319 -0.6948 -1.0947  1.0566
   15CHL1  H12B 1069   6.393   1.691   9.364  0.0897 -0.6665  0.5556
   15CHL1   C11 1070   6.440   1.841   9.514 -0.0810 -0.0163  0.6073
   15CHL1  H11A 1071   6.450   1.951   9.505 -1.3305 -0.0198 -1.5327
   15CHL1  H11B 1072   6.344   1.817   9.565  0.0324 -0.6549  0.5292
   15CHL1    C9 1073   6.553   1.756   9.587 -0.0875 -0.2334  0.4725
   15CHL1    H9 1074   6.521   1.650   9.585 -0.7993 -0.0375  0.9920
   15CHL1   C10 1075   6.563   1.787   9.732  0.2596  0.7810 -0.5773
   15CHL1   C19 1076   6.532   1.934   9.751 -0.4640 -0.0968  0.5692
   15CHL1  H19A 1077   6.427   1.958   9.724  0.0654 -2.2246 -4.2614
   15CHL1  H19B 1078   6.553   1.968   9.855 -1.3920 -1.2769  1.1665
   15CHL1  H19C 1079   6.595   1.994   9.682 -0.5135 -1.2420 -0.4905
   15CHL1    C1 1080   6.458   1.705   9.813 -0.1841 -0.2264  0.1410
   15CHL1   H1A 1081   6.351   1.736   9.802 -0.2858  0.1011  1.8757
   15CHL1   H1B 1082   6.469   1.597   9.787  1.4739  0.2765 -1.4365
   15CHL1    C2 1083   6.475   1.725   9.968  0.0853  0.2764 -0.4292
   15CHL1   H2A 1084   6.396   1.667  10.020  0.8848 -0.4585 -0.0100
   15CHL1   H2B 1085   6.457   1.832   9.991  0.1926  0.4510 -1.1270
   15CHL1   C20 1086   6.509   1.823   9.022  0.2606  0.4680  0.4016
   15CHL1   H20 1087   6.579   1.908   9.007 -0.4240  1.1429  0.9392
   15CHL1   C21 1088   6.363   1.874   9.037 -0.6689 -0.8315  0.0062
   15CHL1  H21A 1089   6.369   1.951   9.118  0.7695  0.4452 -1.2533
   15CHL1  H21B 1090   6.298   1.791   9.071 -0.2969 -1.7292 -1.3976
   15CHL1  H21C 1091   6.323   1.923   8.946  1.2168  0.6506 -0.0928
   15CHL1   C22 1092   6.507   1.730   8.896  0.1801  0.6882  0.1512
   15CHL1  H22A 1093   6.597   1.668   8.877 -0.5025 -0.2548 -0.1004
   15CHL1  H22B 1094   6.430   1.652   8.914  1.0191 -0.0497  0.6309
   15CHL1   C23 1095   6.483   1.805   8.765  0.5733 -0.3832 -0.4616
   15CHL1  H23A 1096   6.485   1.729   8.683 -1.1289 -0.6094 -0.3274
   15CHL1  H23B 1097   6.384   1.856   8.766  0.7244 -0.0835  1.5342
   15CHL1   C24 1098   6.598   1.901   8.731 -0.1070  0.6045 -0.5088
   15CHL1  H24A 1099   6.602   1.977   8.812  1.3010  0.7356 -0.6821
   15CHL1  H24B 1100   6.694   1.845   8.726 -0.5227 -0.0374 -1.9966
   15CHL1   C25 1101   6.581   1.963   8.589 -0.1351 -0.1352  0.1348
   15CHL1   H25 1102   6.586   1.880   8.516 -2.2984  1.1648 -1.5817
   15CHL1   C26 1103   6.441   2.032   8.559  0.0708  0.3008  0.2172
   15CHL1  H26A 1104   6.349   1.969   8.564  0.8762 -0.8066  3.5815
   15CHL1  H26B 1105   6.437   2.114   8.634  0.7559  0.5669 -0.0367
   15CHL1  H26C 1106   6.449   2.079   8.459 -0.3345  2.2186  1.0332
   15CHL1   C27 1107   6.700   2.062   8.560  0.3668  0.1786  0.1788
   15CHL1  H27A 1108   6.701   2.152   8.625 -0.0209 -0.1258  0.6082
   15CHL1  H27B 1109   6.793   2.006   8.584 -0.1365 -0.1840  1.3423
   15CHL1  H27C 1110   6.691   2.096   8.454  0.0575  0.5434  0.3201
   16CHL1    C3 1111   0.712   1.543  10.353  0.0637  0.0451  0.6516
   16CHL1    H3 1112   0.635   1.484  10.300  0.8331  0.6018 -1.1701
   16CHL1    O3 1113   0.701   1.502  10.489 -0.3368 -0.5068  0.4408
   16CHL1   H3' 1114   0.674   1.410  10.480 -0.4556 -0.4366  0.0452
   16CHL1    C4 1115   0.858   1.517  10.306  0.3523  0.1506  0.7181
   16CHL1   H4A 1116   0.926   1.576  10.370  1.0940 -0.0265  0.1076
   16CHL1   H4B 1117   0.869   1.407  10.320 -1.2596 -0.1779 -0.3023
   16CHL1    C5 1118   0.866   1.545  10.159  0.4917  0.2474  0.5118
   16CHL1    C6 1119   0.887   1.454  10.066 -0.1308  0.8037  0.3084
   16CHL1    H6 1120   0.913   1.355  10.105 -0.2901  1.2169  1.4988
   16CHL1    C7 1121   0.917   1.473   9.922 -0.1068  0.0159  0.1831
   16CHL1   H7A 1122   1.008   1.427   9.879 -1.1336 -2.0167  0.0564
   16CHL1   H7B 1123   0.833   1.425   9.867 -0.0483  0.2865 -0.1512
   16CHL1    C8 1124   0.920   1.626   9.880  0.1007 -0.4325 -0.4830
   16CHL1    H8 1125   1.019   1.671   9.901 -0.2835 -0.0687  0.5976
   16CHL1   C14 1126   0.872   1.644   9.733 -0.1812 -0.0140 -0.0310
   16CHL1   H14 1127   0.766   1.610   9.739 -0.3235  0.3188 -0.5355
   16CHL1   C15 1128   0.936   1.555   9.626 -0.5273  0.2383  0.0677
   16CHL1  H15A 1129   1.043   1.541   9.652 -0.8292 -0.0131  1.2063
   16CHL1  H15B 1130   0.885   1.456   9.625  0.0119 -0.0386 -0.1474
   16CHL1   C16 1131   0.916   1.638   9.495  0.3625 -0.3493  0.2313
   16CHL1  H16A 1132   1.014   1.667   9.451  0.2632 -1.7203 -0.9761
   16CHL1  H16B 1133   0.858   1.585   9.417 -2.1482  0.1515  1.6600
   16CHL1   C17 1134   0.826   1.764   9.535 -0.3228  0.4248 -0.3422
   16CHL1   H17 1135   0.720   1.733   9.537 -0.0325 -1.0762 -3.0365
   16CHL1   C13 1136   0.856   1.789   9.684  0.7386  0.7917  0.1930
   16CHL1   C18 1137   0.993   1.860   9.688 -0.0133 -0.6698 -0.6746
   16CHL1  H18A 1138   1.028   1.857   9.793  1.8900 -2.2468 -1.3037
   16CHL1  H18B 1139   1.062   1.821   9.611  0.6984  0.7831 -0.8059
   16CHL1  H18C 1140   0.985   1.968   9.662 -1.0881 -0.6024 -0.1329
   16CHL1   C12 1141   0.750   1.860   9.765 -0.3993 -0.1703 -0.6254
   16CHL1  H12A 1142   0.737   1.969   9.749 -3.3202 -0.2669  0.4304
   16CHL1  H12B 1143   0.652   1.809   9.750 -1.3957  0.7557  2.1181
   16CHL1   C11 1144   0.791   1.847   9.918 -0.2648  0.1875 -0.5355
   16CHL1  H11A 1145   0.877   1.914   9.940  0.3358 -1.1029  1.3093
   16CHL1  H11B 1146   0.696   1.877   9.966 -0.3984 -2.1231  0.7746
   16CHL1    C9 1147   0.813   1.699   9.964  0.7273 -0.4400  0.7158
   16CHL1    H9 1148   0.713   1.657   9.943 -1.3681  4.4325 -0.6323
   16CHL1   C10 1149   0.839   1.690  10.121  0.2510  0.5521  0.1021
   16CHL1   C19 1150   0.968   1.769  10.161  0.6482  0.1220 -0.1365
   16CHL1  H19A 1151   0.971   1.862  10.100  1.2365 -0.5746 -1.1826
   16CHL1  H19B 1152   0.965   1.794  10.270 -1.0296 -1.8504  0.3353
   16CHL1  H19C 1153   1.062   1.726  10.121  1.2791  0.8790  0.4854
   16CHL1    C1 1154   0.708   1.737  10.198 -0.4631 -0.5801 -0.2849
   16CHL1   H1A 1155   0.701   1.848  10.193 -0.0997 -0.4260  1.7456
   16CHL1   H1B 1156   0.616   1.709  10.142 -0.0206 -4.3840  0.6318
   16CHL1    C2 1157   0.693   1.696  10.343  0.1814 -0.4267 -0.8049
   16CHL1   H2A 1158   0.593   1.736  10.370  1.1214  1.2488  0.4163
   16CHL1   H2B 1159   0.769   1.748  10.406  1.7388 -2.9077 -0.4994
   16CHL1   C20 1160   0.817   1.874   9.432 -0.6623  0.0131  0.5479
   16CHL1   H20 1161   0.897   1.949   9.451 -1.7693  1.2640  0.4461
   16CHL1   C21 1162   0.702   1.967   9.473 -0.6067 -0.2752 -0.3711
   16CHL1  H21A 1163   0.687   2.036   9.387 -0.9470  1.8422  1.3019
   16CHL1  H21B 1164   0.736   2.025   9.561  0.9106 -0.8017 -0.5905
   16CHL1  H21C 1165   0.603   1.917   9.479 -0.6983  0.0536  1.4970
   16CHL1   C22 1166   0.811   1.830   9.281  0.0561  0.8125  0.1650
   16CHL1  H22A 1167   0.813   1.912   9.206  0.1130  0.1896 -0.5200
   16CHL1  H22B 1168   0.890   1.756   9.258 -0.5588 -0.4890  2.0540
   16CHL1   C23 1169   0.681   1.744   9.256  0.0589 -0.2801  0.0332
   16CHL1  H23A 1170   0.687   1.644   9.305 -3.2686  0.4842  2.3074
   16CHL1  H23B 1171   0.598   1.790   9.312 -0.6978 -0.5175 -0.8710
   16CHL1   C24 1172   0.634   1.733   9.107 -0.4195 -0.6842  0.4077
   16CHL1  H24A 1173   0.540   1.673   9.105  0.1720 -1.6147  0.4790
   16CHL1  H24B 1174   0.623   1.842   9.086  1.9498 -0.2729  1.0364
   16CHL1   C25 1175   0.734   1.664   9.010 -0.0533 -0.3399  0.5926
   16CHL1   H25 1176   0.824   1.725   8.987 -0.8121  0.8588  0.7337
   16CHL1   C26 1177   0.796   1.536   9.070  0.4438  0.0915 -0.0176
   16CHL1  H26A 1178   0.869   1.554   9.152  3.1435 -0.4772 -2.1483
   16CHL1  H26B 1179   0.720   1.464   9.106  0.7359  0.7797  2.0969
   16CHL1  H26C 1180   0.853   1.489   8.987 -1.1112 -1.0926 -0.4518
   16CHL1   C27 1181   0.649   1.636   8.882 -0.1752 -0.3039  0.0249
   16CHL1  H27A 1182   0.566   1.705   8.859 -0.9164 -1.4368 -0.8074
   16CHL1  H27B 1183   0.718   1.630   8.795  0.2836 -2.1670  0.4743
   16CHL1  H27C 1184   0.599   1.537   8.883  0.7296 -0.7713  0.3427
   17CHL1    C3 1185   3.232   3.792  10.276 -0.1701  0.1250  0.4403
   17CHL1    H3 1186   3.130   3.825  10.306  0.0306  1.5340 -0.3084
   17CHL1    O3 1187   3.307   3.789  10.400  0.3548 -0.2322 -0.4656
   17CHL1   H3' 1188   3.383   3.734  10.379  0.2608 -0.7212  0.4510
   17CHL1    C4 1189   3.235   3.653  10.204 -0.1497 -0.2510  0.0053
   17CHL1   H4A 1190   3.342   3.621  10.201  0.4880  1.7673 -0.8480
   17CHL1   H4B 1191   3.170   3.588  10.266 -0.6222  0.3268  0.1270
   17CHL1    C5 1192   3.197   3.649  10.058 -0.2155  0.1005 -0.3067
   17CHL1    C6 1193   3.097   3.566  10.018 -0.6778  1.2676 -0.3431
   17CHL1    H6 1194   3.071   3.487  10.089  1.3281  1.6369  0.9008
   17CHL1    C7 1195   3.047   3.556   9.879 -0.3129  0.5344 -0.1955
   17CHL1   H7A 1196   3.060   3.449   9.851  3.3029  1.0889 -1.2269
   17CHL1   H7B 1197   2.941   3.590   9.872 -0.3357  0.2538 -1.4700
   17CHL1    C8 1198   3.133   3.638   9.773 -0.3140 -0.2021  0.7029
   17CHL1    H8 1199   3.228   3.585   9.751 -0.1969  0.8345 -1.6513
   17CHL1   C14 1200   3.054   3.668   9.644  0.1394 -0.6503 -0.3806
   17CHL1   H14 1201   2.963   3.722   9.678 -1.5904 -3.8897  0.5317
   17CHL1   C15 1202   2.998   3.546   9.564  0.3407 -0.1727 -0.6797
   17CHL1  H15A 1203   3.071   3.463   9.575  0.0829 -0.3436 -0.2404
   17CHL1  H15B 1204   2.902   3.513   9.610  0.3994 -1.8210 -1.6487
   17CHL1   C16 1205   2.982   3.597   9.422 -0.3409 -0.5282 -0.0618
   17CHL1  H16A 1206   3.026   3.518   9.357 -0.5327 -2.0526  1.5937
   17CHL1  H16B 1207   2.873   3.600   9.403 -0.7925  0.0224  2.2637
   17CHL1   C17 1208   3.045   3.740   9.415  0.5587 -0.3849  0.1332
   17CHL1   H17 1209   2.964   3.815   9.431  1.1696  0.4285 -0.5297
   17CHL1   C13 1210   3.132   3.758   9.544  0.1311  0.0051 -0.1630
   17CHL1   C18 1211   3.268   3.699   9.516  0.2719  0.1732 -0.2180
   17CHL1  H18A 1212   3.340   3.752   9.449  2.0754 -0.1008  1.4065
   17CHL1  H18B 1213   3.331   3.685   9.606 -0.3336 -0.6898  0.0787
   17CHL1  H18C 1214   3.257   3.597   9.475 -0.2814  0.0390  0.2580
   17CHL1   C12 1215   3.151   3.895   9.609 -0.4031 -0.8385 -0.6077
   17CHL1  H12A 1216   3.208   3.963   9.543 -0.4509  1.0719  1.2302
   17CHL1  H12B 1217   3.051   3.944   9.620 -0.7334 -1.1330 -2.0222
   17CHL1   C11 1218   3.231   3.883   9.745 -0.1979  0.0634  0.0333
   17CHL1  H11A 1219   3.337   3.866   9.714 -0.1557  1.5626 -0.7387
   17CHL1  H11B 1220   3.220   3.987   9.783 -4.4754  0.2425 -1.2332
   17CHL1    C9 1221   3.173   3.772   9.835  0.4120 -0.2539  0.5735
   17CHL1    H9 1222   3.076   3.820   9.860  0.0926  0.0623 -1.1217
   17CHL1   C10 1223   3.253   3.760   9.966 -0.6869  0.4440  0.2691
   17CHL1   C19 1224   3.395   3.727   9.921  0.5212  0.2816  0.0691
   17CHL1  H19A 1225   3.447   3.821   9.890  0.7281  0.2368  0.2712
   17CHL1  H19B 1226   3.477   3.696   9.990 -0.0847  0.7501  1.0165
   17CHL1  H19C 1227   3.405   3.650   9.842  1.2815  0.7585 -0.3211
   17CHL1    C1 1228   3.242   3.898  10.040 -0.0678 -0.6595 -0.6131
   17CHL1   H1A 1229   3.292   3.980   9.985  0.0719  0.3828  0.9937
   17CHL1   H1B 1230   3.134   3.922  10.050 -0.2241 -2.0441  1.8429
   17CHL1    C2 1231   3.305   3.896  10.185  0.6236 -0.3919  0.2661
   17CHL1   H2A 1232   3.298   3.988  10.246  3.7739 -1.4093  2.3889
   17CHL1   H2B 1233   3.410   3.863  10.178  0.3817 -1.3128  0.7921
   17CHL1   C20 1234   3.115   3.774   9.279 -0.1276 -0.3123  0.5998
   17CHL1   H20 1235   3.209   3.718   9.257 -1.2915 -2.9352  1.8426
   17CHL1   C21 1236   3.145   3.925   9.274  0.2397  0.5948  1.1547
   17CHL1  H21A 1237   3.152   3.949   9.166 -1.1672  0.5040  1.0269
   17CHL1  H21B 1238   3.234   3.951   9.335  0.7663  0.3282  0.5123
   17CHL1  H21C 1239   3.065   3.991   9.314  0.1833  1.5778 -0.4924
   17CHL1   C22 1240   3.019   3.742   9.156 -0.4141  0.6730 -0.3369
   17CHL1  H22A 1241   3.073   3.757   9.060 -0.9227  1.8970 -0.4401
   17CHL1  H22B 1242   3.014   3.632   9.140  1.3253  0.3472  1.0060
   17CHL1   C23 1243   2.882   3.808   9.153 -0.2685  0.5957  0.2381
   17CHL1  H23A 1244   2.833   3.796   9.253 -0.7630 -1.5874 -0.2237
   17CHL1  H23B 1245   2.905   3.916   9.136 -1.5486  0.9366  0.5582
   17CHL1   C24 1246   2.792   3.743   9.045  0.4282  0.1485 -0.2789
   17CHL1  H24A 1247   2.838   3.767   8.947 -1.3522  2.2500 -0.6634
   17CHL1  H24B 1248   2.789   3.632   9.039  0.7867  0.2201 -4.6457
   17CHL1   C25 1249   2.654   3.811   9.026  0.7894  0.2372  0.7725
   17CHL1   H25 1250   2.601   3.798   9.123  1.1299 -2.4934  0.6628
   17CHL1   C26 1251   2.666   3.964   8.992  0.3144 -0.6207 -0.0336
   17CHL1  H26A 1252   2.566   4.011   9.005  0.7918 -0.3049  3.1168
   17CHL1  H26B 1253   2.725   4.012   9.072 -1.7382 -0.0005  1.1772
   17CHL1  H26C 1254   2.714   3.984   8.893  0.7494  0.2791  0.3483
   17CHL1   C27 1255   2.569   3.749   8.910  0.5013  0.0362  0.0495
   17CHL1  H27A 1256   2.565   3.639   8.925  2.8667 -0.1385 -0.2299
   17CHL1  H27B 1257   2.466   3.790   8.904  0.4378 -0.3260 -2.4260
   17CHL1  H27C 1258   2.634   3.765   8.822  0.6568 -3.1830 -0.5593
   18CHL1    C3 1259   2.099   1.872  10.025  1.2369  0.0187 -1.2927
   18CHL1    H3 1260   2.143   1.770  10.017  0.2579 -0.7129  1.4463
   18CHL1    O3 1261   2.067   1.895  10.164 -0.2457  0.8838 -0.4813
   18CHL1   H3' 1262   2.050   1.988  10.178 -0.4459  0.6340  1.2193
   18CHL1    C4 1263   2.186   1.983   9.986  0.7255  0.2467  0.1148
   18CHL1   H4A 1264   2.130   2.078   9.992  1.5914  0.7639  0.2151
   18CHL1   H4B 1265   2.276   1.986  10.052  0.6378  3.4946  0.2452
   18CHL1    C5 1266   2.225   1.967   9.836 -0.5422 -1.1866 -0.9537
   18CHL1    C6 1267   2.355   1.963   9.810 -0.6658  0.2286  0.7333
   18CHL1    H6 1268   2.431   1.970   9.889 -1.4581 -1.2128  1.6909
   18CHL1    C7 1269   2.394   1.946   9.667  0.0598 -0.1812 -0.0715
   18CHL1   H7A 1270   2.487   2.005   9.654  1.9742 -2.1244  3.2543
   18CHL1   H7B 1271   2.433   1.844   9.646 -1.8469 -0.8157 -0.7185
   18CHL1    C8 1272   2.279   1.983   9.564  0.0351 -0.4350 -0.0679
   18CHL1    H8 1273   2.275   2.094   9.558  2.8483 -0.2268  0.4634
   18CHL1   C14 1274   2.325   1.937   9.427 -0.3746 -0.0232 -0.0593
   18CHL1   H14 1275   2.336   1.827   9.428  1.1533  0.0630  2.7895
   18CHL1   C15 1276   2.463   1.994   9.382  0.5696  0.7397  0.1423
   18CHL1  H15A 1277   2.460   2.100   9.412 -1.3591  1.5792 -2.6650
   18CHL1  H15B 1278   2.547   1.937   9.427  1.4594  0.0555 -2.2213
   18CHL1   C16 1279   2.467   1.976   9.225  0.4204 -0.5181 -0.1233
   18CHL1  H16A 1280   2.496   2.075   9.184  4.1405 -1.6289 -0.5983
   18CHL1  H16B 1281   2.537   1.897   9.188  1.1473  0.1990 -0.3062
   18CHL1   C17 1282   2.319   1.937   9.180  0.6102 -0.4877 -0.9890
   18CHL1   H17 1283   2.316   1.826   9.178  0.1695 -0.4679 -1.6561
   18CHL1   C13 1284   2.232   1.982   9.306 -0.7894  0.4278 -0.5865
   18CHL1   C18 1285   2.203   2.134   9.294  0.5562 -0.3593 -0.1038
   18CHL1  H18A 1286   2.279   2.188   9.234  1.6220 -2.7242 -0.9898
   18CHL1  H18B 1287   2.106   2.141   9.241  0.4313 -1.5110 -0.0422
   18CHL1  H18C 1288   2.178   2.187   9.389 -0.3507 -1.2306  0.1597
   18CHL1   C12 1289   2.115   1.890   9.339 -0.8017 -0.4797 -0.1067
   18CHL1  H12A 1290   2.031   1.903   9.267 -0.9506  2.1544  0.4502
   18CHL1  H12B 1291   2.147   1.784   9.328  0.4894 -0.1671  0.4717
   18CHL1   C11 1292   2.049   1.915   9.482 -0.0846 -0.0621 -0.7311
   18CHL1  H11A 1293   2.000   2.015   9.478  0.0703 -0.0071 -1.4377
   18CHL1  H11B 1294   1.967   1.842   9.500  0.2746 -0.6324 -1.3648
   18CHL1    C9 1295   2.156   1.911   9.595  0.1582 -0.4942 -0.4339
   18CHL1    H9 1296   2.190   1.805   9.605  0.3869 -0.3158  0.8723
   18CHL1   C10 1297   2.104   1.952   9.735  1.1058 -0.1708 -0.5385
   18CHL1   C19 1298   2.035   2.093   9.727 -0.7825 -0.6142  0.3039
   18CHL1  H19A 1299   1.991   2.111   9.827  0.1621 -2.0410  1.0092
   18CHL1  H19B 1300   2.101   2.181   9.711 -1.7677  0.0456 -0.2621
   18CHL1  H19C 1301   1.961   2.103   9.645  0.0501 -0.5733 -0.4591
   18CHL1    C1 1302   2.006   1.852   9.801  0.2042  0.6409 -0.7384
   18CHL1   H1A 1303   1.917   1.849   9.735  1.0071 -0.9891 -1.8049
   18CHL1   H1B 1304   2.049   1.750   9.798 -1.6537 -0.1498 -1.5995
   18CHL1    C2 1305   1.968   1.875   9.947 -0.1011 -0.1907  0.1723
   18CHL1   H2A 1306   1.899   1.802   9.994 -1.1249  0.9242  0.4399
   18CHL1   H2B 1307   1.915   1.972   9.956 -0.6994 -0.5798  0.9766
   18CHL1   C20 1308   2.269   1.993   9.046  0.4287 -0.0617  0.2786
   18CHL1   H20 1309   2.277   2.104   9.051 -0.4750 -0.0312  1.6340
   18CHL1   C21 1310   2.124   1.959   9.006  0.1932 -0.3472 -0.2063
   18CHL1  H21A 1311   2.105   1.849   9.006  0.3401 -0.4128  1.5846
   18CHL1  H21B 1312   2.091   2.000   8.909  0.6691  3.0325  0.9346
   18CHL1  H21C 1313   2.059   1.996   9.088  1.1028 -1.7845  1.2374
   18CHL1   C22 1314   2.354   1.949   8.924  0.4903  0.1797 -0.0385
   18CHL1  H22A 1315   2.464   1.953   8.940  0.4542 -0.6078  0.4788
   18CHL1  H22B 1316   2.338   1.842   8.901  3.3475 -0.2032 -0.6731
   18CHL1   C23 1317   2.333   2.028   8.790  0.2023  0.0117  0.3255
   18CHL1  H23A 1318   2.230   2.021   8.750  0.3756 -2.4750  0.1585
   18CHL1  H23B 1319   2.375   2.129   8.809 -2.4577  1.0394  1.2403
   18CHL1   C24 1320   2.428   1.956   8.692 -0.4994  0.1358  0.7029
   18CHL1  H24A 1321   2.534   1.959   8.726 -0.3522  1.1828  0.1828
   18CHL1  H24B 1322   2.393   1.851   8.697  1.1560 -0.5502 -1.0155
   18CHL1   C25 1323   2.429   2.001   8.546 -0.1431  0.0558 -1.0149
   18CHL1   H25 1324   2.461   2.107   8.554 -2.5505  0.7863 -0.2780
   18CHL1   C26 1325   2.528   1.927   8.459 -0.0080 -0.0545 -0.0216
   18CHL1  H26A 1326   2.520   1.968   8.356  0.9032  0.1805 -0.0128
   18CHL1  H26B 1327   2.632   1.956   8.484 -0.4839  3.2178 -1.3371
   18CHL1  H26C 1328   2.508   1.818   8.463 -0.5391  0.0225 -0.5505
   18CHL1   C27 1329   2.285   2.007   8.495 -0.0751  0.1382  0.0301
   18CHL1  H27A 1330   2.274   2.062   8.400 -1.6113  3.4552  1.9562
   18CHL1  H27B 1331   2.248   1.902   8.487  1.4593 -0.3556 -0.9981
   18CHL1  H27C 1332   2.207   2.057   8.556  0.2328  0.7621 -0.0842
   19CHL1    C3 1333   0.028   6.629   9.934  0.2311 -0.5487  0.3251
   19CHL1    H3 1334   0.114   6.696   9.912 -2.2124  2.2351 -1.5472
   19CHL1    O3 1335   0.020   6.611  10.076  0.1954 -0.0284 -0.6976
   19CHL1   H3' 1336  -0.070   6.579  10.088  0.3073  0.0319  0.4047
   19CHL1    C4 1337  -0.092   6.700   9.882 -0.0684  0.0613  0.2656
   19CHL1   H4A 1338  -0.179   6.650   9.930  1.0134 -0.0809  2.1713
   19CHL1   H4B 1339  -0.090   6.803   9.924 -3.2435  0.2538  0.1331
   19CHL1    C5 1340  -0.119   6.708   9.731 -0.3620  0.0761  0.5452
   19CHL1    C6 1341  -0.140   6.828   9.671  0.3286 -0.1738 -0.0293
   19CHL1    H6 1342  -0.153   6.917   9.734  1.2583  0.7902 -1.1395
   19CHL1    C7 1343  -0.171   6.861   9.530  0.2019  0.5225 -0.1056
   19CHL1   H7A 1344  -0.276   6.897   9.530 -0.0140 -0.0959  0.6184
   19CHL1   H7B 1345  -0.102   6.941   9.495 -0.6502  1.6177  0.6586
   19CHL1    C8 1346  -0.167   6.728   9.452 -0.2490  0.3003  0.9446
   19CHL1    H8 1347  -0.272   6.692   9.464 -0.3043  0.6599  1.5835
   19CHL1   C14 1348  -0.132   6.755   9.302 -0.3038 -0.0680  0.4982
   19CHL1   H14 1349  -0.023   6.777   9.312  0.0487 -1.7818  0.7538
   19CHL1   C15 1350  -0.191   6.877   9.221 -0.4739  0.1831  0.3180
   19CHL1  H15A 1351  -0.302   6.880   9.233 -0.5246  1.2847 -0.3167
   19CHL1  H15B 1352  -0.138   6.972   9.247  0.6184 -1.0037  2.7417
   19CHL1   C16 1353  -0.163   6.847   9.078  0.2125 -0.2835  0.6806
   19CHL1  H16A 1354  -0.258   6.855   9.021  0.5198 -0.6192  0.1127
   19CHL1  H16B 1355  -0.099   6.924   9.030 -1.0643  0.9093  0.8281
   19CHL1   C17 1356  -0.123   6.706   9.065  0.1481 -0.2709 -0.1852
   19CHL1   H17 1357  -0.014   6.695   9.046  0.0363 -0.7045 -0.6112
   19CHL1   C13 1358  -0.138   6.641   9.202  0.0801 -0.5676  0.3233
   19CHL1   C18 1359  -0.284   6.593   9.212 -0.1385  0.4984 -0.5866
   19CHL1  H18A 1360  -0.352   6.680   9.198 -0.7131  0.0696 -0.4923
   19CHL1  H18B 1361  -0.310   6.516   9.137  0.3836 -2.3722  1.9740
   19CHL1  H18C 1362  -0.296   6.535   9.305 -1.1241  1.8878  0.1888
   19CHL1   C12 1363  -0.043   6.542   9.257 -1.0981  0.1042 -0.1299
   19CHL1  H12A 1364  -0.047   6.450   9.196 -1.6328  0.8066 -1.1880
   19CHL1  H12B 1365   0.057   6.587   9.238 -1.4495  0.5295 -1.0063
   19CHL1   C11 1366  -0.059   6.503   9.408 -0.4315 -0.1342  0.3443
   19CHL1  H11A 1367  -0.144   6.433   9.421 -0.5250  0.2382  1.8474
   19CHL1  H11B 1368   0.031   6.448   9.442  2.0892  1.0865 -3.6271
   19CHL1    C9 1369  -0.071   6.624   9.503  0.7245 -0.1119 -0.4007
   19CHL1    H9 1370   0.027   6.674   9.488  0.1745  1.0709 -0.2027
   19CHL1   C10 1371  -0.093   6.582   9.647  0.4259 -0.0842 -0.8289
   19CHL1   C19 1372  -0.216   6.492   9.654  0.3239  0.5616  0.5277
   19CHL1  H19A 1373  -0.241   6.476   9.761 -2.5103 -0.4856 -0.2033
   19CHL1  H19B 1374  -0.305   6.546   9.615  0.1990  0.5230  0.7585
   19CHL1  H19C 1375  -0.206   6.395   9.600 -1.4253  0.0694  1.0142
   19CHL1    C1 1376   0.024   6.510   9.710 -0.6606 -0.3005 -0.1103
   19CHL1   H1A 1377   0.022   6.404   9.676 -0.6542 -0.1700 -0.5269
   19CHL1   H1B 1378   0.112   6.559   9.664  0.7201 -2.4246  0.1167
   19CHL1    C2 1379   0.038   6.492   9.865  0.4190  0.2890  0.1534
   19CHL1   H2A 1380   0.132   6.448   9.904 -0.6807  0.4123  3.2304
   19CHL1   H2B 1381  -0.043   6.424   9.900  1.1145  0.4623  2.1964
   19CHL1   C20 1382  -0.177   6.629   8.937 -0.1086  0.0054 -0.2611
   19CHL1   H20 1383  -0.287   6.618   8.943 -0.4815  2.4566 -1.2930
   19CHL1   C21 1384  -0.105   6.493   8.913 -0.0189  0.3618 -0.1060
   19CHL1  H21A 1385   0.004   6.503   8.898  0.0968  0.7228  0.9100
   19CHL1  H21B 1386  -0.145   6.440   8.824  0.8085 -0.8101  0.2026
   19CHL1  H21C 1387  -0.130   6.426   8.998  0.1146 -0.6373 -0.8411
   19CHL1   C22 1388  -0.161   6.722   8.810  0.3456  0.8164  0.5000
   19CHL1  H22A 1389  -0.214   6.819   8.824  1.2001  1.6749 -1.7574
   19CHL1  H22B 1390  -0.053   6.744   8.801  0.5817 -1.0951 -3.7828
   19CHL1   C23 1391  -0.212   6.663   8.678  0.0908  0.0069 -0.4043
   19CHL1  H23A 1392  -0.160   6.567   8.661  1.1636 -0.0883  2.7758
   19CHL1  H23B 1393  -0.318   6.648   8.709 -0.0327  2.4738  0.5760
   19CHL1   C24 1394  -0.207   6.759   8.557 -0.3832  0.3069  0.1906
   19CHL1  H24A 1395  -0.263   6.855   8.562  1.0600  1.1763  0.0880
   19CHL1  H24B 1396  -0.104   6.795   8.541  0.3286 -1.5891  0.1870
   19CHL1   C25 1397  -0.256   6.691   8.426  0.0962 -0.1141  0.0004
   19CHL1   H25 1398  -0.186   6.609   8.399 -0.0499 -0.0595 -0.5565
   19CHL1   C26 1399  -0.400   6.637   8.441  0.5885  0.0254 -0.3446
   19CHL1  H26A 1400  -0.408   6.564   8.525  0.6970  0.8568  0.3992
   19CHL1  H26B 1401  -0.465   6.718   8.480 -0.3325  0.0009 -1.7402
   19CHL1  H26C 1402  -0.451   6.598   8.350  1.0359 -0.1010 -0.5448
   19CHL1   C27 1403  -0.247   6.790   8.310 -0.2140  0.6844  0.3822
   19CHL1  H27A 1404  -0.293   6.741   8.221  1.1620  0.0185  0.0076
   19CHL1  H27B 1405  -0.307   6.884   8.318 -0.4513  0.4750  1.0618
   19CHL1  H27C 1406  -0.142   6.809   8.281 -0.2110 -0.2920 -0.2711
   20CHL1    C3 1407   1.649   0.301  10.256  0.3146 -0.0005 -0.2977
   20CHL1    H3 1408   1.611   0.405  10.243  1.3294  0.3916 -0.2697
   20CHL1    O3 1409   1.663   0.270  10.396  0.4225 -0.0080  0.3086
   20CHL1   H3' 1410   1.747   0.313  10.416  0.1237  1.2561 -0.9830
   20CHL1    C4 1411   1.554   0.200  10.191 -0.4486  0.3023 -0.0264
   20CHL1   H4A 1412   1.588   0.095  10.196 -2.1098 -0.4203 -2.2093
   20CHL1   H4B 1413   1.467   0.208  10.260  0.2138  0.9732  0.7530
   20CHL1    C5 1414   1.528   0.228  10.046  0.1434  0.1638 -0.4563
   20CHL1    C6 1415   1.407   0.262   9.995 -0.1034  0.2445 -0.3393
   20CHL1    H6 1416   1.325   0.274  10.068  1.2367  3.8009  0.7861
   20CHL1    C7 1417   1.373   0.296   9.852 -0.1843 -0.0041 -0.4559
   20CHL1   H7A 1418   1.282   0.241   9.819 -0.3306 -0.7202  1.0514
   20CHL1   H7B 1419   1.365   0.405   9.833  0.2601 -0.3661 -3.0784
   20CHL1    C8 1420   1.488   0.248   9.760 -0.8949  0.2182  0.6320
   20CHL1    H8 1421   1.498   0.138   9.757  0.9301  0.3686 -1.5735
   20CHL1   C14 1422   1.460   0.312   9.625 -0.1647  0.3041  0.3701
   20CHL1   H14 1423   1.452   0.420   9.653  0.3294  0.6598 -0.8198
   20CHL1   C15 1424   1.334   0.271   9.540  0.4500  0.8454 -1.2400
   20CHL1  H15A 1425   1.334   0.160   9.545  1.1760  0.7926 -2.2544
   20CHL1  H15B 1426   1.248   0.325   9.585  1.8601  2.2314 -0.1022
   20CHL1   C16 1427   1.367   0.318   9.398  0.1235  0.0772 -0.1696
   20CHL1  H16A 1428   1.353   0.228   9.334  1.3720 -0.9930  0.9885
   20CHL1  H16B 1429   1.290   0.392   9.368  1.2216  1.0839 -0.5694
   20CHL1   C17 1430   1.509   0.366   9.400  0.8226 -0.6106 -0.0711
   20CHL1   H17 1431   1.503   0.475   9.418  1.2409 -0.6269  0.1951
   20CHL1   C13 1432   1.570   0.308   9.531 -0.1535 -0.3842  1.1302
   20CHL1   C18 1433   1.610   0.157   9.502 -0.4633  0.5890 -0.1374
   20CHL1  H18A 1434   1.623   0.103   9.598 -0.1345  3.1869  1.3716
   20CHL1  H18B 1435   1.543   0.098   9.435 -1.8733 -0.1047  1.7646
   20CHL1  H18C 1436   1.698   0.158   9.435  0.0593  0.1654  0.5266
   20CHL1   C12 1437   1.691   0.385   9.588  0.4496 -0.4367  0.1256
   20CHL1  H12A 1438   1.776   0.384   9.515  1.2821 -1.4064  1.0727
   20CHL1  H12B 1439   1.661   0.488   9.617 -0.4494 -1.1190  1.6797
   20CHL1   C11 1440   1.736   0.316   9.721  0.4971  0.1290 -0.3673
   20CHL1  H11A 1441   1.776   0.214   9.701 -2.0545 -1.1173  0.5562
   20CHL1  H11B 1442   1.811   0.386   9.764  0.2174 -0.4461  1.0925
   20CHL1    C9 1443   1.620   0.304   9.824  0.7014 -0.6325  0.3154
   20CHL1    H9 1444   1.590   0.405   9.859 -3.0992 -1.9928  1.4620
   20CHL1   C10 1445   1.654   0.234   9.955  0.1456  0.1255  0.2124
   20CHL1   C19 1446   1.712   0.099   9.921 -0.1036  0.0575  0.4777
   20CHL1  H19A 1447   1.647   0.033   9.859  1.7009 -1.5353  0.1928
   20CHL1  H19B 1448   1.812   0.097   9.873 -0.7330  0.5292 -0.9204
   20CHL1  H19C 1449   1.725   0.047  10.019 -0.6397 -1.2857 -0.1380
   20CHL1    C1 1450   1.756   0.320  10.031 -0.2611  0.1772 -0.4886
   20CHL1   H1A 1451   1.848   0.331   9.969 -0.2540  0.0507 -0.5015
   20CHL1   H1B 1452   1.721   0.425  10.021  1.1856  0.9053  1.4035
   20CHL1    C2 1453   1.783   0.294  10.184  0.1761  0.3974  0.9674
   20CHL1   H2A 1454   1.852   0.364  10.236 -0.9007  1.6738  0.7368
   20CHL1   H2B 1455   1.825   0.191  10.190 -0.6925 -0.0776 -0.5890
   20CHL1   C20 1456   1.592   0.364   9.270  0.1984  0.5858  0.2025
   20CHL1   H20 1457   1.697   0.347   9.300  0.9327  1.0234 -1.9339
   20CHL1   C21 1458   1.582   0.506   9.213  0.4568  0.2419  0.3541
   20CHL1  H21A 1459   1.476   0.524   9.184  0.4440  0.5227  0.5674
   20CHL1  H21B 1460   1.641   0.512   9.119 -1.1469  0.2829 -0.6893
   20CHL1  H21C 1461   1.601   0.592   9.281 -1.9833  2.0557 -1.1025
   20CHL1   C22 1462   1.564   0.246   9.170  0.1629  0.6329 -0.5313
   20CHL1  H22A 1463   1.587   0.154   9.229  0.3506  1.0470  0.0545
   20CHL1  H22B 1464   1.457   0.245   9.141  0.5886 -0.6529 -2.2027
   20CHL1   C23 1465   1.637   0.246   9.040 -0.3625 -0.2549  0.1667
   20CHL1  H23A 1466   1.604   0.335   8.982 -1.2905 -0.0322  1.0120
   20CHL1  H23B 1467   1.746   0.258   9.058 -0.3281  0.5568 -0.5453
   20CHL1   C24 1468   1.604   0.120   8.960  0.9779  0.3675  0.2469
   20CHL1  H24A 1469   1.616   0.036   9.032 -0.6596 -0.6170 -0.5537
   20CHL1  H24B 1470   1.496   0.111   8.934  1.1284 -1.7735  0.1712
   20CHL1   C25 1471   1.696   0.101   8.840 -0.2547 -0.1222 -0.5257
   20CHL1   H25 1472   1.799   0.117   8.878  0.2766  1.1132 -2.3722
   20CHL1   C26 1473   1.682  -0.042   8.790 -0.0803 -0.7063 -0.3710
   20CHL1  H26A 1474   1.717  -0.111   8.869  1.2361  1.3915  0.9732
   20CHL1  H26B 1475   1.577  -0.069   8.763 -0.3996  1.1086 -1.0645
   20CHL1  H26C 1476   1.740  -0.063   8.697 -0.1501 -5.4503  0.4095
   20CHL1   C27 1477   1.685   0.197   8.726  0.0308  0.3957  0.0960
   20CHL1  H27A 1478   1.583   0.181   8.685  0.5965 -1.4772 -0.6917
   20CHL1  H27B 1479   1.681   0.299   8.769  0.6352 -0.4400  2.2413
   20CHL1  H27C 1480   1.762   0.180   8.648  1.8630  1.1443  1.6556
   21CHL1    C3 1481   2.823   2.632   9.962 -0.0164 -0.3426  0.1395
   21CHL1    H3 1482   2.919   2.579   9.941 -0.3243 -0.7567 -0.2314
   21CHL1    O3 1483   2.819   2.680  10.097  0.0680  0.0005 -0.1230
   21CHL1   H3' 1484   2.806   2.600  10.149 -0.9317 -0.0224 -0.3992
   21CHL1    C4 1485   2.814   2.749   9.863 -0.3454 -0.5046 -0.0069
   21CHL1   H4A 1486   2.727   2.816   9.879  0.6383  1.8466 -3.3725
   21CHL1   H4B 1487   2.908   2.804   9.887  1.3820 -2.8607 -1.0330
   21CHL1    C5 1488   2.814   2.707   9.717  0.4730  0.0563 -0.8925
   21CHL1    C6 1489   2.905   2.757   9.635 -0.3076  0.2811  1.0857
   21CHL1    H6 1490   2.971   2.832   9.680  1.2972  0.1964 -0.9582
   21CHL1    C7 1491   2.902   2.727   9.488  0.4818  0.9481  0.3197
   21CHL1   H7A 1492   2.915   2.821   9.431 -0.9461  0.0152 -1.6623
   21CHL1   H7B 1493   2.980   2.654   9.456 -1.8146 -0.8988 -1.4594
   21CHL1    C8 1494   2.772   2.666   9.434 -0.8801  0.1903  0.3326
   21CHL1    H8 1495   2.696   2.746   9.422 -0.0874  1.2165  1.8710
   21CHL1   C14 1496   2.790   2.600   9.298  0.1343 -0.3822  0.1792
   21CHL1   H14 1497   2.877   2.531   9.289  1.4962  1.1419  1.0016
   21CHL1   C15 1498   2.829   2.699   9.183  0.1776 -0.1390  0.2527
   21CHL1  H15A 1499   2.760   2.786   9.187  1.6256  1.0617  0.1169
   21CHL1  H15B 1500   2.934   2.732   9.169  0.3958 -1.9947 -3.4227
   21CHL1   C16 1501   2.810   2.616   9.052 -0.0390  0.4928  0.1962
   21CHL1  H16A 1502   2.754   2.669   8.972 -0.8259 -0.6326 -0.0090
   21CHL1  H16B 1503   2.903   2.587   9.000  0.5812  0.0949  1.4705
   21CHL1   C17 1504   2.729   2.486   9.093 -0.4662 -0.5250 -0.2796
   21CHL1   H17 1505   2.807   2.408   9.108 -0.3382 -0.5361 -0.9864
   21CHL1   C13 1506   2.675   2.521   9.238  0.3110  0.0046  0.0828
   21CHL1   C18 1507   2.553   2.616   9.217 -0.1375  0.1755 -0.6147
   21CHL1  H18A 1508   2.576   2.694   9.142  2.0724 -1.2414 -1.5175
   21CHL1  H18B 1509   2.473   2.547   9.183  1.0674 -1.4466 -0.2609
   21CHL1  H18C 1510   2.532   2.662   9.316  2.6703  1.2688 -0.4368
   21CHL1   C12 1511   2.642   2.405   9.336  0.4092  0.3368  0.0700
   21CHL1  H12A 1512   2.549   2.353   9.307  2.1611 -1.6167 -2.4998
   21CHL1  H12B 1513   2.725   2.331   9.336  1.0438  0.8678  3.2092
   21CHL1   C11 1514   2.634   2.449   9.480 -0.2057 -0.2509  0.7389
   21CHL1  H11A 1515   2.530   2.487   9.477 -0.6895 -1.5719 -0.8686
   21CHL1  H11B 1516   2.625   2.365   9.552  0.4216  0.3487  1.5347
   21CHL1    C9 1517   2.739   2.556   9.535  0.5293 -0.2545 -0.0003
   21CHL1    H9 1518   2.830   2.496   9.554  1.4188  1.4440  1.3336
   21CHL1   C10 1519   2.699   2.611   9.677 -0.3711 -0.3424 -0.1068
   21CHL1   C19 1520   2.569   2.689   9.684  0.7918  0.8577  0.2818
   21CHL1  H19A 1521   2.553   2.730   9.786  3.5287 -0.1451  1.2008
   21CHL1  H19B 1522   2.572   2.773   9.611  3.4664 -0.7189 -1.6218
   21CHL1  H19C 1523   2.483   2.622   9.659 -1.0244  3.0229  0.4340
   21CHL1    C1 1524   2.700   2.494   9.780 -0.5513  0.1807 -0.4181
   21CHL1   H1A 1525   2.609   2.432   9.765 -0.6980  0.2685  0.0929
   21CHL1   H1B 1526   2.793   2.434   9.767 -0.2484  0.3767  0.7207
   21CHL1    C2 1527   2.705   2.536   9.931  0.1612 -0.3325 -0.4180
   21CHL1   H2A 1528   2.716   2.443   9.990  0.0093  0.7537  1.3980
   21CHL1   H2B 1529   2.609   2.592   9.941  0.2234 -0.4310  0.8124
   21CHL1   C20 1530   2.618   2.438   8.993 -0.5625 -0.3292  0.6106
   21CHL1   H20 1531   2.531   2.508   8.990 -1.0119 -0.8947  0.2138
   21CHL1   C21 1532   2.557   2.299   9.025  0.4160  0.9600 -0.2449
   21CHL1  H21A 1533   2.491   2.255   8.947  1.1164 -1.1326  0.2873
   21CHL1  H21B 1534   2.498   2.299   9.119  1.0485  0.3702  0.1589
   21CHL1  H21C 1535   2.635   2.222   9.044  0.7374  1.3919  0.2160
   21CHL1   C22 1536   2.668   2.447   8.842 -0.1047  0.5914  0.3383
   21CHL1  H22A 1537   2.738   2.529   8.815 -0.4994  0.4428 -1.2777
   21CHL1  H22B 1538   2.710   2.346   8.820 -0.3163  0.7489 -0.8632
   21CHL1   C23 1539   2.548   2.460   8.748 -0.7574  0.2222  0.8008
   21CHL1  H23A 1540   2.481   2.373   8.765  0.1495 -0.1250  2.9983
   21CHL1  H23B 1541   2.495   2.551   8.785 -4.0733 -1.1749 -0.1626
   21CHL1   C24 1542   2.574   2.463   8.592  0.5802 -0.4069 -0.2503
   21CHL1  H24A 1543   2.645   2.547   8.573 -0.0186 -0.0832 -1.1131
   21CHL1  H24B 1544   2.625   2.368   8.566 -0.0558 -1.1123  0.9840
   21CHL1   C25 1545   2.448   2.477   8.505  0.6044 -0.7187  0.2375
   21CHL1   H25 1546   2.367   2.420   8.557  0.0221 -0.0143  0.1203
   21CHL1   C26 1547   2.397   2.624   8.494  0.0097 -0.5221  0.0997
   21CHL1  H26A 1548   2.486   2.690   8.494 -0.4169  0.0740 -1.2240
   21CHL1  H26B 1549   2.340   2.638   8.400 -0.2882 -0.9323  0.2138
   21CHL1  H26C 1550   2.326   2.639   8.578  0.2587 -1.3163  0.4643
   21CHL1   C27 1551   2.473   2.426   8.356  0.3978 -0.7749 -0.1293
   21CHL1  H27A 1552   2.486   2.316   8.344  0.2582 -0.7144 -0.9229
   21CHL1  H27B 1553   2.393   2.450   8.282  0.7643 -1.4647 -0.7734
   21CHL1  H27C 1554   2.571   2.461   8.317 -0.8619  1.0370 -1.8565
   22CHL1    C3 1555   2.437   5.715  10.088  0.5846  0.1230  0.2602
   22CHL1    H3 1556   2.546   5.710  10.113  1.2554 -2.5336 -2.4992
   22CHL1    O3 1557   2.356   5.692  10.204 -0.5761  0.1149 -0.4004
   22CHL1   H3' 1558   2.373   5.601  10.229 -0.7318 -0.3863 -1.9741
   22CHL1    C4 1559   2.401   5.850  10.031 -0.6018  0.4608  0.1475
   22CHL1   H4A 1560   2.291   5.854  10.015 -0.6578  1.4538  0.7318
   22CHL1   H4B 1561   2.416   5.931  10.105  0.1004 -0.5109  1.0993
   22CHL1    C5 1562   2.478   5.882   9.900  0.0574  0.0986  0.6650
   22CHL1    C6 1563   2.558   5.987   9.884  0.2935  0.3023 -0.0829
   22CHL1    H6 1564   2.575   6.051   9.972 -0.4063 -0.3998  0.5688
   22CHL1    C7 1565   2.640   6.010   9.762 -0.7168  1.0735  0.1079
   22CHL1   H7A 1566   2.656   6.120   9.750  2.6426  0.5835 -1.0233
   22CHL1   H7B 1567   2.742   5.969   9.776 -0.9175  0.7688  0.7056
   22CHL1    C8 1568   2.577   5.948   9.634 -1.3471 -0.7881 -0.2181
   22CHL1    H8 1569   2.475   5.992   9.633 -1.5863 -1.2557 -2.4311
   22CHL1   C14 1570   2.659   5.969   9.506  0.5244  0.2582 -0.1026
   22CHL1   H14 1571   2.751   5.914   9.537 -0.3845 -1.3809 -0.1836
   22CHL1   C15 1572   2.708   6.113   9.458  0.6467 -0.1532 -0.8142
   22CHL1  H15A 1573   2.628   6.189   9.457  2.3328  2.0256  3.5248
   22CHL1  H15B 1574   2.792   6.145   9.523  0.2501 -1.4623  0.3749
   22CHL1   C16 1575   2.739   6.091   9.311 -0.2496  0.3539  0.4360
   22CHL1  H16A 1576   2.680   6.163   9.249  0.3072 -0.6130 -1.2705
   22CHL1  H16B 1577   2.845   6.115   9.291  0.3281 -1.7324  0.7769
   22CHL1   C17 1578   2.719   5.943   9.273  0.3172 -0.1748 -0.1870
   22CHL1   H17 1579   2.813   5.888   9.297  1.7379  1.7969 -0.9404
   22CHL1   C13 1580   2.618   5.901   9.378 -0.4468  0.8905 -0.1046
   22CHL1   C18 1581   2.479   5.955   9.333 -0.4940 -0.3651  0.4113
   22CHL1  H18A 1582   2.398   5.948   9.409 -0.4274  1.0725  0.6370
   22CHL1  H18B 1583   2.484   6.061   9.303 -0.8791 -0.5537 -0.3387
   22CHL1  H18C 1584   2.445   5.901   9.242 -1.9983 -1.0832  1.3552
   22CHL1   C12 1585   2.607   5.747   9.418 -0.3756 -0.4912  0.2138
   22CHL1  H12A 1586   2.574   5.694   9.326  1.0317  0.7157 -1.0381
   22CHL1  H12B 1587   2.708   5.709   9.444  0.6109  2.7127  1.5860
   22CHL1   C11 1588   2.513   5.725   9.538 -0.4521  0.3795  0.0191
   22CHL1  H11A 1589   2.409   5.745   9.504 -0.1845 -2.9225 -3.4475
   22CHL1  H11B 1590   2.519   5.616   9.561 -2.3638  0.1831 -0.2230
   22CHL1    C9 1591   2.563   5.800   9.660 -0.2868  1.2164 -0.1840
   22CHL1    H9 1592   2.663   5.759   9.684  0.6565  3.6891  0.3128
   22CHL1   C10 1593   2.463   5.775   9.787 -0.1125  0.5413 -0.3656
   22CHL1   C19 1594   2.312   5.788   9.741 -0.9732 -0.3875  0.3636
   22CHL1  H19A 1595   2.293   5.886   9.693  0.0902 -0.0315  0.6390
   22CHL1  H19B 1596   2.290   5.701   9.676  1.3644  0.4081 -1.6348
   22CHL1  H19C 1597   2.240   5.776   9.825 -1.2391 -2.1475 -0.0881
   22CHL1    C1 1598   2.478   5.629   9.845  0.6195 -0.1534 -0.1628
   22CHL1   H1A 1599   2.428   5.561   9.773  2.3929 -3.5408  1.5100
   22CHL1   H1B 1600   2.585   5.600   9.840  0.1560 -1.8295 -1.6584
   22CHL1    C2 1601   2.397   5.606   9.979  0.2306 -0.6135 -0.3495
   22CHL1   H2A 1602   2.416   5.508  10.026 -0.3669  0.8679  3.2852
   22CHL1   H2B 1603   2.290   5.615   9.950  0.5422 -1.1399 -1.7624
   22CHL1   C20 1604   2.696   5.919   9.124  0.0328 -1.2339  0.1625
   22CHL1   H20 1605   2.603   5.952   9.073  1.4263 -2.5256 -3.5575
   22CHL1   C21 1606   2.701   5.774   9.100  0.4046 -0.5732 -1.1289
   22CHL1  H21A 1607   2.691   5.759   8.990 -2.1988  0.2587 -1.0913
   22CHL1  H21B 1608   2.618   5.718   9.149  0.3691 -0.5946 -1.2128
   22CHL1  H21C 1609   2.792   5.725   9.140  0.4330  1.4523  1.5351
   22CHL1   C22 1610   2.808   5.969   9.028  0.6674  0.0395 -0.2983
   22CHL1  H22A 1611   2.857   6.058   9.072  1.3791  0.1693 -1.3115
   22CHL1  H22B 1612   2.898   5.905   9.032 -0.2078 -1.1565  1.3653
   22CHL1   C23 1613   2.761   6.014   8.893 -0.3226  0.2289 -0.2162
   22CHL1  H23A 1614   2.714   5.934   8.832  1.0726  1.1885 -2.6776
   22CHL1  H23B 1615   2.684   6.094   8.903  0.8347  1.6686 -2.1578
   22CHL1   C24 1616   2.877   6.065   8.818 -0.3300  0.1970  0.3072
   22CHL1  H24A 1617   2.940   6.129   8.883  1.5692 -0.7282 -0.5547
   22CHL1  H24B 1618   2.944   5.993   8.768 -0.2520 -0.4295  1.2989
   22CHL1   C25 1619   2.830   6.166   8.706  0.1408 -0.0019 -0.2609
   22CHL1   H25 1620   2.758   6.236   8.753  0.2454 -1.0593  1.5743
   22CHL1   C26 1621   2.954   6.242   8.645 -0.2629 -0.4187 -0.2256
   22CHL1  H26A 1622   2.926   6.307   8.560 -0.5713  0.3522  0.4547
   22CHL1  H26B 1623   3.004   6.291   8.731  1.4658  0.0208 -1.4148
   22CHL1  H26C 1624   3.040   6.177   8.618  2.8700  2.3523  2.2550
   22CHL1   C27 1625   2.750   6.091   8.602 -0.3846 -0.2911 -0.1436
   22CHL1  H27A 1626   2.806   5.997   8.579 -0.8288 -0.4877 -0.4242
   22CHL1  H27B 1627   2.655   6.054   8.644 -0.2770 -1.3009 -0.7319
   22CHL1  H27C 1628   2.738   6.150   8.509  2.1581  0.9386  0.2001
   23CHL1    C3 1629   3.309   6.745   9.922  0.0185 -0.0507  0.9104
   23CHL1    H3 1630   3.235   6.668   9.891 -1.3054  0.9859  1.3747
   23CHL1    O3 1631   3.303   6.754  10.061 -0.2184  0.2202  0.3503
   23CHL1   H3' 1632   3.375   6.697  10.087  0.0238  1.3361  2.3213
   23CHL1    C4 1633   3.449   6.712   9.872 -0.2163  0.7876  0.8796
   23CHL1   H4A 1634   3.531   6.774   9.914  1.2753 -1.4401  1.4172
   23CHL1   H4B 1635   3.477   6.612   9.911  1.4889  0.5897 -0.7279
   23CHL1    C5 1636   3.445   6.710   9.720  0.3305 -0.0928  0.0772
   23CHL1    C6 1637   3.479   6.602   9.651 -0.2682  0.2114 -0.2166
   23CHL1    H6 1638   3.529   6.515   9.695  0.3694 -0.3214 -1.9075
   23CHL1    C7 1639   3.498   6.608   9.503 -0.3538  0.1429 -0.7947
   23CHL1   H7A 1640   3.597   6.560   9.484  0.5067  1.2529  0.6709
   23CHL1   H7B 1641   3.417   6.549   9.454 -0.2354  2.0090 -3.4468
   23CHL1    C8 1642   3.500   6.752   9.440  0.3538 -0.5112 -0.0949
   23CHL1    H8 1643   3.598   6.802   9.453  0.1111 -0.0977  0.1428
   23CHL1   C14 1644   3.473   6.729   9.293  0.4302 -0.6797  0.1775
   23CHL1   H14 1645   3.380   6.670   9.282 -0.3419  0.1683  1.7970
   23CHL1   C15 1646   3.580   6.652   9.219 -0.5197  0.1547 -0.3633
   23CHL1  H15A 1647   3.683   6.681   9.248  1.1138 -3.8945 -1.3547
   23CHL1  H15B 1648   3.580   6.541   9.228  3.2253  0.0617 -0.0148
   23CHL1   C16 1649   3.559   6.692   9.067  0.0216 -0.1042  0.1776
   23CHL1  H16A 1650   3.655   6.729   9.027  1.0827 -3.4805 -0.7260
   23CHL1  H16B 1651   3.521   6.603   9.012  1.0130  0.7003 -1.8766
   23CHL1   C17 1652   3.445   6.799   9.065  1.0287  0.5116 -0.2900
   23CHL1   H17 1653   3.350   6.743   9.054  0.6024  0.8081  1.5740
   23CHL1   C13 1654   3.447   6.854   9.213 -0.4393  0.1905  0.3071
   23CHL1   C18 1655   3.558   6.960   9.224 -0.1030 -0.9366 -1.0156
   23CHL1  H18A 1656   3.651   6.909   9.193  1.5100 -0.0546  1.9780
   23CHL1  H18B 1657   3.551   7.054   9.164  0.1120 -0.2539 -0.0028
   23CHL1  H18C 1658   3.571   6.996   9.328  2.9593 -1.5451 -1.1041
   23CHL1   C12 1659   3.318   6.915   9.261 -0.0719 -0.6741 -0.3315
   23CHL1  H12A 1660   3.301   7.015   9.215  0.9968 -0.3411 -0.0244
   23CHL1  H12B 1661   3.237   6.844   9.234 -2.3667  0.6253  2.4947
   23CHL1   C11 1662   3.330   6.947   9.414  0.4159  0.3329 -0.0895
   23CHL1  H11A 1663   3.378   7.046   9.429 -2.1101  1.4496  1.0718
   23CHL1  H11B 1664   3.229   6.971   9.452 -0.6467 -1.2759 -1.7631
   23CHL1    C9 1665   3.378   6.821   9.498  0.1714  0.0135 -0.0359
   23CHL1    H9 1666   3.293   6.751   9.487  1.2663 -1.0702 -2.0596
   23CHL1   C10 1667   3.392   6.838   9.650  0.6415 -0.7206  0.1011
   23CHL1   C19 1668   3.498   6.955   9.686 -0.6266  0.1936  0.0471
   23CHL1  H19A 1669   3.461   7.048   9.638 -1.8060 -0.6261 -0.6853
   23CHL1  H19B 1670   3.507   6.964   9.796 -0.0973 -0.2196  0.0370
   23CHL1  H19C 1671   3.593   6.925   9.638  1.2498  3.6791  1.1758
   23CHL1    C1 1672   3.250   6.873   9.713  1.4132 -0.1411 -0.1609
   23CHL1   H1A 1673   3.213   6.966   9.664 -0.1844 -1.7897 -2.2998
   23CHL1   H1B 1674   3.180   6.790   9.687 -1.7121  2.7014 -1.6536
   23CHL1    C2 1675   3.264   6.880   9.866 -0.2012  0.2761 -0.0893
   23CHL1   H2A 1676   3.168   6.913   9.911 -1.4916 -2.3423 -0.7177
   23CHL1   H2B 1677   3.336   6.952   9.911 -2.7292  1.2885  2.6568
   23CHL1   C20 1678   3.460   6.897   8.951  0.6487  0.2871 -0.0538
   23CHL1   H20 1679   3.554   6.956   8.954  0.0107  1.4850 -1.8766
   23CHL1   C21 1680   3.337   6.993   8.940 -0.5149  0.5262  0.2574
   23CHL1  H21A 1681   3.327   7.032   8.837  1.1765 -3.0043 -1.4308
   23CHL1  H21B 1682   3.353   7.081   9.006  0.5407  1.1741 -0.8320
   23CHL1  H21C 1683   3.240   6.941   8.956 -0.0183 -0.1390  1.1849
   23CHL1   C22 1684   3.469   6.817   8.817  0.1678  0.1339  0.7819
   23CHL1  H22A 1685   3.552   6.744   8.816 -0.0592 -0.1245  0.0852
   23CHL1  H22B 1686   3.370   6.766   8.813 -0.2331  0.4935  3.7762
   23CHL1   C23 1687   3.505   6.896   8.688 -0.1771  0.5730 -0.2668
   23CHL1  H23A 1688   3.514   6.827   8.601 -0.3614  0.2348 -0.0191
   23CHL1  H23B 1689   3.420   6.964   8.667 -1.4957 -0.6765  0.7938
   23CHL1   C24 1690   3.644   6.977   8.700  0.3315  0.0603  1.2954
   23CHL1  H24A 1691   3.623   7.064   8.767  0.3136 -0.0451  1.4270
   23CHL1  H24B 1692   3.721   6.910   8.743 -0.2939 -0.3790  1.7500
   23CHL1   C25 1693   3.700   7.030   8.564 -0.5186 -0.3297  0.6318
   23CHL1   H25 1694   3.618   7.080   8.509 -0.0737 -1.0063 -0.6950
   23CHL1   C26 1695   3.812   7.126   8.592  0.2198  0.0261  0.0694
   23CHL1  H26A 1696   3.896   7.082   8.649 -0.3313 -0.8049  0.2473
   23CHL1  H26B 1697   3.845   7.170   8.495  0.1031 -0.1120 -0.0346
   23CHL1  H26C 1698   3.769   7.211   8.650  1.3378 -0.6356  1.9572
   23CHL1   C27 1699   3.751   6.913   8.476  0.0336  0.0687  0.0729
   23CHL1  H27A 1700   3.671   6.842   8.446  0.3085  1.0998 -3.4869
   23CHL1  H27B 1701   3.799   6.951   8.384 -0.2499 -0.0625 -0.1298
   23CHL1  H27C 1702   3.825   6.852   8.533  2.0584 -0.5528 -2.9530
   24CHL1    C3 1703   5.278   0.420   9.921  0.9673  1.0415  0.4309
   24CHL1    H3 1704   5.187   0.484   9.916  0.3637  0.1403 -0.4207
   24CHL1    O3 1705   5.323   0.410  10.049 -0.0111  0.3810  0.6204
   24CHL1   H3' 1706   5.410   0.371  10.036 -0.5946 -0.5686 -0.6031
   24CHL1    C4 1707   5.256   0.281   9.856 -0.4687  0.0380 -0.8818
   24CHL1   H4A 1708   5.348   0.220   9.871 -0.8976 -0.7891 -1.5721
   24CHL1   H4B 1709   5.181   0.231   9.920  1.1749 -0.9579  0.3511
   24CHL1    C5 1710   5.214   0.290   9.713 -0.5708 -0.0293 -0.1039
   24CHL1    C6 1711   5.091   0.239   9.670 -0.2147  0.5803 -0.1793
   24CHL1    H6 1712   5.024   0.196   9.746 -1.2983  1.8925 -0.3478
   24CHL1    C7 1713   5.056   0.230   9.520  0.0333  0.3173 -0.6329
   24CHL1   H7A 1714   4.992   0.144   9.492 -1.4256  1.8672 -2.2603
   24CHL1   H7B 1715   4.983   0.314   9.524 -0.4597 -0.1326  0.3875
   24CHL1    C8 1716   5.166   0.283   9.419 -0.6765 -0.5087  0.1463
   24CHL1    H8 1717   5.233   0.198   9.394 -0.3825 -0.5324  0.9638
   24CHL1   C14 1718   5.104   0.342   9.292  0.1406  0.2983  0.2325
   24CHL1   H14 1719   5.040   0.428   9.321 -1.9609 -1.5260  1.2311
   24CHL1   C15 1720   5.008   0.248   9.220  0.1205  0.2692 -0.1312
   24CHL1  H15A 1721   5.053   0.146   9.217  3.0110  1.4036  0.6228
   24CHL1  H15B 1722   4.906   0.246   9.262  0.3287  0.5468  0.4010
   24CHL1   C16 1723   5.009   0.303   9.085 -0.5247  0.8060  0.2295
   24CHL1  H16A 1724   5.030   0.227   9.007  0.4717  0.7619  0.5288
   24CHL1  H16B 1725   4.911   0.348   9.057 -1.7466 -1.4090  0.7213
   24CHL1   C17 1726   5.105   0.421   9.075 -0.3047 -0.6787  0.4222
   24CHL1   H17 1727   5.053   0.514   9.108 -0.3967 -0.0298 -1.4726
   24CHL1   C13 1728   5.204   0.389   9.186 -0.2833  0.4338 -0.3503
   24CHL1   C18 1729   5.296   0.266   9.148 -0.5260  1.1904 -0.0544
   24CHL1  H18A 1730   5.356   0.301   9.062 -0.0455 -3.0476 -1.7123
   24CHL1  H18B 1731   5.379   0.248   9.220  1.0712  1.1564 -1.8288
   24CHL1  H18C 1732   5.251   0.166   9.129  0.0751  0.4906  1.9336
   24CHL1   C12 1733   5.290   0.506   9.249  0.2815  0.7376  0.2728
   24CHL1  H12A 1734   5.363   0.543   9.174  1.1487  2.5052  1.8813
   24CHL1  H12B 1735   5.224   0.593   9.272  0.1038  0.2562  1.6891
   24CHL1   C11 1736   5.353   0.464   9.380 -0.3603 -0.0315 -0.1714
   24CHL1  H11A 1737   5.439   0.396   9.361  1.2861  2.1303 -0.8354
   24CHL1  H11B 1738   5.394   0.563   9.407 -0.2309  0.1933 -1.1583
   24CHL1    C9 1739   5.248   0.401   9.481  0.5740  0.1545 -0.0810
   24CHL1    H9 1740   5.182   0.489   9.497  0.8768  0.0534  2.0609
   24CHL1   C10 1741   5.310   0.368   9.622 -0.2050 -0.0010 -0.5097
   24CHL1   C19 1742   5.429   0.275   9.600 -1.0008 -0.3122 -0.0827
   24CHL1  H19A 1743   5.471   0.228   9.690  0.5478 -0.7548 -1.0022
   24CHL1  H19B 1744   5.415   0.203   9.517  1.1429  0.0004 -0.7692
   24CHL1  H19C 1745   5.504   0.343   9.553 -1.4597 -0.6891 -1.4131
   24CHL1    C1 1746   5.352   0.504   9.692 -0.2394  0.7206  0.7748
   24CHL1   H1A 1747   5.433   0.551   9.634 -0.8518 -0.8077 -1.4603
   24CHL1   H1B 1748   5.270   0.578   9.678 -0.7842  0.3846  2.0051
   24CHL1    C2 1749   5.388   0.496   9.837  0.3539  0.4269 -0.0783
   24CHL1   H2A 1750   5.406   0.594   9.886 -0.4070  0.3753  0.3208
   24CHL1   H2B 1751   5.483   0.440   9.847  1.2388  1.7090 -1.0699
   24CHL1   C20 1752   5.157   0.453   8.929 -0.7708 -0.1349 -0.7341
   24CHL1   H20 1753   5.239   0.380   8.913  0.1019  0.4972  0.6898
   24CHL1   C21 1754   5.223   0.586   8.904 -0.2934 -0.0465 -0.5684
   24CHL1  H21A 1755   5.145   0.663   8.919  1.1196  1.8763 -2.5603
   24CHL1  H21B 1756   5.269   0.609   8.806 -1.2105  0.2719 -0.9330
   24CHL1  H21C 1757   5.300   0.602   8.982 -1.0608  1.6152 -0.1078
   24CHL1   C22 1758   5.057   0.437   8.817 -0.0459  0.5636 -0.0518
   24CHL1  H22A 1759   5.098   0.479   8.723  0.0186  1.6378  0.4416
   24CHL1  H22B 1760   5.025   0.335   8.788 -0.8323  1.2662 -1.7956
   24CHL1   C23 1761   4.935   0.530   8.827 -0.4880  0.0865  0.5467
   24CHL1  H23A 1762   4.885   0.495   8.920  0.8033  0.3227  1.3636
   24CHL1  H23B 1763   4.952   0.639   8.833  0.4993 -0.1279  3.4707
   24CHL1   C24 1764   4.839   0.519   8.701 -0.2056  0.3195 -0.6629
   24CHL1  H24A 1765   4.890   0.563   8.613 -0.7033  1.5914 -0.3362
   24CHL1  H24B 1766   4.822   0.412   8.680 -2.3800  0.5407 -0.2258
   24CHL1   C25 1767   4.701   0.589   8.715  0.2308 -0.7462  0.3510
   24CHL1   H25 1768   4.703   0.688   8.766 -2.4234 -0.7787  0.6365
   24CHL1   C26 1769   4.641   0.622   8.575 -0.7344  0.1705  0.8063
   24CHL1  H26A 1770   4.533   0.648   8.580 -1.1126 -0.9719 -0.6778
   24CHL1  H26B 1771   4.690   0.698   8.512 -1.4133  0.4492  0.6082
   24CHL1  H26C 1772   4.652   0.530   8.514  1.2373  1.6886 -1.2371
   24CHL1   C27 1773   4.593   0.502   8.784 -0.5406  0.0017  0.9441
   24CHL1  H27A 1774   4.611   0.477   8.891 -0.3580 -2.9493  0.3114
   24CHL1  H27B 1775   4.504   0.568   8.793  0.7649  2.3742 -1.9284
   24CHL1  H27C 1776   4.558   0.413   8.726 -2.1093  1.0642  0.1919
   25CHL1    C3 1777   0.713   2.525  10.412  0.3711 -0.1889 -1.2379
   25CHL1    H3 1778   0.700   2.633  10.392 -0.7621 -0.8026 -4.4886
   25CHL1    O3 1779   0.732   2.506  10.553  0.2906 -1.1106  0.0776
   25CHL1   H3' 1780   0.811   2.557  10.572 -0.6556  0.7900 -0.8388
   25CHL1    C4 1781   0.593   2.433  10.370  0.6268  0.5412  0.7565
   25CHL1   H4A 1782   0.607   2.327  10.400 -3.3326 -0.6670 -0.9686
   25CHL1   H4B 1783   0.500   2.471  10.418 -0.2781 -0.7822  0.1053
   25CHL1    C5 1784   0.577   2.448  10.220  0.0447 -0.6183  0.2448
   25CHL1    C6 1785   0.463   2.500  10.161  0.5063 -1.0913  0.3008
   25CHL1    H6 1786   0.373   2.516  10.221  1.8313 -0.7665  2.2744
   25CHL1    C7 1787   0.436   2.513  10.013 -1.1933 -0.2851  0.1575
   25CHL1   H7A 1788   0.332   2.486   9.984 -1.5889  1.0975  0.2136
   25CHL1   H7B 1789   0.434   2.620   9.985 -0.5213 -0.7021 -1.6492
   25CHL1    C8 1790   0.553   2.448   9.921 -0.4097  0.0238  0.2610
   25CHL1    H8 1791   0.547   2.337   9.917  0.9796 -0.2320  3.1366
   25CHL1   C14 1792   0.545   2.505   9.778  0.0625  0.3504 -0.2098
   25CHL1   H14 1793   0.567   2.608   9.811 -1.1866  0.5995 -0.1213
   25CHL1   C15 1794   0.411   2.495   9.699 -0.5122  0.8705 -0.5287
   25CHL1  H15A 1795   0.382   2.388   9.697  1.8689  0.1528 -0.5066
   25CHL1  H15B 1796   0.340   2.560   9.754  1.5461  2.5247  0.3337
   25CHL1   C16 1797   0.445   2.543   9.561 -0.7811 -0.3784  0.0612
   25CHL1  H16A 1798   0.397   2.478   9.485 -0.3866 -1.7452  0.9480
   25CHL1  H16B 1799   0.420   2.651   9.552 -0.2656 -0.0730  1.8384
   25CHL1   C17 1800   0.611   2.542   9.552  0.5045 -0.6785  0.3835
   25CHL1   H17 1801   0.648   2.645   9.570 -1.7616 -0.0734  2.1107
   25CHL1   C13 1802   0.657   2.457   9.676  0.3586 -0.0878 -0.5498
   25CHL1   C18 1803   0.647   2.304   9.651  0.6218  0.4830 -0.5754
   25CHL1  H18A 1804   0.569   2.280   9.575 -1.1100  2.5998  0.4284
   25CHL1  H18B 1805   0.741   2.265   9.607 -0.3301  0.3143 -2.5812
   25CHL1  H18C 1806   0.624   2.248   9.744 -0.1977  0.7497 -0.6104
   25CHL1   C12 1807   0.787   2.502   9.751 -0.6669 -0.2467 -0.0332
   25CHL1  H12A 1808   0.866   2.471   9.680 -0.6239 -0.9376  0.3013
   25CHL1  H12B 1809   0.791   2.612   9.765 -0.9898 -0.5442  3.2225
   25CHL1   C11 1810   0.807   2.435   9.890  0.4951 -0.3940 -0.4529
   25CHL1  H11A 1811   0.810   2.327   9.861 -0.1973  0.0525 -2.2769
   25CHL1  H11B 1812   0.904   2.465   9.935 -0.4845  0.2976  1.3053
   25CHL1    C9 1813   0.686   2.474   9.988  0.5527 -0.3928  0.6106
   25CHL1    H9 1814   0.690   2.585   9.992  1.3407 -0.4408  2.5517
   25CHL1   C10 1815   0.706   2.416  10.139  0.7979 -0.7105 -0.3304
   25CHL1   C19 1816   0.728   2.263  10.140  0.1324  0.4499 -0.0444
   25CHL1  H19A 1817   0.651   2.208  10.081  0.6507 -0.6148  0.2410
   25CHL1  H19B 1818   0.826   2.232  10.098 -0.9274 -2.1344 -0.8790
   25CHL1  H19C 1819   0.717   2.223  10.243 -0.1259 -2.4929 -1.0955
   25CHL1    C1 1820   0.836   2.480  10.201  0.1379 -0.1866  0.6857
   25CHL1   H1A 1821   0.931   2.433  10.165  1.3328  1.5103  1.4782
   25CHL1   H1B 1822   0.840   2.581  10.155  2.4412 -1.0168 -1.1849
   25CHL1    C2 1823   0.840   2.483  10.350  0.7497 -0.7571 -0.8652
   25CHL1   H2A 1824   0.927   2.545  10.381  2.0285 -1.8984 -2.0920
   25CHL1   H2B 1825   0.856   2.380  10.387 -0.4058 -1.0456 -1.1352
   25CHL1   C20 1826   0.661   2.495   9.418  0.5171 -0.5216  0.4191
   25CHL1   H20 1827   0.627   2.390   9.403 -0.1169 -0.1903 -0.5686
   25CHL1   C21 1828   0.818   2.496   9.406  0.9327  0.1644  0.1744
   25CHL1  H21A 1829   0.870   2.587   9.441  0.2139  0.7761 -0.3157
   25CHL1  H21B 1830   0.843   2.477   9.299 -0.2226 -0.1304 -0.0524
   25CHL1  H21C 1831   0.860   2.412   9.465 -0.1580  0.0678  0.8373
   25CHL1   C22 1832   0.607   2.587   9.301  1.0315 -0.5580 -0.0022
   25CHL1  H22A 1833   0.499   2.609   9.317  0.7918  0.3762 -2.5168
   25CHL1  H22B 1834   0.647   2.690   9.305 -0.6013  0.2776 -2.6306
   25CHL1   C23 1835   0.613   2.525   9.161  0.0401  0.2381  0.4998
   25CHL1  H23A 1836   0.714   2.538   9.116  0.3968 -0.9350  0.9244
   25CHL1  H23B 1837   0.589   2.417   9.166  0.3996  0.1621  0.6069
   25CHL1   C24 1838   0.523   2.599   9.068 -0.3295 -0.0099  1.2275
   25CHL1  H24A 1839   0.417   2.574   9.090 -0.8623 -1.0660 -2.0625
   25CHL1  H24B 1840   0.540   2.709   9.070  1.1935 -0.1352 -1.4588
   25CHL1   C25 1841   0.535   2.560   8.918 -0.1889 -0.9533 -0.4555
   25CHL1   H25 1842   0.635   2.595   8.884 -0.5393 -0.3281 -0.8523
   25CHL1   C26 1843   0.527   2.412   8.893 -0.3295  0.6794 -0.3940
   25CHL1  H26A 1844   0.617   2.356   8.924 -1.8030 -1.3431  0.4508
   25CHL1  H26B 1845   0.440   2.371   8.949 -2.1484  2.8041 -1.5137
   25CHL1  H26C 1846   0.514   2.398   8.783 -3.3275  0.8019 -0.1385
   25CHL1   C27 1847   0.428   2.624   8.834 -0.1444 -0.2049 -0.9200
   25CHL1  H27A 1848   0.445   2.598   8.728  1.1589 -2.5977 -0.2155
   25CHL1  H27B 1849   0.325   2.597   8.868 -0.8200  3.1449  0.0515
   25CHL1  H27C 1850   0.440   2.733   8.850  4.5520 -0.8391  1.4050
   26CHL1    C3 1851   1.158   5.188   9.872  0.0796  1.1923  0.0605
   26CHL1    H3 1852   1.168   5.292   9.835  3.7178 -0.2861 -3.8928
   26CHL1    O3 1853   1.206   5.172  10.004  0.4747 -0.4123 -0.6386
   26CHL1   H3' 1854   1.221   5.078  10.015  0.1403 -0.3294  0.6951
   26CHL1    C4 1855   1.014   5.132   9.856 -0.6513 -0.8637 -0.3487
   26CHL1   H4A 1856   1.013   5.030   9.900 -1.1847 -0.9857 -0.6427
   26CHL1   H4B 1857   0.956   5.207   9.914 -0.1700  1.9413 -3.2016
   26CHL1    C5 1858   0.962   5.122   9.720 -0.4800  0.2390 -0.2987
   26CHL1    C6 1859   0.850   5.184   9.686  1.1101  0.6180 -0.0090
   26CHL1    H6 1860   0.788   5.227   9.766  1.8033  0.4262  0.6385
   26CHL1    C7 1861   0.784   5.171   9.551  0.2448 -0.1799  0.1744
   26CHL1   H7A 1862   0.673   5.169   9.557  0.2112 -0.8815 -0.5822
   26CHL1   H7B 1863   0.799   5.266   9.497  1.5026  1.4578  3.1359
   26CHL1    C8 1864   0.836   5.053   9.466 -0.1418 -0.2027  0.5535
   26CHL1    H8 1865   0.787   4.958   9.498  1.1222 -1.7581 -1.8652
   26CHL1   C14 1866   0.789   5.064   9.315  0.3871  0.3827 -0.6244
   26CHL1   H14 1867   0.835   5.160   9.282  0.4603  0.8482  0.7735
   26CHL1   C15 1868   0.638   5.074   9.297 -0.0730  0.0881 -0.5248
   26CHL1  H15A 1869   0.588   5.003   9.366 -0.5258  1.8329  1.0212
   26CHL1  H15B 1870   0.603   5.179   9.313 -2.0258 -0.1420 -2.6450
   26CHL1   C16 1871   0.616   5.037   9.147 -0.5586 -0.9285 -0.5279
   26CHL1  H16A 1872   0.546   4.954   9.124  0.2449 -1.3991 -1.3313
   26CHL1  H16B 1873   0.577   5.125   9.092  4.2530  1.4503 -0.6314
   26CHL1   C17 1874   0.761   4.999   9.098  0.0552 -0.6384  0.1571
   26CHL1   H17 1875   0.809   5.095   9.071  1.4737 -1.5981 -0.9767
   26CHL1   C13 1876   0.837   4.953   9.222 -0.3220  0.1297 -0.0490
   26CHL1   C18 1877   0.767   4.820   9.260 -0.1540  0.6110  0.2448
   26CHL1  H18A 1878   0.657   4.821   9.270 -0.1618  1.8430  0.1161
   26CHL1  H18B 1879   0.793   4.740   9.188 -0.7565  0.9754 -0.3859
   26CHL1  H18C 1880   0.796   4.779   9.360  1.6129 -1.8476 -1.1604
   26CHL1   C12 1881   0.989   4.942   9.237 -0.7871 -0.4315 -0.4911
   26CHL1  H12A 1882   1.031   4.849   9.193 -0.3944 -0.9954  1.0110
   26CHL1  H12B 1883   1.045   5.020   9.182 -1.2218  0.6458  0.5550
   26CHL1   C11 1884   1.039   4.936   9.390 -0.3235  0.4654  0.9622
   26CHL1  H11A 1885   1.013   4.835   9.429  1.3948 -0.5437 -0.3164
   26CHL1  H11B 1886   1.150   4.938   9.389 -0.2998 -0.5220  0.4415
   26CHL1    C9 1887   0.990   5.047   9.480 -0.6421 -1.0687  0.7260
   26CHL1    H9 1888   1.030   5.144   9.443 -1.0005 -0.5971  1.5426
   26CHL1   C10 1889   1.048   5.038   9.620  0.2049  0.8095 -0.1386
   26CHL1   C19 1890   1.052   4.891   9.664 -0.7816 -0.2617 -0.4019
   26CHL1  H19A 1891   1.067   4.872   9.773 -0.8397 -0.6031 -0.4535
   26CHL1  H19B 1892   0.951   4.848   9.649  0.0378 -2.6737  0.4872
   26CHL1  H19C 1893   1.130   4.831   9.611 -0.0259  0.1847  0.1764
   26CHL1    C1 1894   1.190   5.103   9.630  0.1608  0.2539  0.0038
   26CHL1   H1A 1895   1.264   5.055   9.562 -1.0727  2.1102 -2.8497
   26CHL1   H1B 1896   1.182   5.208   9.597 -0.9544 -0.2720 -1.4923
   26CHL1    C2 1897   1.247   5.106   9.776 -0.3797  0.2215  0.4362
   26CHL1   H2A 1898   1.350   5.146   9.765 -0.1340 -1.0469 -3.1770
   26CHL1   H2B 1899   1.254   5.001   9.811  1.0833 -0.2788 -1.2160
   26CHL1   C20 1900   0.760   4.907   8.978 -0.4158 -0.4583 -0.2412
   26CHL1   H20 1901   0.726   4.806   9.008 -1.4716  0.4108  1.6879
   26CHL1   C21 1902   0.906   4.886   8.931 -0.3495 -0.0433  1.1826
   26CHL1  H21A 1903   0.970   4.831   9.002 -0.8563  0.0060  1.6822
   26CHL1  H21B 1904   0.945   4.982   8.890  0.5891 -0.0788  1.9817
   26CHL1  H21C 1905   0.901   4.817   8.844 -0.4521  0.5001  0.7472
   26CHL1   C22 1906   0.666   4.961   8.865  0.1775  0.3446 -0.4482
   26CHL1  H22A 1907   0.562   4.974   8.902 -0.5484 -0.4127 -2.1576
   26CHL1  H22B 1908   0.711   5.055   8.828  2.6228 -1.1179 -1.4705
   26CHL1   C23 1909   0.654   4.853   8.749 -0.3431 -0.2968 -0.1281
   26CHL1  H23A 1910   0.754   4.854   8.701  0.0995  1.4787  0.7760
   26CHL1  H23B 1911   0.622   4.754   8.789 -1.0286  0.5499  1.5160
   26CHL1   C24 1912   0.553   4.885   8.631 -0.0018 -0.1821  0.2292
   26CHL1  H24A 1913   0.448   4.881   8.665 -0.2140  1.2863 -0.1612
   26CHL1  H24B 1914   0.556   4.994   8.607 -0.2316 -0.2340 -0.0403
   26CHL1   C25 1915   0.585   4.796   8.509 -0.3532  1.2596  0.0076
   26CHL1   H25 1916   0.696   4.793   8.506 -0.3539  1.1662  0.0581
   26CHL1   C26 1917   0.541   4.644   8.524  0.2305  0.6126 -0.6342
   26CHL1  H26A 1918   0.573   4.578   8.441  1.1280  0.1678  0.0381
   26CHL1  H26B 1919   0.584   4.610   8.621 -0.0111 -1.0270 -1.0727
   26CHL1  H26C 1920   0.430   4.641   8.524  0.2367 -1.3547 -1.9802
   26CHL1   C27 1921   0.531   4.862   8.384  0.6228 -1.0580  0.5605
   26CHL1  H27A 1922   0.560   4.801   8.296 -0.1240  1.0340 -1.2317
   26CHL1  H27B 1923   0.423   4.887   8.389  0.6445 -0.4343 -1.3041
   26CHL1  H27C 1924   0.587   4.958   8.380 -0.3376 -0.5333 -1.4369
   27CHL1    C3 1925   1.392   1.477  10.227 -0.2071  0.0542 -0.3317
   27CHL1    H3 1926   1.417   1.378  10.184  0.4696 -0.3707  0.9662
   27CHL1    O3 1927   1.372   1.469  10.367 -0.0919 -0.3521 -0.2765
   27CHL1   H3' 1928   1.382   1.559  10.400  2.4952  0.1469 -2.1392
   27CHL1    C4 1929   1.510   1.570  10.188 -0.1442  0.0430 -0.4365
   27CHL1   H4A 1930   1.484   1.667  10.233 -1.0261 -0.8002  0.9412
   27CHL1   H4B 1931   1.607   1.543  10.237  0.0594  0.7474 -0.4394
   27CHL1    C5 1932   1.522   1.591  10.035  0.1007 -0.2418  0.8884
   27CHL1    C6 1933   1.634   1.557   9.975 -0.4402 -0.1297 -0.3888
   27CHL1    H6 1934   1.718   1.533  10.043 -0.4858  0.7344 -0.0117
   27CHL1    C7 1935   1.660   1.566   9.828  0.0799 -0.0365 -0.8040
   27CHL1   H7A 1936   1.754   1.624   9.814  0.3645 -0.6506 -1.5224
   27CHL1   H7B 1937   1.660   1.469   9.773 -1.8511 -0.9297  0.6632
   27CHL1    C8 1938   1.551   1.647   9.755  0.2469 -0.2663  0.1375
   27CHL1    H8 1939   1.557   1.752   9.790  0.3994 -0.6021  1.1276
   27CHL1   C14 1940   1.565   1.628   9.605 -0.5695  0.5541 -0.1225
   27CHL1   H14 1941   1.531   1.525   9.581 -0.2791 -0.2220  2.4251
   27CHL1   C15 1942   1.704   1.633   9.541  0.2522  0.0128 -0.9959
   27CHL1  H15A 1943   1.769   1.717   9.571 -1.3296 -0.1179  3.5061
   27CHL1  H15B 1944   1.774   1.556   9.581 -1.0686  0.0063  1.5174
   27CHL1   C16 1945   1.676   1.622   9.391 -0.1365 -0.6986  0.2729
   27CHL1  H16A 1946   1.732   1.701   9.337  2.8218 -0.4114  3.4665
   27CHL1  H16B 1947   1.699   1.522   9.347 -0.6052 -0.8534  0.3748
   27CHL1   C17 1948   1.520   1.649   9.369 -0.5767 -0.1900  0.1351
   27CHL1   H17 1949   1.478   1.548   9.353  1.7287 -1.8723  3.4106
   27CHL1   C13 1950   1.471   1.698   9.510 -0.0710 -0.0181  0.5429
   27CHL1   C18 1951   1.505   1.852   9.525  0.0657  0.1972 -0.0896
   27CHL1  H18A 1952   1.505   1.882   9.632 -0.2472  0.7473 -0.2361
   27CHL1  H18B 1953   1.602   1.879   9.478  1.3372 -2.9581  0.5252
   27CHL1  H18C 1954   1.425   1.911   9.474  0.3946 -1.6861 -3.0757
   27CHL1   C12 1955   1.323   1.665   9.559 -0.1382  0.1214 -0.3959
   27CHL1  H12A 1956   1.253   1.729   9.502 -0.6704 -0.7364 -0.7156
   27CHL1  H12B 1957   1.304   1.556   9.545  0.3132  0.1132 -0.9610
   27CHL1   C11 1958   1.301   1.688   9.707 -0.2491 -0.3878 -0.0235
   27CHL1  H11A 1959   1.295   1.796   9.729 -1.1699 -0.2930 -0.6506
   27CHL1  H11B 1960   1.201   1.647   9.735 -0.2934  0.9701  1.9483
   27CHL1    C9 1961   1.404   1.613   9.799 -0.1887  0.3935 -0.1429
   27CHL1    H9 1962   1.394   1.504   9.779 -0.4535  0.0263  1.7629
   27CHL1   C10 1963   1.391   1.624   9.952  0.1072 -0.2347  0.4829
   27CHL1   C19 1964   1.375   1.775   9.973 -0.4661  0.7185  0.4532
   27CHL1  H19A 1965   1.360   1.791  10.082 -2.5426  0.3326  0.2738
   27CHL1  H19B 1966   1.457   1.842   9.940  2.3602 -1.7816  2.0006
   27CHL1  H19C 1967   1.278   1.807   9.927 -1.3107 -1.5895  0.5073
   27CHL1    C1 1968   1.273   1.540  10.007  0.5111  0.2545 -0.4210
   27CHL1   H1A 1969   1.185   1.598   9.973  0.3104  0.6606  0.7463
   27CHL1   H1B 1970   1.281   1.443   9.953 -0.0897  0.7229 -1.3909
   27CHL1    C2 1971   1.268   1.528  10.159 -0.6125  0.1234 -0.1521
   27CHL1   H2A 1972   1.187   1.455  10.177 -0.7221  0.6281  1.6386
   27CHL1   H2B 1973   1.236   1.624  10.205  0.5756  0.4404  0.0438
   27CHL1   C20 1974   1.489   1.733   9.242 -0.4591 -0.4175  0.0004
   27CHL1   H20 1975   1.548   1.827   9.252  1.4867 -1.1432 -3.3611
   27CHL1   C21 1976   1.343   1.779   9.245 -0.6061  0.3655 -0.3171
   27CHL1  H21A 1977   1.320   1.848   9.161 -0.5265  0.0642 -0.5895
   27CHL1  H21B 1978   1.310   1.831   9.338 -2.9928 -2.7219  0.7174
   27CHL1  H21C 1979   1.282   1.688   9.229  0.0265 -0.3634  1.1801
   27CHL1   C22 1980   1.522   1.670   9.112  0.3665 -0.7402  0.2945
   27CHL1  H22A 1981   1.621   1.622   9.123  1.8099  1.4592 -1.9698
   27CHL1  H22B 1982   1.445   1.594   9.086 -1.8174  0.2957  3.1720
   27CHL1   C23 1983   1.524   1.775   8.992  0.5047  0.2241 -0.5319
   27CHL1  H23A 1984   1.429   1.832   8.983  0.7052  0.4527 -1.3612
   27CHL1  H23B 1985   1.611   1.843   8.981  1.3445 -0.7672 -0.2230
   27CHL1   C24 1986   1.515   1.686   8.869 -0.1355 -0.0013  0.0718
   27CHL1  H24A 1987   1.611   1.635   8.848 -0.4063 -1.7727  2.6820
   27CHL1  H24B 1988   1.441   1.605   8.881  1.4235 -1.3664  0.9437
   27CHL1   C25 1989   1.493   1.771   8.740 -0.1467 -0.1335 -0.3363
   27CHL1   H25 1990   1.535   1.872   8.762 -0.7421 -0.0531  0.4918
   27CHL1   C26 1991   1.564   1.717   8.614  0.0352 -0.0470 -0.4991
   27CHL1  H26A 1992   1.508   1.630   8.573  0.0905  0.7734 -2.3929
   27CHL1  H26B 1993   1.579   1.797   8.539 -1.1136  1.2894  0.6323
   27CHL1  H26C 1994   1.665   1.686   8.649  0.3289  0.7656 -0.6161
   27CHL1   C27 1995   1.346   1.794   8.724  0.0053 -0.0087  0.6140
   27CHL1  H27A 1996   1.292   1.832   8.813  1.6303  1.5504  0.9919
   27CHL1  H27B 1997   1.336   1.878   8.653 -1.5013 -0.8513 -0.2210
   27CHL1  H27C 1998   1.292   1.708   8.678 -0.2929  1.0040 -0.9895
   28CHL1    C3 1999   0.512   0.035   9.924  0.3572 -0.5813  0.4215
   28CHL1    H3 2000   0.621   0.042   9.904 -0.0920  2.0449 -1.6642
   28CHL1    O3 2001   0.499   0.023  10.066 -0.3560  0.2945  0.0345
   28CHL1   H3' 2002   0.418  -0.028  10.073 -0.3718  0.2215 -0.6537
   28CHL1    C4 2003   0.456   0.165   9.876 -0.1700 -1.3237 -0.1882
   28CHL1   H4A 2004   0.351   0.177   9.910 -0.0489  2.4940 -0.6945
   28CHL1   H4B 2005   0.506   0.254   9.922  1.4103 -0.5679 -3.0565
   28CHL1    C5 2006   0.458   0.182   9.728 -0.1065 -0.0619 -0.0109
   28CHL1    C6 2007   0.518   0.286   9.669  0.8590 -0.0053  0.5285
   28CHL1    H6 2008   0.556   0.364   9.736  2.8321 -1.0761  0.7185
   28CHL1    C7 2009   0.513   0.313   9.518 -0.2360 -0.3711 -0.4868
   28CHL1   H7A 2010   0.505   0.421   9.496  1.0740 -0.3318 -0.7981
   28CHL1   H7B 2011   0.607   0.266   9.482 -0.6825 -2.1031  0.4653
   28CHL1    C8 2012   0.394   0.235   9.451 -0.8982  0.2564 -0.6685
   28CHL1    H8 2013   0.307   0.293   9.487 -0.4099  1.6442 -1.6465
   28CHL1   C14 2014   0.409   0.242   9.299  0.4672  0.0681 -0.9915
   28CHL1   H14 2015   0.510   0.200   9.280  1.1163  0.2382  1.5969
   28CHL1   C15 2016   0.406   0.388   9.237  0.1538  0.0432  0.4384
   28CHL1  H15A 2017   0.334   0.456   9.287 -0.9573  1.2322 -2.6037
   28CHL1  H15B 2018   0.509   0.430   9.238  0.0522  0.5156 -2.2995
   28CHL1   C16 2019   0.362   0.368   9.092  0.6842 -0.3933  0.2805
   28CHL1  H16A 2020   0.276   0.433   9.070  1.2889  0.0011 -0.9661
   28CHL1  H16B 2021   0.447   0.387   9.023 -0.4351 -1.4799 -1.4861
   28CHL1   C17 2022   0.331   0.214   9.080 -0.5069 -0.3984 -0.1389
   28CHL1   H17 2023   0.423   0.159   9.052 -1.4864 -0.7735 -2.9569
   28CHL1   C13 2024   0.303   0.168   9.224  0.3734  0.2506  0.2859
   28CHL1   C18 2025   0.165   0.224   9.270  0.0509  0.0419  0.0215
   28CHL1  H18A 2026   0.144   0.219   9.379 -2.0951  0.0391 -0.3623
   28CHL1  H18B 2027   0.151   0.325   9.227 -2.3218  0.6371  1.9623
   28CHL1  H18C 2028   0.086   0.157   9.230 -0.2487  0.7294 -0.5403
   28CHL1   C12 2029   0.316   0.022   9.263 -0.6464 -0.1746  0.0557
   28CHL1  H12A 2030   0.230  -0.030   9.217 -0.1526 -0.5041 -0.5112
   28CHL1  H12B 2031   0.413  -0.018   9.227  0.8287  0.5944  2.9070
   28CHL1   C11 2032   0.301  -0.005   9.416  0.7287  0.1274  0.7159
   28CHL1  H11A 2033   0.200   0.023   9.451 -0.1360 -0.8866 -0.8754
   28CHL1  H11B 2034   0.332  -0.111   9.426  2.7850  0.6092 -0.0440
   28CHL1    C9 2035   0.398   0.090   9.495  0.6963 -0.1589 -0.3950
   28CHL1    H9 2036   0.497   0.048   9.467  0.5021  0.9692 -3.0630
   28CHL1   C10 2037   0.386   0.073   9.653  0.6793  0.0006  0.3459
   28CHL1   C19 2038   0.230   0.073   9.692 -0.2249 -0.1200 -0.1189
   28CHL1  H19A 2039   0.190  -0.020   9.647 -2.3745  2.2826 -3.6465
   28CHL1  H19B 2040   0.223   0.071   9.803 -1.3756  0.4769 -0.1725
   28CHL1  H19C 2041   0.176   0.162   9.655 -0.0463  0.3820  0.7861
   28CHL1    C1 2042   0.452  -0.064   9.696 -0.6229 -0.2946 -0.0749
   28CHL1   H1A 2043   0.403  -0.152   9.648 -1.2002 -1.0783  1.8850
   28CHL1   H1B 2044   0.560  -0.066   9.668 -0.0520 -0.9558  2.0416
   28CHL1    C2 2045   0.455  -0.085   9.847  0.8487 -0.1552 -0.4684
   28CHL1   H2A 2046   0.511  -0.178   9.871  4.0833  1.9495  0.6824
   28CHL1   H2B 2047   0.350  -0.101   9.879  0.2225 -0.0219 -2.3319
   28CHL1   C20 2048   0.225   0.182   8.974  0.8309  0.4293 -0.4106
   28CHL1   H20 2049   0.127   0.207   9.020  1.1493  2.2467 -0.6283
   28CHL1   C21 2050   0.226   0.033   8.944 -0.2364 -0.1068 -0.2276
   28CHL1  H21A 2051   0.177  -0.021   9.028 -0.6942 -0.3283 -0.6284
   28CHL1  H21B 2052   0.324  -0.018   8.937 -1.0023 -1.7664  0.4984
   28CHL1  H21C 2053   0.168   0.016   8.850 -2.3737 -0.0877  1.0133
   28CHL1   C22 2054   0.229   0.262   8.842 -0.5647  0.2105 -0.1827
   28CHL1  H22A 2055   0.228   0.373   8.848  0.9723  0.2867 -0.8929
   28CHL1  H22B 2056   0.331   0.236   8.808 -0.3135  1.0119 -0.0587
   28CHL1   C23 2057   0.123   0.242   8.727 -0.7616  0.3713  0.1189
   28CHL1  H23A 2058   0.119   0.140   8.684  0.2554  0.8298 -1.1196
   28CHL1  H23B 2059   0.020   0.265   8.760 -0.8682 -0.4318  0.3550
   28CHL1   C24 2060   0.160   0.328   8.601 -0.1763 -0.0915 -0.0838
   28CHL1  H24A 2061   0.127   0.433   8.614 -0.5139 -0.2132  0.0666
   28CHL1  H24B 2062   0.270   0.341   8.594 -0.2729  2.6555  1.7703
   28CHL1   C25 2063   0.118   0.272   8.465  0.2392 -0.3209  0.6434
   28CHL1   H25 2064   0.131   0.163   8.479 -2.3334 -0.6494  0.9565
   28CHL1   C26 2065  -0.036   0.287   8.444  0.1873  0.1557 -0.5691
   28CHL1  H26A 2066  -0.078   0.375   8.391 -2.5907 -1.7783 -1.7721
   28CHL1  H26B 2067  -0.075   0.203   8.383 -1.0181  1.7118 -2.0456
   28CHL1  H26C 2068  -0.085   0.279   8.543  1.4609 -0.7740  0.0154
   28CHL1   C27 2069   0.205   0.324   8.349  0.4592  0.4453  0.5064
   28CHL1  H27A 2070   0.186   0.431   8.325 -0.1700  0.0944 -0.6403
   28CHL1  H27B 2071   0.308   0.319   8.390  1.3573 -1.9863 -1.8084
   28CHL1  H27C 2072   0.200   0.247   8.270  1.5883 -0.3196  1.1527
   29CHL1    C3 2073   1.382   4.986   6.362 -0.0842 -0.0975  0.1507
   29CHL1    H3 2074   1.487   5.011   6.385  0.5622 -1.6597 -0.9202
   29CHL1    O3 2075   1.366   4.979   6.225 -0.5481 -0.2052  0.1421
   29CHL1   H3' 2076   1.271   4.993   6.218 -0.4649  0.9752  1.0332
   29CHL1    C4 2077   1.337   4.848   6.414 -0.8286 -0.2498 -0.0065
   29CHL1   H4A 2078   1.247   4.806   6.365  0.0734 -2.4154  0.0660
   29CHL1   H4B 2079   1.415   4.777   6.378  1.4133  1.9927  0.0938
   29CHL1    C5 2080   1.321   4.841   6.566  0.0973  0.1253  0.7646
   29CHL1    C6 2081   1.393   4.750   6.635 -0.3980  0.3383  0.7697
   29CHL1    H6 2082   1.458   4.684   6.576  0.1655 -0.0518  1.8025
   29CHL1    C7 2083   1.382   4.730   6.780 -0.8466 -0.1887 -0.5393
   29CHL1   H7A 2084   1.376   4.624   6.810  2.1309 -0.6095 -1.1479
   29CHL1   H7B 2085   1.474   4.769   6.829 -0.5525 -1.2358 -0.2447
   29CHL1    C8 2086   1.258   4.810   6.839 -0.0664  0.6915  0.9222
   29CHL1    H8 2087   1.168   4.748   6.818  1.0471 -0.0268 -2.2515
   29CHL1   C14 2088   1.273   4.817   6.993  0.0207 -0.1103  0.5422
   29CHL1   H14 2089   1.363   4.881   7.000  0.7210 -0.9063 -0.7571
   29CHL1   C15 2090   1.313   4.684   7.061 -0.1906  0.5804 -0.0990
   29CHL1  H15A 2091   1.248   4.605   7.019  0.4534  0.1814 -0.3622
   29CHL1  H15B 2092   1.421   4.671   7.038  0.5404  2.1040  2.1255
   29CHL1   C16 2093   1.278   4.704   7.207 -0.3005  0.3547 -0.4203
   29CHL1  H16A 2094   1.198   4.630   7.229  0.3068  0.1800  1.4050
   29CHL1  H16B 2095   1.365   4.682   7.272 -0.8046  0.0343  0.1503
   29CHL1   C17 2096   1.226   4.855   7.217  0.2039 -0.0465 -0.1970
   29CHL1   H17 2097   1.312   4.923   7.237  0.7172 -0.7185 -0.0603
   29CHL1   C13 2098   1.164   4.880   7.073  0.2842  0.2988 -0.8639
   29CHL1   C18 2099   1.029   4.801   7.065  0.6293  0.3755  0.3508
   29CHL1  H18A 2100   0.945   4.853   7.115  0.9288 -0.7691  2.1361
   29CHL1  H18B 2101   1.000   4.784   6.959  0.7107  0.3943  0.3255
   29CHL1  H18C 2102   1.033   4.699   7.110  1.7633 -0.4163 -1.3890
   29CHL1   C12 2103   1.146   5.026   7.023 -0.4192  0.7383  0.2499
   29CHL1  H12A 2104   1.051   5.068   7.061 -0.9313 -0.5712  0.4384
   29CHL1  H12B 2105   1.241   5.076   7.053 -0.5489  0.0858  1.8726
   29CHL1   C11 2106   1.145   5.035   6.868 -0.0243 -0.1163  0.3110
   29CHL1  H11A 2107   1.046   4.997   6.835 -0.7707  0.7462  1.4483
   29CHL1  H11B 2108   1.140   5.138   6.826 -2.8324 -0.7367 -1.1347
   29CHL1    C9 2109   1.247   4.949   6.788  0.0588 -0.3824 -0.5708
   29CHL1    H9 2110   1.342   5.003   6.805 -0.1431 -0.5258  1.1672
   29CHL1   C10 2111   1.233   4.944   6.635  0.6944 -0.0152  0.0533
   29CHL1   C19 2112   1.088   4.911   6.590  0.1656  0.2170  0.5386
   29CHL1  H19A 2113   1.072   4.906   6.480  3.2900 -3.2042  0.0350
   29CHL1  H19B 2114   1.044   4.825   6.645  0.7862  0.9402  2.2462
   29CHL1  H19C 2115   1.035   5.004   6.618  0.3357  0.5888 -0.3376
   29CHL1    C1 2116   1.285   5.078   6.574  0.5047  0.5873  1.3052
   29CHL1   H1A 2117   1.218   5.158   6.612 -0.1770  0.5728  0.1706
   29CHL1   H1B 2118   1.389   5.105   6.605  0.7682 -2.2952  3.3533
   29CHL1    C2 2119   1.285   5.096   6.422  0.0889 -0.3396  0.1467
   29CHL1   H2A 2120   1.325   5.196   6.398 -0.3196 -0.4184 -0.8868
   29CHL1   H2B 2121   1.182   5.081   6.383 -0.5359 -1.5402  2.0753
   29CHL1   C20 2122   1.130   4.876   7.332 -0.3332  0.4497  0.4577
   29CHL1   H20 2123   1.033   4.827   7.306 -0.7162  2.0476 -1.3426
   29CHL1   C21 2124   1.099   5.025   7.356 -0.0301  0.1162 -0.1089
   29CHL1  H21A 2125   1.007   5.037   7.418 -1.5827 -2.0876 -1.8395
   29CHL1  H21B 2126   1.082   5.081   7.261 -1.4580 -1.1016 -0.6147
   29CHL1  H21C 2127   1.184   5.078   7.404 -2.7357  2.6979  2.2881
   29CHL1   C22 2128   1.186   4.815   7.461 -0.0331  0.3420  0.5105
   29CHL1  H22A 2129   1.201   4.708   7.438 -0.7641  0.0643  1.2673
   29CHL1  H22B 2130   1.277   4.870   7.494 -0.0699  0.1728  0.9023
   29CHL1   C23 2131   1.086   4.809   7.575 -0.0458 -0.0962 -0.1255
   29CHL1  H23A 2132   1.105   4.906   7.626 -0.4019 -0.2324  0.2706
   29CHL1  H23B 2133   0.979   4.796   7.548  0.6815 -2.3176 -2.4094
   29CHL1   C24 2134   1.130   4.698   7.672 -0.0664 -0.3392 -0.1951
   29CHL1  H24A 2135   1.102   4.600   7.628 -3.9316 -0.7854  2.6968
   29CHL1  H24B 2136   1.239   4.713   7.687 -0.0200 -0.4065 -0.4558
   29CHL1   C25 2137   1.065   4.701   7.806 -0.4160  0.0610  0.1418
   29CHL1   H25 2138   0.960   4.733   7.785 -0.2772  3.0759  3.1826
   29CHL1   C26 2139   1.056   4.560   7.865  0.2476 -0.7088 -0.1658
   29CHL1  H26A 2140   1.160   4.529   7.886  0.3799  0.4222  0.9732
   29CHL1  H26B 2141   0.998   4.561   7.959  0.1501 -0.2513 -0.2243
   29CHL1  H26C 2142   1.003   4.483   7.805 -1.0438 -2.0809  2.5703
   29CHL1   C27 2143   1.120   4.809   7.904  0.3090  0.4295  0.3325
   29CHL1  H27A 2144   1.090   4.904   7.855  0.1348 -0.7965 -2.1357
   29CHL1  H27B 2145   1.082   4.808   8.008 -2.6020  1.2316 -0.6427
   29CHL1  H27C 2146   1.231   4.814   7.913  0.3576 -0.0361  0.0663
   30CHL1    C3 2147   5.623   4.289   7.132  0.0964 -0.4661  0.0300
   30CHL1    H3 2148   5.662   4.191   7.095 -0.7876 -0.7462 -0.1944
   30CHL1    O3 2149   5.560   4.367   7.035  0.1815  0.0213  0.4500
   30CHL1   H3' 2150   5.473   4.329   7.022  0.1609 -0.3574  1.5856
   30CHL1    C4 2151   5.513   4.273   7.236 -0.1775  0.3691 -0.8409
   30CHL1   H4A 2152   5.463   4.371   7.248 -0.3936  0.1902 -0.2899
   30CHL1   H4B 2153   5.438   4.198   7.202 -1.1135  1.1764 -0.5952
   30CHL1    C5 2154   5.569   4.218   7.366  1.0412  0.3116 -0.0120
   30CHL1    C6 2155   5.513   4.104   7.426 -0.1121  0.0167  0.1755
   30CHL1    H6 2156   5.433   4.052   7.372 -0.3058  1.4002 -0.9558
   30CHL1    C7 2157   5.566   4.052   7.554 -0.4201  0.1849  1.0511
   30CHL1   H7A 2158   5.478   4.036   7.619 -1.9867  1.1745 -0.7303
   30CHL1   H7B 2159   5.631   3.965   7.531 -0.8354  0.2334 -0.4555
   30CHL1    C8 2160   5.652   4.158   7.626 -0.4885  0.0519 -0.4484
   30CHL1    H8 2161   5.581   4.237   7.657 -1.5088  0.3994 -3.3396
   30CHL1   C14 2162   5.723   4.101   7.745 -0.1163 -0.0693 -0.2739
   30CHL1   H14 2163   5.797   4.029   7.704  1.2599 -0.0616  2.0139
   30CHL1   C15 2164   5.645   4.009   7.845 -0.1512 -0.8940 -0.1082
   30CHL1  H15A 2165   5.545   4.051   7.873  0.8742  1.5165  0.1947
   30CHL1  H15B 2166   5.631   3.907   7.804 -1.9548 -0.0040 -1.8795
   30CHL1   C16 2167   5.730   4.002   7.973  0.1339 -0.3924 -0.6955
   30CHL1  H16A 2168   5.683   4.052   8.061  3.9661 -0.1558  1.4129
   30CHL1  H16B 2169   5.760   3.904   8.014 -2.4601 -1.3118 -0.7708
   30CHL1   C17 2170   5.852   4.091   7.933 -0.9040 -0.1910 -0.1159
   30CHL1   H17 2171   5.919   4.021   7.879 -0.3739  1.3634 -1.5611
   30CHL1   C13 2172   5.815   4.192   7.823  0.7464 -0.1875 -0.0377
   30CHL1   C18 2173   5.736   4.309   7.892 -0.0599 -0.4998 -0.0056
   30CHL1  H18A 2174   5.673   4.262   7.971 -1.9526 -0.6684 -1.5410
   30CHL1  H18B 2175   5.804   4.386   7.935 -3.2191  1.9694  1.0060
   30CHL1  H18C 2176   5.675   4.366   7.818 -1.0831 -1.9590 -0.3273
   30CHL1   C12 2177   5.926   4.234   7.726  0.3985 -1.1309  0.5915
   30CHL1  H12A 2178   6.001   4.298   7.778 -0.5209 -0.5851  1.2705
   30CHL1  H12B 2179   5.976   4.146   7.680  0.6423 -0.2684 -0.8615
   30CHL1   C11 2180   5.872   4.308   7.602  0.3411 -0.5271  0.7077
   30CHL1  H11A 2181   5.843   4.409   7.638  3.3402  0.2009  1.2823
   30CHL1  H11B 2182   5.952   4.329   7.528 -1.1221  0.8996 -0.5612
   30CHL1    C9 2183   5.763   4.220   7.528  0.5997  0.1755 -0.5002
   30CHL1    H9 2184   5.813   4.131   7.484 -1.0373 -0.5095 -1.0721
   30CHL1   C10 2185   5.687   4.299   7.416  0.0826  0.2582 -0.5668
   30CHL1   C19 2186   5.648   4.438   7.464 -0.2875  0.1001 -0.3509
   30CHL1  H19A 2187   5.621   4.432   7.572  1.2519  1.4159  0.1378
   30CHL1  H19B 2188   5.727   4.516   7.462 -0.3514  0.2449 -3.8076
   30CHL1  H19C 2189   5.559   4.474   7.408 -1.1588 -3.8373 -1.8284
   30CHL1    C1 2190   5.788   4.304   7.302 -0.0377 -0.1575  0.2398
   30CHL1   H1A 2191   5.880   4.359   7.333  0.0466  0.9627 -1.8412
   30CHL1   H1B 2192   5.821   4.204   7.265 -1.2077  0.3160 -2.2878
   30CHL1    C2 2193   5.740   4.372   7.174 -0.4562 -0.1072 -0.4623
   30CHL1   H2A 2194   5.816   4.376   7.094  1.1155  1.5723  1.0378
   30CHL1   H2B 2195   5.720   4.478   7.197 -0.2772 -0.1546 -0.0700
   30CHL1   C20 2196   5.948   4.131   8.050  0.0338 -0.2617 -0.1405
   30CHL1   H20 2197   6.030   4.193   8.006  0.6572 -0.6066  0.5213
   30CHL1   C21 2198   6.016   3.993   8.088 -0.5159 -0.3478 -0.0197
   30CHL1  H21A 2199   6.098   4.003   8.162 -0.7729 -0.1555  0.2401
   30CHL1  H21B 2200   6.065   3.941   8.003  0.1040  0.3287 -0.0909
   30CHL1  H21C 2201   5.939   3.921   8.123 -0.2107 -0.7926 -0.2463
   30CHL1   C22 2202   5.883   4.198   8.180  0.0973 -0.2053 -0.0375
   30CHL1  H22A 2203   5.842   4.298   8.154  0.5778 -0.2443 -0.9857
   30CHL1  H22B 2204   5.807   4.129   8.222 -0.4822 -1.0218 -2.2516
   30CHL1   C23 2205   5.984   4.227   8.289  0.5303 -0.1418  0.1152
   30CHL1  H23A 2206   6.021   4.128   8.322  2.8006  0.7853  0.5578
   30CHL1  H23B 2207   6.064   4.290   8.242 -0.2825  0.9075  0.1042
   30CHL1   C24 2208   5.953   4.316   8.409 -0.1639 -0.0713 -0.1944
   30CHL1  H24A 2209   6.050   4.341   8.457  0.2501 -0.6521 -0.7261
   30CHL1  H24B 2210   5.885   4.400   8.383  0.4246 -0.2454 -2.4365
   30CHL1   C25 2211   5.874   4.242   8.521 -0.1926  0.0108  0.8034
   30CHL1   H25 2212   5.778   4.201   8.484 -1.5113  2.2504  1.6026
   30CHL1   C26 2213   5.956   4.122   8.572 -0.0431  0.5040  0.4897
   30CHL1  H26A 2214   5.902   4.068   8.653 -1.0920 -0.7753 -1.0144
   30CHL1  H26B 2215   5.961   4.040   8.497  1.0474  0.1629  0.9079
   30CHL1  H26C 2216   6.061   4.144   8.601 -0.0026  0.6213  0.2587
   30CHL1   C27 2217   5.834   4.329   8.641 -0.5682  0.1565  0.6039
   30CHL1  H27A 2218   5.926   4.350   8.701  1.1224  0.4662 -1.9056
   30CHL1  H27B 2219   5.790   4.423   8.600 -0.2976 -0.3278 -0.8292
   30CHL1  H27C 2220   5.758   4.274   8.700 -0.9151 -0.2119 -0.1702
   31CHL1    C3 2221   3.701   6.383   6.650  0.1515 -0.1962  0.0669
   31CHL1    H3 2222   3.791   6.438   6.683  0.4885 -0.0592 -1.0628
   31CHL1    O3 2223   3.657   6.402   6.517  0.0744  0.0457 -0.3905
   31CHL1   H3' 2224   3.708   6.333   6.474  0.3807  1.7636 -2.9755
   31CHL1    C4 2225   3.717   6.237   6.686 -0.0994 -0.2943  0.5094
   31CHL1   H4A 2226   3.622   6.188   6.655 -1.6454  1.0758  2.7410
   31CHL1   H4B 2227   3.791   6.193   6.617 -1.5355 -2.2624  0.1522
   31CHL1    C5 2228   3.745   6.211   6.831  0.5196  0.4999  0.8319
   31CHL1    C6 2229   3.855   6.132   6.858 -0.3247 -0.6419  0.5873
   31CHL1    H6 2230   3.928   6.103   6.782 -1.3944 -1.6444 -0.0876
   31CHL1    C7 2231   3.885   6.103   7.007 -0.5956 -0.0942  1.2515
   31CHL1   H7A 2232   3.934   6.004   7.017  0.3958  0.1384 -0.7557
   31CHL1   H7B 2233   3.946   6.185   7.051 -0.5606  2.3215 -2.7606
   31CHL1    C8 2234   3.766   6.114   7.105  0.2116 -0.2943  0.8837
   31CHL1    H8 2235   3.696   6.034   7.072  2.0412 -1.1835 -1.1124
   31CHL1   C14 2236   3.801   6.107   7.255  0.2507  0.2136 -0.0631
   31CHL1   H14 2237   3.859   6.200   7.276 -1.5746  1.9018 -1.9959
   31CHL1   C15 2238   3.893   5.988   7.299 -0.7756 -0.4057  0.6026
   31CHL1  H15A 2239   3.860   5.889   7.261 -0.8865 -1.1683  2.5958
   31CHL1  H15B 2240   3.993   6.009   7.256 -0.3811 -2.4979  0.3958
   31CHL1   C16 2241   3.877   5.985   7.445  0.2016 -0.0071  0.4276
   31CHL1  H16A 2242   3.834   5.885   7.463  1.5542 -0.3104  2.4189
   31CHL1  H16B 2243   3.976   6.007   7.491  0.2656  1.8882 -0.5152
   31CHL1   C17 2244   3.762   6.086   7.483 -0.1290  0.3055  0.3868
   31CHL1   H17 2245   3.815   6.180   7.509 -0.1755  0.0003  1.6457
   31CHL1   C13 2246   3.683   6.115   7.350  0.0649 -0.0343  0.3993
   31CHL1   C18 2247   3.581   6.002   7.313  0.7030  0.0703  0.1242
   31CHL1  H18A 2248   3.639   5.909   7.298  0.0224 -0.0369 -2.2515
   31CHL1  H18B 2249   3.509   5.975   7.394  0.1675 -1.5560 -0.8689
   31CHL1  H18C 2250   3.519   6.037   7.228  1.4079  0.5199 -0.2121
   31CHL1   C12 2251   3.629   6.258   7.332 -0.3762 -0.0852 -0.5829
   31CHL1  H12A 2252   3.531   6.266   7.384 -1.1771  1.8654 -2.2041
   31CHL1  H12B 2253   3.706   6.325   7.376 -1.5444  1.0749 -0.2135
   31CHL1   C11 2254   3.586   6.291   7.188  0.0767 -0.0589 -0.8125
   31CHL1  H11A 2255   3.502   6.222   7.165  1.1325 -2.6409  2.2608
   31CHL1  H11B 2256   3.551   6.395   7.175 -0.4375  0.0216  0.9029
   31CHL1    C9 2257   3.686   6.248   7.075 -0.6362  0.0345  0.0471
   31CHL1    H9 2258   3.767   6.324   7.071  0.2060 -0.8447  0.1745
   31CHL1   C10 2259   3.636   6.265   6.934  0.0008  0.3107  0.7203
   31CHL1   C19 2260   3.499   6.193   6.920 -0.4303 -0.1520  0.1913
   31CHL1  H19A 2261   3.420   6.255   6.968 -0.5271 -0.9970  1.1752
   31CHL1  H19B 2262   3.463   6.185   6.815  1.5401  1.9594 -0.7052
   31CHL1  H19C 2263   3.509   6.096   6.974 -0.1056  1.4650  3.2844
   31CHL1    C1 2264   3.612   6.420   6.892  0.0976  0.2328 -0.0252
   31CHL1   H1A 2265   3.538   6.468   6.959  0.9073 -0.7588  1.6621
   31CHL1   H1B 2266   3.707   6.465   6.927  0.2502  0.2702 -0.4812
   31CHL1    C2 2267   3.592   6.444   6.747 -0.2437  0.0781  0.4282
   31CHL1   H2A 2268   3.612   6.550   6.722  0.0226 -0.4370 -1.7306
   31CHL1   H2B 2269   3.491   6.424   6.707  0.1510 -2.7594  0.6735
   31CHL1   C20 2270   3.698   6.049   7.613 -0.6767 -0.3800  0.5530
   31CHL1   H20 2271   3.668   5.942   7.605 -0.6666 -0.3537  0.1289
   31CHL1   C21 2272   3.568   6.130   7.633 -0.0217  0.5445  0.0154
   31CHL1  H21A 2273   3.526   6.104   7.733  0.7339  0.6042  0.3586
   31CHL1  H21B 2274   3.488   6.115   7.557  0.6127 -1.7584 -0.2664
   31CHL1  H21C 2275   3.597   6.237   7.630  0.2329  0.4562 -0.9423
   31CHL1   C22 2276   3.792   6.057   7.738 -0.0003 -0.0556  1.0128
   31CHL1  H22A 2277   3.900   6.048   7.713 -0.3223 -1.6883  0.0108
   31CHL1  H22B 2278   3.778   6.162   7.772  2.3920  0.4733  0.5108
   31CHL1   C23 2279   3.751   5.962   7.847  0.2394  0.7541  0.6256
   31CHL1  H23A 2280   3.645   5.984   7.871 -0.2321 -0.3733 -0.3333
   31CHL1  H23B 2281   3.749   5.860   7.803  0.2266  1.2904 -0.6782
   31CHL1   C24 2282   3.850   5.966   7.965  0.0692 -0.7383 -0.6015
   31CHL1  H24A 2283   3.945   5.942   7.914 -1.1370  0.2497 -3.5049
   31CHL1  H24B 2284   3.854   6.066   8.012  1.7831 -0.5373 -1.1259
   31CHL1   C25 2285   3.820   5.859   8.078  0.8172 -0.2282 -0.8694
   31CHL1   H25 2286   3.901   5.867   8.154  0.1641  1.6551 -0.3179
   31CHL1   C26 2287   3.680   5.879   8.156 -0.0421  0.5520  0.2412
   31CHL1  H26A 2288   3.595   5.863   8.085 -0.7979  0.6042  1.1183
   31CHL1  H26B 2289   3.688   5.804   8.238  3.6603 -0.7595 -1.1177
   31CHL1  H26C 2290   3.689   5.982   8.195  1.6187  1.2822 -1.8905
   31CHL1   C27 2291   3.825   5.713   8.020 -0.1088 -0.0880 -1.0737
   31CHL1  H27A 2292   3.750   5.676   7.947  0.6694 -3.6047 -0.2543
   31CHL1  H27B 2293   3.818   5.647   8.109 -2.2759  0.9391 -0.4068
   31CHL1  H27C 2294   3.927   5.698   7.981 -0.1382  1.0429 -1.6380
   32CHL1    C3 2295   4.671   5.404   6.880 -0.5174 -1.0014  0.6037
   32CHL1    H3 2296   4.686   5.306   6.930 -0.0573 -0.3695  1.7389
   32CHL1    O3 2297   4.659   5.386   6.739  0.9512  0.2111 -0.1097
   32CHL1   H3' 2298   4.748   5.405   6.709  0.0146  3.8096 -1.0837
   32CHL1    C4 2299   4.551   5.481   6.940 -0.1682 -0.7484 -0.3782
   32CHL1   H4A 2300   4.548   5.585   6.900 -2.1582 -0.5885  0.0911
   32CHL1   H4B 2301   4.456   5.432   6.909 -2.1754  2.5469 -0.0018
   32CHL1    C5 2302   4.564   5.479   7.090  0.3619  0.4637  0.6573
   32CHL1    C6 2303   4.463   5.425   7.161  0.0029 -0.0320  0.3786
   32CHL1    H6 2304   4.378   5.381   7.107 -0.4784  1.6360 -0.2720
   32CHL1    C7 2305   4.455   5.427   7.311 -0.5577  0.0202  0.6258
   32CHL1   H7A 2306   4.355   5.468   7.336  0.3123  0.5833  3.5779
   32CHL1   H7B 2307   4.468   5.327   7.357  0.3448  0.0855  0.5412
   32CHL1    C8 2308   4.566   5.522   7.368 -0.5761 -0.1655  0.7545
   32CHL1    H8 2309   4.535   5.628   7.357 -2.0326 -0.6275  0.0713
   32CHL1   C14 2310   4.586   5.480   7.517  0.3395 -0.0584  0.4934
   32CHL1   H14 2311   4.602   5.371   7.525 -2.2208 -0.5782 -0.4925
   32CHL1   C15 2312   4.465   5.495   7.609 -0.2133  0.1423  0.6612
   32CHL1  H15A 2313   4.409   5.585   7.577  0.4102  0.1261 -0.5188
   32CHL1  H15B 2314   4.397   5.407   7.604 -1.4921  1.1282  0.0755
   32CHL1   C16 2315   4.519   5.499   7.742 -0.0489 -0.6628  0.4489
   32CHL1  H16A 2316   4.477   5.582   7.802 -0.4747  0.3278 -1.1670
   32CHL1  H16B 2317   4.492   5.414   7.809  1.1124 -0.4677  1.2041
   32CHL1   C17 2318   4.670   5.512   7.737 -0.1014 -0.4387  0.3574
   32CHL1   H17 2319   4.708   5.407   7.738 -1.8876 -1.1426 -0.6611
   32CHL1   C13 2320   4.688   5.560   7.591  0.0455  0.3952  0.7391
   32CHL1   C18 2321   4.667   5.713   7.571  0.1681  0.0193 -0.0861
   32CHL1  H18A 2322   4.745   5.762   7.632  0.2797 -0.5977  0.2698
   32CHL1  H18B 2323   4.666   5.747   7.465  0.0487  0.0406 -0.0777
   32CHL1  H18C 2324   4.570   5.750   7.610 -0.1742 -1.5212  0.5916
   32CHL1   C12 2325   4.822   5.518   7.525 -0.1136  0.3041  0.4740
   32CHL1  H12A 2326   4.908   5.558   7.584  0.0848  0.3681  0.1463
   32CHL1  H12B 2327   4.837   5.408   7.529 -1.2116  0.0309 -1.6938
   32CHL1   C11 2328   4.828   5.558   7.369 -0.1240  0.2817  0.1992
   32CHL1  H11A 2329   4.831   5.669   7.369  0.9112  0.2788  1.5842
   32CHL1  H11B 2330   4.926   5.531   7.324  1.5086  1.1372  3.0186
   32CHL1    C9 2331   4.704   5.503   7.290 -0.1212 -0.2545 -0.6305
   32CHL1    H9 2332   4.719   5.393   7.284  0.6019 -0.1560 -0.7851
   32CHL1   C10 2333   4.687   5.548   7.147 -0.0869  0.7217  0.3909
   32CHL1   C19 2334   4.669   5.700   7.129  0.3798  0.5963  0.1701
   32CHL1  H19A 2335   4.651   5.733   7.024 -2.3101 -0.9640  0.0333
   32CHL1  H19B 2336   4.587   5.748   7.188 -0.1827 -1.3636  1.0474
   32CHL1  H19C 2337   4.753   5.761   7.168  0.4525 -0.9606  2.6129
   32CHL1    C1 2338   4.807   5.488   7.073 -0.7326 -0.2138  0.3249
   32CHL1   H1A 2339   4.901   5.535   7.108 -0.8769  0.1373  0.2453
   32CHL1   H1B 2340   4.828   5.385   7.109 -4.0812 -0.6266  1.4118
   32CHL1    C2 2341   4.798   5.481   6.918  0.4047  0.3213 -0.2681
   32CHL1   H2A 2342   4.881   5.428   6.867 -0.7955  0.2760 -2.2638
   32CHL1   H2B 2343   4.789   5.584   6.876 -0.4707  0.7784  0.9606
   32CHL1   C20 2344   4.721   5.591   7.861 -0.1686  0.1506  0.1790
   32CHL1   H20 2345   4.666   5.688   7.862  0.1366  0.3249  0.2994
   32CHL1   C21 2346   4.872   5.631   7.861 -0.3417  0.0762  0.1848
   32CHL1  H21A 2347   4.905   5.671   7.959  0.9746  1.1860 -0.6782
   32CHL1  H21B 2348   4.890   5.694   7.771 -2.1847  0.3688 -0.0134
   32CHL1  H21C 2349   4.938   5.542   7.851 -1.1274 -0.4460 -0.5200
   32CHL1   C22 2350   4.674   5.530   7.996  0.3969 -0.5567  0.1539
   32CHL1  H22A 2351   4.733   5.587   8.071  1.0111  2.3393 -2.3221
   32CHL1  H22B 2352   4.568   5.557   8.011  0.9891  1.0170  1.8361
   32CHL1   C23 2353   4.692   5.376   8.006 -0.4198 -0.4475  0.2661
   32CHL1  H23A 2354   4.664   5.312   7.920  0.7825 -0.0325 -0.4641
   32CHL1  H23B 2355   4.803   5.377   7.999 -0.4966 -0.4602 -1.2944
   32CHL1   C24 2356   4.628   5.311   8.131 -0.5261  0.0422  0.6194
   32CHL1  H24A 2357   4.528   5.357   8.143  0.1527  2.3977 -1.6859
   32CHL1  H24B 2358   4.619   5.201   8.113 -0.6004  0.0300  0.7317
   32CHL1   C25 2359   4.719   5.331   8.259  0.9401 -0.7003 -1.1550
   32CHL1   H25 2360   4.742   5.440   8.263 -1.5209 -0.0021 -3.0125
   32CHL1   C26 2361   4.626   5.300   8.380  0.0284 -0.1655 -0.8048
   32CHL1  H26A 2362   4.683   5.328   8.471 -1.8778  0.3906  0.2713
   32CHL1  H26B 2363   4.527   5.350   8.371  0.6121  1.1431 -0.1515
   32CHL1  H26C 2364   4.614   5.190   8.391  1.7519 -0.3599 -0.5676
   32CHL1   C27 2365   4.852   5.251   8.268  0.1502  0.1058 -0.6649
   32CHL1  H27A 2366   4.826   5.144   8.279 -0.3964  0.3498  0.6266
   32CHL1  H27B 2367   4.908   5.255   8.172  0.4472 -2.2915 -0.6492
   32CHL1  H27C 2368   4.915   5.286   8.352 -1.4131  0.7726  0.2914
   33CHL1    C3 2369   5.898   5.753   6.836  0.7148 -0.6995 -1.3960
   33CHL1    H3 2370   5.944   5.653   6.851  2.5968  0.4846  1.4734
   33CHL1    O3 2371   5.879   5.779   6.695  0.7118 -0.6508 -0.0036
   33CHL1   H3' 2372   5.960   5.783   6.644  0.4207  0.0063 -0.4301
   33CHL1    C4 2373   5.752   5.770   6.898  0.8191 -0.3769  0.4727
   33CHL1   H4A 2374   5.699   5.864   6.872 -0.4834 -0.4770  2.5565
   33CHL1   H4B 2375   5.679   5.698   6.853 -0.7297  1.3043  0.1861
   33CHL1    C5 2376   5.747   5.762   7.048  0.1594  0.4686  0.0726
   33CHL1    C6 2377   5.668   5.674   7.114  0.2180  0.0173  0.1732
   33CHL1    H6 2378   5.604   5.606   7.057 -0.7421  0.4516  0.7121
   33CHL1    C7 2379   5.667   5.670   7.264 -0.0617 -0.6299 -0.5131
   33CHL1   H7A 2380   5.566   5.642   7.301  0.1753 -0.1916  0.5063
   33CHL1   H7B 2381   5.747   5.601   7.299  2.0724  1.3415 -1.2322
   33CHL1    C8 2382   5.705   5.809   7.328 -0.3135  0.4330 -0.1483
   33CHL1    H8 2383   5.628   5.888   7.315 -1.8557 -0.8718  0.5752
   33CHL1   C14 2384   5.722   5.776   7.472 -0.0402  0.2840  0.4465
   33CHL1   H14 2385   5.785   5.686   7.487 -2.2669 -1.8240 -1.9386
   33CHL1   C15 2386   5.590   5.734   7.545  0.3567 -0.2283  0.2547
   33CHL1  H15A 2387   5.509   5.808   7.526  1.2191  0.9999  1.1585
   33CHL1  H15B 2388   5.551   5.635   7.514 -1.2403  0.6493 -0.6369
   33CHL1   C16 2389   5.628   5.742   7.693 -0.1428  1.0989  0.0785
   33CHL1  H16A 2390   5.550   5.796   7.749  1.1522  4.1727 -0.8933
   33CHL1  H16B 2391   5.627   5.639   7.736 -1.4410  0.3744 -1.5523
   33CHL1   C17 2392   5.764   5.819   7.700 -0.0557 -0.6186  0.1767
   33CHL1   H17 2393   5.837   5.736   7.697 -1.0470 -1.5276  0.6211
   33CHL1   C13 2394   5.776   5.885   7.556 -0.2366 -0.6438 -0.3631
   33CHL1   C18 2395   5.700   6.018   7.555  0.2064  0.0832 -0.3479
   33CHL1  H18A 2396   5.673   6.061   7.456 -2.2550  1.0800  0.6682
   33CHL1  H18B 2397   5.595   6.006   7.590 -0.7109  0.6410 -2.6889
   33CHL1  H18C 2398   5.756   6.098   7.609 -0.8264  1.1890 -0.8510
   33CHL1   C12 2399   5.913   5.919   7.495 -0.2508 -0.3317 -0.5748
   33CHL1  H12A 2400   5.954   6.001   7.558 -1.5693 -0.9492  1.1743
   33CHL1  H12B 2401   5.978   5.830   7.510 -0.2193  0.1514  3.1429
   33CHL1   C11 2402   5.909   5.955   7.343  0.6900 -0.4168 -0.2112
   33CHL1  H11A 2403   5.863   6.056   7.339  1.1841 -0.1595  0.4069
   33CHL1  H11B 2404   6.018   5.959   7.324  0.4529  0.0565 -1.5578
   33CHL1    C9 2405   5.843   5.848   7.264  0.6025 -0.5451  0.3773
   33CHL1    H9 2406   5.913   5.763   7.282  1.8849  0.3516 -0.2449
   33CHL1   C10 2407   5.833   5.875   7.116 -0.0684  0.9930  0.5623
   33CHL1   C19 2408   5.778   6.018   7.086 -0.1342  0.3620  0.3006
   33CHL1  H19A 2409   5.681   6.026   7.141 -0.2465  0.6944  0.0564
   33CHL1  H19B 2410   5.847   6.090   7.133 -0.6815  0.3475  1.1551
   33CHL1  H19C 2411   5.771   6.038   6.977  3.2179  3.4293  0.4567
   33CHL1    C1 2412   5.981   5.862   7.057  0.8346  0.4132 -0.3885
   33CHL1   H1A 2413   6.041   5.951   7.085  0.5747  0.2138  0.8519
   33CHL1   H1B 2414   6.030   5.773   7.101 -1.4338 -0.6881  0.1049
   33CHL1    C2 2415   5.982   5.860   6.897  0.5087  0.3893 -0.3180
   33CHL1   H2A 2416   6.083   5.841   6.856  0.3370  1.8048 -1.5049
   33CHL1   H2B 2417   5.953   5.963   6.865  1.2502  1.9211  3.4165
   33CHL1   C20 2418   5.772   5.902   7.832 -0.0320 -0.0646  0.5522
   33CHL1   H20 2419   5.702   5.987   7.824  1.6659  1.2761 -0.8381
   33CHL1   C21 2420   5.909   5.969   7.842  0.3095 -0.1662 -0.5135
   33CHL1  H21A 2421   5.931   6.043   7.762 -0.0683  1.0258  0.4369
   33CHL1  H21B 2422   5.982   5.887   7.831 -0.0080 -0.4788 -0.3052
   33CHL1  H21C 2423   5.925   6.008   7.945 -1.2536  1.3242 -0.7865
   33CHL1   C22 2424   5.742   5.810   7.956  0.0341 -0.3647 -0.5058
   33CHL1  H22A 2425   5.647   5.755   7.943 -0.3479 -0.2320  1.3799
   33CHL1  H22B 2426   5.818   5.729   7.961 -1.0485 -1.3458  2.7810
   33CHL1   C23 2427   5.733   5.880   8.095 -0.5938 -0.3158 -0.1427
   33CHL1  H23A 2428   5.676   5.807   8.156 -5.1664  2.6193 -0.4558
   33CHL1  H23B 2429   5.832   5.917   8.129 -1.7259  2.0923  0.7498
   33CHL1   C24 2430   5.633   6.001   8.105 -0.1778  0.5938 -0.0989
   33CHL1  H24A 2431   5.681   6.089   8.057  1.3514  0.9370  1.9589
   33CHL1  H24B 2432   5.540   5.985   8.045 -0.9394  0.9832  0.9603
   33CHL1   C25 2433   5.585   6.025   8.251  0.1914  0.3825 -0.0022
   33CHL1   H25 2434   5.561   6.133   8.249  1.6197  0.7067 -0.9866
   33CHL1   C26 2435   5.463   5.942   8.290  0.5521  0.1948  0.5645
   33CHL1  H26A 2436   5.478   5.832   8.277 -0.1021  0.2508 -0.7974
   33CHL1  H26B 2437   5.417   5.961   8.389 -0.6258 -3.1439  0.8045
   33CHL1  H26C 2438   5.390   5.949   8.206  0.4111 -4.4636 -0.0108
   33CHL1   C27 2439   5.694   6.021   8.352 -1.2028 -0.2760  0.0980
   33CHL1  H27A 2440   5.663   6.042   8.457 -1.4558 -0.1711  0.0029
   33CHL1  H27B 2441   5.744   5.922   8.364  0.5071  0.3007 -1.6939
   33CHL1  H27C 2442   5.780   6.086   8.326 -1.7698 -0.2439 -1.8484
   34CHL1    C3 2443   6.466   2.919   7.008  0.0298 -0.0024  0.0332
   34CHL1    H3 2444   6.541   2.837   7.020 -0.2813 -0.1459  1.0438
   34CHL1    O3 2445   6.448   2.953   6.869  0.0229  0.4874  0.7085
   34CHL1   H3' 2446   6.409   2.881   6.819 -0.9494  1.9678 -0.8018
   34CHL1    C4 2447   6.331   2.866   7.060  0.3907 -0.3560 -0.2292
   34CHL1   H4A 2448   6.247   2.936   7.039 -0.3400 -0.9226  0.7560
   34CHL1   H4B 2449   6.312   2.770   7.008  0.9985 -1.6649  1.8408
   34CHL1    C5 2450   6.328   2.837   7.209 -0.0947  0.1275 -0.4785
   34CHL1    C6 2451   6.291   2.712   7.252  0.2814 -0.6350  0.1245
   34CHL1    H6 2452   6.266   2.631   7.182  1.6636  1.3064 -2.8065
   34CHL1    C7 2453   6.284   2.676   7.402  0.5614 -0.2079 -0.2714
   34CHL1   H7A 2454   6.181   2.639   7.419  0.4018  0.4007  0.1480
   34CHL1   H7B 2455   6.360   2.602   7.434  1.4475  0.1665 -1.4474
   34CHL1    C8 2456   6.300   2.806   7.492 -0.2523 -0.2974  0.4762
   34CHL1    H8 2457   6.208   2.868   7.486  0.4241  0.8411  1.4972
   34CHL1   C14 2458   6.319   2.761   7.631  0.2034 -0.3140 -0.4574
   34CHL1   H14 2459   6.404   2.690   7.629  1.4292  1.0336  1.0242
   34CHL1   C15 2460   6.209   2.672   7.692 -0.5194 -0.4867 -0.7066
   34CHL1  H15A 2461   6.107   2.715   7.680 -1.0014 -1.2255  0.5768
   34CHL1  H15B 2462   6.196   2.569   7.653 -1.5328 -1.3607  1.7865
   34CHL1   C16 2463   6.247   2.682   7.843  0.3546 -0.3465  0.2663
   34CHL1  H16A 2464   6.152   2.697   7.899 -0.7788 -2.8169 -0.8151
   34CHL1  H16B 2465   6.288   2.585   7.878  1.4549  0.1541  0.3953
   34CHL1   C17 2466   6.348   2.794   7.863 -0.7196  0.3827  0.6485
   34CHL1   H17 2467   6.447   2.742   7.865 -1.9389 -2.1910 -0.5954
   34CHL1   C13 2468   6.344   2.876   7.730  0.3058  0.1889 -0.6643
   34CHL1   C18 2469   6.223   2.974   7.733  0.1926 -0.3421 -1.3002
   34CHL1  H18A 2470   6.187   3.004   7.632 -1.3596  3.3098  0.1670
   34CHL1  H18B 2471   6.139   2.932   7.793  1.5101 -1.0821  0.1162
   34CHL1  H18C 2472   6.255   3.067   7.784 -1.0320 -0.1035 -0.9307
   34CHL1   C12 2473   6.473   2.945   7.681 -0.3476  0.2539  0.2567
   34CHL1  H12A 2474   6.500   3.031   7.747  1.3312  0.3480 -0.5101
   34CHL1  H12B 2475   6.560   2.876   7.682 -0.1584  0.4958  0.8768
   34CHL1   C11 2476   6.452   3.007   7.541 -0.5104 -0.1687  0.2802
   34CHL1  H11A 2477   6.371   3.083   7.540 -0.7094 -0.3807 -0.0955
   34CHL1  H11B 2478   6.550   3.052   7.515 -0.8841 -0.1650 -1.2085
   34CHL1    C9 2479   6.413   2.895   7.439  0.5466 -0.4496 -0.0059
   34CHL1    H9 2480   6.504   2.832   7.440  1.2112  0.4337  2.3197
   34CHL1   C10 2481   6.386   2.949   7.297 -0.1862 -0.2124  0.3957
   34CHL1   C19 2482   6.285   3.074   7.303 -0.4907  0.3154  0.4213
   34CHL1  H19A 2483   6.249   3.117   7.206 -0.2337 -0.0827  0.1478
   34CHL1  H19B 2484   6.190   3.055   7.358 -1.3313  1.4485 -0.5770
   34CHL1  H19C 2485   6.341   3.156   7.353 -0.6272  0.7488 -0.1204
   34CHL1    C1 2486   6.522   3.001   7.235 -0.1972  0.0725 -0.4957
   34CHL1   H1A 2487   6.551   3.092   7.292  4.4937 -0.7029 -1.2623
   34CHL1   H1B 2488   6.608   2.937   7.264  0.0152  1.3231  1.9359
   34CHL1    C2 2489   6.510   3.037   7.087  0.6001 -0.2438  0.0455
   34CHL1   H2A 2490   6.610   3.078   7.058  0.2110  0.2326 -0.6391
   34CHL1   H2B 2491   6.434   3.116   7.068 -0.6221 -0.7542  2.4676
   34CHL1   C20 2492   6.327   2.876   7.991  0.0322 -0.1820 -0.3411
   34CHL1   H20 2493   6.229   2.928   7.987 -0.6492 -1.4900 -1.3913
   34CHL1   C21 2494   6.429   2.995   8.005  0.1281 -0.3917  0.5956
   34CHL1  H21A 2495   6.408   3.061   7.919 -1.1414 -2.3238 -0.6618
   34CHL1  H21B 2496   6.530   2.949   8.001 -0.3724 -1.4776 -2.1735
   34CHL1  H21C 2497   6.409   3.043   8.103  1.4544  2.9500 -0.6285
   34CHL1   C22 2498   6.325   2.780   8.108 -0.3977  0.4866  0.0563
   34CHL1  H22A 2499   6.258   2.692   8.100 -0.7251  0.8876 -2.1448
   34CHL1  H22B 2500   6.428   2.739   8.120  0.0314  2.0190  2.3117
   34CHL1   C23 2501   6.275   2.844   8.240  0.2186 -0.2893 -0.3895
   34CHL1  H23A 2502   6.348   2.918   8.279 -2.4399  2.4969 -0.3184
   34CHL1  H23B 2503   6.178   2.895   8.223  0.8763  0.6918 -1.3329
   34CHL1   C24 2504   6.272   2.730   8.342 -0.3719  0.1323 -0.5803
   34CHL1  H24A 2505   6.195   2.656   8.310  0.0906 -1.0209  0.8886
   34CHL1  H24B 2506   6.373   2.685   8.332 -0.7804 -0.9176 -0.1405
   34CHL1   C25 2507   6.255   2.760   8.497  0.3259  0.9802  0.1876
   34CHL1   H25 2508   6.147   2.781   8.512  0.4514  1.2841  0.6913
   34CHL1   C26 2509   6.268   2.627   8.566 -0.2800  0.4794  0.6776
   34CHL1  H26A 2510   6.221   2.631   8.667  1.0037  2.1196  1.2508
   34CHL1  H26B 2511   6.210   2.546   8.516  0.9425  0.1462 -0.2410
   34CHL1  H26C 2512   6.370   2.588   8.586 -1.1517 -1.7905  0.9526
   34CHL1   C27 2513   6.348   2.858   8.548  0.1919  0.3252  0.2023
   34CHL1  H27A 2514   6.337   2.891   8.653 -2.2594  0.7146 -0.1204
   34CHL1  H27B 2515   6.454   2.836   8.523 -0.4655 -1.6443 -1.0463
   34CHL1  H27C 2516   6.329   2.949   8.486  0.3001  0.0305 -0.2745
   35CHL1    C3 2517   3.163   2.960   6.985  0.2380 -0.4415  0.0724
   35CHL1    H3 2518   3.052   2.964   6.985  0.1613 -1.3370 -1.9679
   35CHL1    O3 2519   3.205   2.978   6.854 -0.0883 -0.0543  0.6265
   35CHL1   H3' 2520   3.134   2.939   6.802  1.2409 -2.6305  0.5452
   35CHL1    C4 2521   3.235   3.068   7.072  0.1387  0.0479 -0.4933
   35CHL1   H4A 2522   3.339   3.065   7.034 -0.3912 -1.0282 -1.9561
   35CHL1   H4B 2523   3.194   3.166   7.042  1.9232  0.8519 -0.4329
   35CHL1    C5 2524   3.220   3.046   7.220 -0.1653 -0.1025  0.4256
   35CHL1    C6 2525   3.153   3.140   7.293 -0.1281  0.5233  0.3223
   35CHL1    H6 2526   3.121   3.234   7.246  0.9043  0.5603 -0.3422
   35CHL1    C7 2527   3.127   3.124   7.442 -0.1173  0.0781  0.4477
   35CHL1   H7A 2528   3.155   3.223   7.483 -0.1697  0.5179 -0.5602
   35CHL1   H7B 2529   3.019   3.103   7.456  0.3589 -2.0311  1.3297
   35CHL1    C8 2530   3.206   3.019   7.516  0.2579  0.6163  1.1117
   35CHL1    H8 2531   3.312   3.046   7.534  0.5127 -0.6338  1.6393
   35CHL1   C14 2532   3.145   2.990   7.651  1.0628 -0.8566 -0.3277
   35CHL1   H14 2533   3.038   2.969   7.629  1.3214 -1.1973 -1.2954
   35CHL1   C15 2534   3.124   3.106   7.754 -0.2587 -0.7838  0.4770
   35CHL1  H15A 2535   3.220   3.162   7.750 -1.0029  0.4788 -1.1451
   35CHL1  H15B 2536   3.035   3.167   7.726  3.6057  4.2852 -2.2825
   35CHL1   C16 2537   3.090   3.032   7.884  0.4377  0.1244 -0.2061
   35CHL1  H16A 2538   3.167   3.048   7.962  0.5015 -1.3709  0.0653
   35CHL1  H16B 2539   2.988   3.060   7.918  1.2712  0.8102  1.8724
   35CHL1   C17 2540   3.097   2.877   7.852 -0.0763 -0.0857  0.3650
   35CHL1   H17 2541   2.996   2.855   7.811 -0.4212  0.8275  0.6894
   35CHL1   C13 2542   3.200   2.875   7.737 -0.2047 -0.0384  0.0537
   35CHL1   C18 2543   3.345   2.902   7.780 -0.9319  0.0608  0.0378
   35CHL1  H18A 2544   3.385   2.833   7.857  0.5573 -0.1298 -0.8768
   35CHL1  H18B 2545   3.419   2.895   7.697 -1.7335 -0.8855 -0.6264
   35CHL1  H18C 2546   3.360   3.009   7.805  2.1080  0.2891 -2.1377
   35CHL1   C12 2547   3.188   2.746   7.641 -0.0628 -0.2473 -0.1271
   35CHL1  H12A 2548   3.234   2.661   7.695 -0.7770 -0.2603  0.4765
   35CHL1  H12B 2549   3.081   2.721   7.625 -0.0616 -0.4723  0.2056
   35CHL1   C11 2550   3.264   2.769   7.506  0.2630 -0.6818  0.5006
   35CHL1  H11A 2551   3.372   2.795   7.515  0.0048 -0.3080  3.0450
   35CHL1  H11B 2552   3.258   2.679   7.442 -0.5816  0.1847 -0.6852
   35CHL1    C9 2553   3.204   2.894   7.424  0.4418 -0.1513 -0.3827
   35CHL1    H9 2554   3.098   2.864   7.408 -0.2882  0.4823  2.6877
   35CHL1   C10 2555   3.253   2.907   7.278 -0.4938 -0.3014 -0.1486
   35CHL1   C19 2556   3.404   2.885   7.276  0.5782  0.0280  0.0696
   35CHL1  H19A 2557   3.445   2.944   7.360 -1.7250 -0.4881  1.6306
   35CHL1  H19B 2558   3.431   2.779   7.291 -0.1402 -0.5201 -2.1223
   35CHL1  H19C 2559   3.444   2.919   7.178  2.2639  0.9796  1.0438
   35CHL1    C1 2560   3.173   2.806   7.188 -0.6669 -0.3921 -0.4535
   35CHL1   H1A 2561   3.192   2.704   7.229  0.2559 -0.1616 -0.2829
   35CHL1   H1B 2562   3.064   2.828   7.195 -0.3600  1.1454 -0.0123
   35CHL1    C2 2563   3.190   2.822   7.034 -0.1045  0.7417 -0.6699
   35CHL1   H2A 2564   3.125   2.743   6.990 -0.7242  0.2264  1.0672
   35CHL1   H2B 2565   3.295   2.806   7.004  0.3931 -2.0099  1.9710
   35CHL1   C20 2566   3.119   2.779   7.974  0.3776 -0.2674 -0.4792
   35CHL1   H20 2567   3.217   2.800   8.023 -1.0368  1.1878  1.9169
   35CHL1   C21 2568   3.115   2.626   7.937  0.2418 -0.3547  0.8678
   35CHL1  H21A 2569   3.024   2.608   7.876  0.4147 -0.4784  0.6456
   35CHL1  H21B 2570   3.110   2.567   8.032  1.1872 -3.1638 -0.7014
   35CHL1  H21C 2571   3.211   2.592   7.893  0.0074 -0.3975  0.3860
   35CHL1   C22 2572   3.023   2.817   8.091 -0.1204 -0.0312 -0.2259
   35CHL1  H22A 2573   3.043   2.745   8.173  1.2293  2.1423  1.4607
   35CHL1  H22B 2574   3.052   2.919   8.124 -0.2589 -0.5154  1.5052
   35CHL1   C23 2575   2.871   2.811   8.058 -0.4410 -0.2785  0.5450
   35CHL1  H23A 2576   2.842   2.884   7.980 -0.4340 -1.5931 -0.7260
   35CHL1  H23B 2577   2.861   2.706   8.022  0.8345 -0.4457  0.6234
   35CHL1   C24 2578   2.797   2.838   8.185 -0.0594  0.4024 -0.0174
   35CHL1  H24A 2579   2.798   2.739   8.236 -0.5452  0.3373 -0.1268
   35CHL1  H24B 2580   2.853   2.924   8.228 -0.5699  1.5959 -1.6266
   35CHL1   C25 2581   2.646   2.872   8.165  0.0068 -0.1572 -0.3588
   35CHL1   H25 2582   2.632   2.944   8.082  1.4476 -2.1892 -2.4972
   35CHL1   C26 2583   2.578   2.748   8.105 -1.1233 -0.0856 -0.1750
   35CHL1  H26A 2584   2.468   2.756   8.095 -1.1078  0.8058  0.2825
   35CHL1  H26B 2585   2.616   2.737   8.001 -1.4734 -0.6293 -0.2527
   35CHL1  H26C 2586   2.609   2.658   8.163 -1.0475  0.4323  0.6037
   35CHL1   C27 2587   2.587   2.931   8.294 -0.2517  0.1716  0.4431
   35CHL1  H27A 2588   2.609   2.857   8.374  1.5344 -0.2750 -0.4121
   35CHL1  H27B 2589   2.476   2.932   8.291 -0.2642  1.9186  0.6800
   35CHL1  H27C 2590   2.632   3.029   8.320 -0.7723  0.6101 -0.2522
   36CHL1    C3 2591   4.690   2.479   6.911  0.3693 -0.1070 -0.3924
   36CHL1    H3 2592   4.580   2.483   6.896  0.2630  1.7643  0.6132
   36CHL1    O3 2593   4.763   2.531   6.804 -0.4872  0.6993  0.1637
   36CHL1   H3' 2594   4.754   2.627   6.804  0.8649  0.9135 -2.2751
   36CHL1    C4 2595   4.711   2.566   7.037 -0.7237 -1.1007  0.0930
   36CHL1   H4A 2596   4.821   2.582   7.040 -0.6826 -0.7255 -1.9542
   36CHL1   H4B 2597   4.656   2.660   7.013  0.2116 -0.2488  1.1615
   36CHL1    C5 2598   4.663   2.497   7.172  0.1437 -0.3068 -0.4467
   36CHL1    C6 2599   4.587   2.551   7.265  0.5994 -0.0945  0.4218
   36CHL1    H6 2600   4.544   2.652   7.255 -0.0357 -0.4985 -1.1544
   36CHL1    C7 2601   4.535   2.486   7.389 -0.6072  0.3484 -0.2421
   36CHL1   H7A 2602   4.524   2.558   7.473  1.3473 -0.7343  1.0345
   36CHL1   H7B 2603   4.432   2.445   7.380 -0.5059  0.5069 -3.6374
   36CHL1    C8 2604   4.644   2.380   7.432  0.1714  0.5385 -0.1167
   36CHL1    H8 2605   4.741   2.422   7.466 -0.3566  2.1259 -0.4626
   36CHL1   C14 2606   4.580   2.306   7.551  0.7899 -1.0422 -0.2481
   36CHL1   H14 2607   4.483   2.267   7.517 -1.2018  1.8348  1.6212
   36CHL1   C15 2608   4.548   2.394   7.674 -0.1337  0.1713 -0.1992
   36CHL1  H15A 2609   4.633   2.460   7.704  0.2218  0.6142 -2.0795
   36CHL1  H15B 2610   4.456   2.455   7.657 -1.6766 -2.8104 -4.0314
   36CHL1   C16 2611   4.521   2.290   7.785 -0.3113 -0.1519 -0.0608
   36CHL1  H16A 2612   4.582   2.307   7.877 -1.7826 -0.6152  1.0475
   36CHL1  H16B 2613   4.417   2.284   7.823 -0.7010 -2.3881 -1.2881
   36CHL1   C17 2614   4.567   2.148   7.726  0.3808 -0.1633  0.2356
   36CHL1   H17 2615   4.475   2.107   7.679  1.0028 -0.9244 -0.3415
   36CHL1   C13 2616   4.658   2.188   7.605  0.4477 -0.2920 -0.4719
   36CHL1   C18 2617   4.807   2.222   7.657  0.2128  0.2470 -0.0417
   36CHL1  H18A 2618   4.852   2.140   7.717 -2.2404 -1.7363 -0.7428
   36CHL1  H18B 2619   4.875   2.245   7.572  1.9011 -0.9936  0.9290
   36CHL1  H18C 2620   4.795   2.310   7.723 -0.7756  1.0532 -1.2376
   36CHL1   C12 2621   4.656   2.089   7.491  0.5924  0.2309 -0.5602
   36CHL1  H12A 2622   4.714   1.998   7.514  0.3157  0.3429  0.6239
   36CHL1  H12B 2623   4.554   2.065   7.455  0.8250 -2.4305  0.3892
   36CHL1   C11 2624   4.734   2.153   7.371 -0.2886  0.3663 -0.7030
   36CHL1  H11A 2625   4.838   2.183   7.397 -0.1621 -0.2123 -0.5184
   36CHL1  H11B 2626   4.737   2.085   7.283 -2.2114  0.3378 -0.7881
   36CHL1    C9 2627   4.660   2.285   7.318  0.0843  0.2832  0.1680
   36CHL1    H9 2628   4.555   2.258   7.294 -0.0863  3.1028 -2.9296
   36CHL1   C10 2629   4.718   2.354   7.190  0.0494  0.8127 -0.5885
   36CHL1   C19 2630   4.867   2.376   7.219  0.4942 -0.1558 -0.1534
   36CHL1  H19A 2631   4.916   2.440   7.142  1.5690  2.3547  2.4616
   36CHL1  H19B 2632   4.877   2.418   7.321 -0.5313 -0.1070 -0.0646
   36CHL1  H19C 2633   4.916   2.276   7.210 -1.0144 -0.9846  0.4321
   36CHL1    C1 2634   4.685   2.266   7.070  0.4113 -0.6714 -0.1927
   36CHL1   H1A 2635   4.724   2.163   7.085 -1.0847 -1.0091  1.7924
   36CHL1   H1B 2636   4.574   2.262   7.078  0.5268 -0.0728  2.8216
   36CHL1    C2 2637   4.727   2.327   6.937  0.3821  1.1247 -0.4457
   36CHL1   H2A 2638   4.680   2.265   6.858 -1.1700  1.6587  0.0178
   36CHL1   H2B 2639   4.837   2.320   6.927  0.4944 -0.6514  1.4442
   36CHL1   C20 2640   4.624   2.050   7.826  0.2501  0.0611 -0.1586
   36CHL1   H20 2641   4.684   1.979   7.765 -0.4230 -0.8957  0.2649
   36CHL1   C21 2642   4.505   1.968   7.882 -0.0908  0.1580  0.9212
   36CHL1  H21A 2643   4.458   1.928   7.789  1.1507  1.8746 -0.5132
   36CHL1  H21B 2644   4.428   2.033   7.928 -1.4582 -1.6090  1.2464
   36CHL1  H21C 2645   4.535   1.884   7.947  1.8027 -0.0991 -0.2179
   36CHL1   C22 2646   4.714   2.101   7.939  0.4419 -0.1105 -0.1153
   36CHL1  H22A 2647   4.799   2.163   7.902 -0.4207  0.7741 -0.6354
   36CHL1  H22B 2648   4.655   2.165   8.008 -2.1897 -2.6570  0.1676
   36CHL1   C23 2649   4.778   2.003   8.037 -0.3493  0.2737  0.3333
   36CHL1  H23A 2650   4.705   1.940   8.092  0.2016 -1.1969 -0.5526
   36CHL1  H23B 2651   4.838   1.937   7.970 -0.7439 -0.4257  0.6553
   36CHL1   C24 2652   4.866   2.063   8.151 -0.8156  0.3849 -0.3823
   36CHL1  H24A 2653   4.922   2.153   8.118  2.2426 -1.9354 -2.1055
   36CHL1  H24B 2654   4.789   2.086   8.229 -1.1142  1.2308 -0.9152
   36CHL1   C25 2655   4.972   1.965   8.211  1.3319 -0.0739 -0.1813
   36CHL1   H25 2656   5.004   2.011   8.307 -2.8401 -0.2216  1.4976
   36CHL1   C26 2657   4.903   1.835   8.259 -0.4043 -0.0887  0.5123
   36CHL1  H26A 2658   4.801   1.860   8.295 -1.6657 -1.0170 -2.1572
   36CHL1  H26B 2659   4.898   1.760   8.177 -0.8709 -0.1727  0.6136
   36CHL1  H26C 2660   4.976   1.800   8.335  1.8743  1.0890 -1.0347
   36CHL1   C27 2661   5.085   1.934   8.113  0.7053  0.0590  0.2861
   36CHL1  H27A 2662   5.132   2.030   8.083 -2.1309  1.6702  0.7082
   36CHL1  H27B 2663   5.153   1.871   8.175  0.4221  0.1331  0.6710
   36CHL1  H27C 2664   5.037   1.879   8.029 -1.5188  1.2213  0.7209
   37CHL1    C3 2665   1.541   5.364   6.777 -0.3811  0.5869  0.0375
   37CHL1    H3 2666   1.649   5.363   6.804  0.4380  0.3519 -2.8194
   37CHL1    O3 2667   1.539   5.360   6.639  0.1988  0.5276 -0.0632
   37CHL1   H3' 2668   1.450   5.386   6.615  0.9177  2.1332 -1.1412
   37CHL1    C4 2669   1.472   5.239   6.832  0.0882  0.6284 -1.0191
   37CHL1   H4A 2670   1.368   5.234   6.795  0.1202  0.9070 -1.1490
   37CHL1   H4B 2671   1.533   5.160   6.783  1.3931  1.1872 -0.3625
   37CHL1    C5 2672   1.480   5.241   6.990 -0.2131  0.0880  0.0896
   37CHL1    C6 2673   1.549   5.145   7.061  0.5140 -0.8008 -0.1311
   37CHL1    H6 2674   1.588   5.056   7.010  1.0863 -0.0408 -1.0701
   37CHL1    C7 2675   1.559   5.159   7.209  0.3944  0.4250  0.0090
   37CHL1   H7A 2676   1.546   5.057   7.250 -0.4739  0.1702 -0.8945
   37CHL1   H7B 2677   1.660   5.203   7.225  0.7179 -0.4241  0.3303
   37CHL1    C8 2678   1.443   5.251   7.268  0.0827 -0.4003  0.5939
   37CHL1    H8 2679   1.350   5.190   7.258  0.1747 -1.0061  2.9400
   37CHL1   C14 2680   1.459   5.274   7.418  0.0923  0.2784 -0.3355
   37CHL1   H14 2681   1.559   5.322   7.419  0.5569 -0.5773 -1.7212
   37CHL1   C15 2682   1.475   5.149   7.506 -0.6661 -0.0243 -1.0927
   37CHL1  H15A 2683   1.401   5.070   7.479 -0.6884 -0.2379 -0.4254
   37CHL1  H15B 2684   1.582   5.119   7.510 -0.8801 -0.7512 -0.6632
   37CHL1   C16 2685   1.428   5.192   7.651  0.0810 -0.3050 -0.1831
   37CHL1  H16A 2686   1.332   5.143   7.674 -1.2606  2.0654 -0.3629
   37CHL1  H16B 2687   1.504   5.188   7.732 -1.2158  3.3491  1.4305
   37CHL1   C17 2688   1.408   5.348   7.638 -0.3431 -0.6875  0.0214
   37CHL1   H17 2689   1.509   5.396   7.636 -1.1197  0.9876 -1.8987
   37CHL1   C13 2690   1.354   5.363   7.494 -0.0011  0.2495 -0.4262
   37CHL1   C18 2691   1.209   5.321   7.466  0.1289 -0.1447  0.6902
   37CHL1  H18A 2692   1.189   5.228   7.525 -1.1976  2.0604  4.0608
   37CHL1  H18B 2693   1.144   5.402   7.506 -0.0575 -0.0721  0.2369
   37CHL1  H18C 2694   1.178   5.318   7.360 -1.2394 -0.9303  1.0809
   37CHL1   C12 2695   1.391   5.501   7.426 -0.2557  0.0490  0.6152
   37CHL1  H12A 2696   1.325   5.585   7.458  0.5449  0.8020  0.3181
   37CHL1  H12B 2697   1.499   5.523   7.440 -0.1786 -0.5624  0.9841
   37CHL1   C11 2698   1.368   5.497   7.268  0.3435  0.3385  0.5225
   37CHL1  H11A 2699   1.259   5.478   7.260  0.4936 -0.4575  0.2939
   37CHL1  H11B 2700   1.386   5.596   7.220 -0.3676 -0.1690 -0.8359
   37CHL1    C9 2701   1.446   5.389   7.198  0.0531  0.3954  0.0484
   37CHL1    H9 2702   1.551   5.425   7.203 -0.4286  1.8813 -0.1019
   37CHL1   C10 2703   1.416   5.368   7.049  0.0574  0.1559  0.3509
   37CHL1   C19 2704   1.259   5.360   7.027  0.9046  0.5148 -0.3241
   37CHL1  H19A 2705   1.214   5.462   7.037  2.8043  1.1572  3.2890
   37CHL1  H19B 2706   1.232   5.320   6.927  0.6238 -0.5432  0.1608
   37CHL1  H19C 2707   1.224   5.293   7.108 -2.1573 -2.6567 -3.8936
   37CHL1    C1 2708   1.465   5.505   6.974  0.2648  0.1470 -0.2069
   37CHL1   H1A 2709   1.399   5.590   7.001 -0.3748 -1.4400  3.8990
   37CHL1   H1B 2710   1.562   5.529   7.022 -0.2637  0.4743  0.7278
   37CHL1    C2 2711   1.472   5.490   6.817  0.3140 -0.2691  0.1376
   37CHL1   H2A 2712   1.509   5.588   6.779  1.4076 -1.4517 -2.0068
   37CHL1   H2B 2713   1.368   5.480   6.778  0.9746  0.2402 -1.8892
   37CHL1   C20 2714   1.314   5.413   7.742  1.0159  0.2764  0.1271
   37CHL1   H20 2715   1.215   5.364   7.728  1.3127 -0.2239 -0.2760
   37CHL1   C21 2716   1.292   5.556   7.723 -0.3874 -0.2530 -0.6735
   37CHL1  H21A 2717   1.218   5.580   7.643 -2.0079 -2.4295  0.1100
   37CHL1  H21B 2718   1.386   5.613   7.708 -1.3795  1.9006  0.7776
   37CHL1  H21C 2719   1.249   5.605   7.813  0.3263  0.0407 -0.4834
   37CHL1   C22 2720   1.364   5.375   7.887 -0.5584  0.6842 -0.4853
   37CHL1  H22A 2721   1.352   5.268   7.913 -0.1755  0.7464 -0.0325
   37CHL1  H22B 2722   1.470   5.409   7.886 -0.6260  0.9058 -0.3564
   37CHL1   C23 2723   1.293   5.443   8.007  0.1316  0.5466  0.8602
   37CHL1  H23A 2724   1.311   5.551   7.984  0.3857  0.2319 -0.4726
   37CHL1  H23B 2725   1.183   5.426   8.009  0.0139  1.2465  0.6930
   37CHL1   C24 2726   1.355   5.392   8.136  0.3389 -0.4929  0.0549
   37CHL1  H24A 2727   1.342   5.284   8.162 -1.3487 -0.2048  0.5443
   37CHL1  H24B 2728   1.465   5.401   8.128  0.4877 -1.4750  0.7344
   37CHL1   C25 2729   1.305   5.457   8.266  0.1212 -0.4990  0.9176
   37CHL1   H25 2730   1.311   5.567   8.254  1.5051 -0.4582  1.7276
   37CHL1   C26 2731   1.163   5.414   8.304  0.1099  0.0185 -0.1325
   37CHL1  H26A 2732   1.123   5.475   8.388  1.2832 -1.9062  1.9147
   37CHL1  H26B 2733   1.100   5.445   8.217 -1.2381  0.6281  1.0171
   37CHL1  H26C 2734   1.157   5.310   8.342  1.8477  0.4989  1.5904
   37CHL1   C27 2735   1.396   5.419   8.378 -0.7838 -0.2084 -0.0515
   37CHL1  H27A 2736   1.360   5.468   8.471  0.7568  0.9298 -0.0222
   37CHL1  H27B 2737   1.402   5.308   8.387  1.7466 -0.0814  0.7561
   37CHL1  H27C 2738   1.501   5.451   8.362  0.1513 -2.2934  1.4211
   38CHL1    C3 2739   3.653   1.465   6.625 -0.4222  0.1658 -0.4946
   38CHL1    H3 2740   3.611   1.544   6.691  2.4300  1.4234 -0.0267
   38CHL1    O3 2741   3.641   1.503   6.493 -0.5852 -0.3300  0.1925
   38CHL1   H3' 2742   3.721   1.553   6.476 -0.0659 -0.7862  1.2005
   38CHL1    C4 2743   3.798   1.444   6.676  0.3232  0.1475  0.1826
   38CHL1   H4A 2744   3.830   1.360   6.610 -2.5243 -2.2158  1.5685
   38CHL1   H4B 2745   3.866   1.530   6.658 -0.4108  0.8376  0.6773
   38CHL1    C5 2746   3.790   1.400   6.823  0.3760 -0.6675  1.1647
   38CHL1    C6 2747   3.857   1.478   6.910 -0.2303 -0.2997 -0.0067
   38CHL1    H6 2748   3.914   1.568   6.879  1.3580 -1.0721  0.5462
   38CHL1    C7 2749   3.868   1.455   7.055  0.4202  0.6357 -0.7995
   38CHL1   H7A 2750   3.972   1.459   7.093  0.8856 -0.2811 -1.8912
   38CHL1   H7B 2751   3.802   1.533   7.098 -1.3909 -1.0341 -0.3949
   38CHL1    C8 2752   3.798   1.324   7.098 -0.3524 -0.1765  0.0513
   38CHL1    H8 2753   3.880   1.257   7.067 -0.9028 -0.8078 -0.0468
   38CHL1   C14 2754   3.772   1.307   7.241  0.2185 -0.3920 -0.1714
   38CHL1   H14 2755   3.686   1.375   7.261  1.4244  1.1177  0.0858
   38CHL1   C15 2756   3.887   1.348   7.340 -0.6406  0.4901 -0.3693
   38CHL1  H15A 2757   3.977   1.297   7.299  0.1137  1.3477  0.1799
   38CHL1  H15B 2758   3.896   1.459   7.348 -1.0966  0.5246 -0.3439
   38CHL1   C16 2759   3.848   1.280   7.473  0.3793  0.1744  0.3436
   38CHL1  H16A 2760   3.940   1.220   7.495  2.4485  2.8152 -0.5594
   38CHL1  H16B 2761   3.826   1.357   7.549  1.8487  1.7357 -0.7422
   38CHL1   C17 2762   3.720   1.201   7.439 -1.0930  0.2034  0.0278
   38CHL1   H17 2763   3.638   1.275   7.451 -0.7245  0.6735 -0.3247
   38CHL1   C13 2764   3.730   1.170   7.289  0.5720  1.2176  0.1884
   38CHL1   C18 2765   3.829   1.060   7.264 -0.2461  1.0451  0.5183
   38CHL1  H18A 2766   3.924   1.076   7.319 -0.6263 -1.2921  1.9782
   38CHL1  H18B 2767   3.796   0.956   7.279  0.8114  0.5087 -0.6713
   38CHL1  H18C 2768   3.868   1.063   7.160  0.7962 -2.3131  0.7119
   38CHL1   C12 2769   3.604   1.133   7.218  1.0863 -0.0030 -0.1453
   38CHL1  H12A 2770   3.576   1.028   7.242 -0.0171  0.4892  0.8117
   38CHL1  H12B 2771   3.526   1.209   7.238 -0.2507 -1.2396 -0.5010
   38CHL1   C11 2772   3.622   1.135   7.069 -0.2189  0.1040 -0.4170
   38CHL1  H11A 2773   3.696   1.058   7.038  0.3607  0.1918  0.7339
   38CHL1  H11B 2774   3.522   1.111   7.025 -0.0555  0.8922 -1.2531
   38CHL1    C9 2775   3.675   1.272   7.013  0.4512 -0.2287 -0.2496
   38CHL1    H9 2776   3.590   1.341   7.030  0.4159 -0.6408  1.3605
   38CHL1   C10 2777   3.699   1.285   6.861  0.5913 -0.3593  0.7980
   38CHL1   C19 2778   3.774   1.162   6.811  0.7281 -0.0736  0.3259
   38CHL1  H19A 2779   3.868   1.151   6.870  0.7923 -1.7684 -0.0463
   38CHL1  H19B 2780   3.709   1.077   6.838 -2.3839  1.6481 -1.2348
   38CHL1  H19C 2781   3.779   1.169   6.700 -0.3738 -0.5250  0.2360
   38CHL1    C1 2782   3.561   1.292   6.786 -0.4957  0.7248 -0.5883
   38CHL1   H1A 2783   3.497   1.202   6.794  1.5689 -0.6828  1.1621
   38CHL1   H1B 2784   3.502   1.379   6.823 -0.0761  0.0012  1.9454
   38CHL1    C2 2785   3.570   1.338   6.639  0.2355 -0.1726 -0.0137
   38CHL1   H2A 2786   3.467   1.352   6.602 -0.4657  1.4130  2.2689
   38CHL1   H2B 2787   3.606   1.265   6.564 -2.9552  0.6371 -2.5423
   38CHL1   C20 2788   3.687   1.093   7.542  0.4034 -0.1616 -0.1484
   38CHL1   H20 2789   3.723   0.992   7.511  3.8398  0.7348  0.5246
   38CHL1   C21 2790   3.532   1.096   7.554  0.3476  0.2059  0.4748
   38CHL1  H21A 2791   3.480   1.191   7.581 -0.7365 -0.5275  1.0191
   38CHL1  H21B 2792   3.499   1.022   7.629 -0.8729  2.4749  2.3402
   38CHL1  H21C 2793   3.482   1.067   7.459 -0.7345  0.2506  1.0100
   38CHL1   C22 2794   3.748   1.112   7.683 -0.1166  0.3038  0.7175
   38CHL1  H22A 2795   3.857   1.131   7.672 -0.3485  0.9982 -0.6449
   38CHL1  H22B 2796   3.697   1.193   7.740 -0.1573 -0.7181  2.1815
   38CHL1   C23 2797   3.744   0.983   7.770  0.9497  0.2044 -0.4511
   38CHL1  H23A 2798   3.641   0.955   7.801  0.8617  2.1642  1.2988
   38CHL1  H23B 2799   3.788   0.897   7.716  0.2174 -0.0354 -0.6717
   38CHL1   C24 2800   3.827   1.012   7.902  0.4644  0.0330 -0.3133
   38CHL1  H24A 2801   3.933   1.040   7.887  0.4159  1.9462  2.2118
   38CHL1  H24B 2802   3.776   1.087   7.967 -1.0570 -1.6901  0.5784
   38CHL1   C25 2803   3.841   0.894   8.011  0.4542  0.5530  0.1850
   38CHL1   H25 2804   3.742   0.879   8.059 -0.8992  3.4476 -1.4268
   38CHL1   C26 2805   3.891   0.763   7.941 -0.4754  0.1973 -0.0079
   38CHL1  H26A 2806   3.843   0.749   7.842  0.3940  0.9131 -0.5551
   38CHL1  H26B 2807   4.001   0.765   7.927 -0.3970  0.5037  0.5862
   38CHL1  H26C 2808   3.866   0.685   8.016  0.0331  0.8518  0.8774
   38CHL1   C27 2809   3.917   0.951   8.124  0.1081 -0.3171 -0.1700
   38CHL1  H27A 2810   3.931   0.869   8.199 -2.3293 -1.6414 -1.0303
   38CHL1  H27B 2811   4.020   0.972   8.089 -0.4418 -0.6156 -2.0779
   38CHL1  H27C 2812   3.866   1.039   8.169 -1.3330 -1.7935  1.2736
   39CHL1    C3 2813   2.961   5.618   6.908 -0.4773  0.1972  0.0960
   39CHL1    H3 2814   3.044   5.689   6.931  0.2074 -1.3599  2.8978
   39CHL1    O3 2815   2.939   5.601   6.774  0.3089 -0.2307 -0.0520
   39CHL1   H3' 2816   2.869   5.536   6.782 -0.6906  1.0743  3.6215
   39CHL1    C4 2817   3.010   5.480   6.963 -0.0405  0.5107 -0.1628
   39CHL1   H4A 2818   2.959   5.390   6.924  1.5319 -1.3087  1.6795
   39CHL1   H4B 2819   3.114   5.474   6.924  0.6867  0.3338  1.6769
   39CHL1    C5 2820   3.005   5.470   7.113 -0.0048  0.8538 -0.1580
   39CHL1    C6 2821   3.106   5.436   7.199 -0.4608  0.5613  0.2690
   39CHL1    H6 2822   3.201   5.408   7.152  0.7219 -1.1216  3.3548
   39CHL1    C7 2823   3.103   5.433   7.351  0.2111  0.0312  0.6925
   39CHL1   H7A 2824   3.154   5.339   7.383 -1.9475 -0.8177  1.8685
   39CHL1   H7B 2825   3.151   5.526   7.389 -1.5295  0.9590  0.6956
   39CHL1    C8 2826   2.951   5.421   7.395 -0.1700 -0.4140  0.1340
   39CHL1    H8 2827   2.908   5.323   7.366 -0.5985 -0.2287  0.1397
   39CHL1   C14 2828   2.952   5.425   7.548 -0.6089  0.5073  1.0803
   39CHL1   H14 2829   2.984   5.530   7.565 -2.5464  1.1497  0.9234
   39CHL1   C15 2830   3.048   5.333   7.631  0.1224 -0.3342 -0.4096
   39CHL1  H15A 2831   3.060   5.235   7.579 -1.4823  0.2684 -2.0254
   39CHL1  H15B 2832   3.145   5.385   7.647 -0.0353  0.1707 -1.0586
   39CHL1   C16 2833   2.980   5.329   7.765 -0.0755  0.0189  0.1624
   39CHL1  H16A 2834   2.944   5.224   7.771 -1.4544  0.4676  0.0444
   39CHL1  H16B 2835   3.048   5.348   7.850  0.7718  1.3547 -0.7635
   39CHL1   C17 2836   2.854   5.411   7.757  0.7880  0.1710 -0.4768
   39CHL1   H17 2837   2.879   5.514   7.792  0.6232  0.1903 -0.4140
   39CHL1   C13 2838   2.814   5.423   7.607 -1.1158  0.3079 -0.0230
   39CHL1   C18 2839   2.731   5.292   7.579 -0.6460  0.4541  0.0609
   39CHL1  H18A 2840   2.628   5.308   7.618  0.1544  1.6639  1.8112
   39CHL1  H18B 2841   2.723   5.282   7.468 -0.3993 -1.7777  0.1961
   39CHL1  H18C 2842   2.780   5.200   7.617  0.0162 -0.4201 -2.6612
   39CHL1   C12 2843   2.736   5.557   7.562 -0.2724  0.6445 -0.1915
   39CHL1  H12A 2844   2.629   5.554   7.590  0.1092  2.0221  1.5329
   39CHL1  H12B 2845   2.780   5.646   7.612  0.0584 -0.5286  1.7248
   39CHL1   C11 2846   2.738   5.556   7.399 -0.3256  0.4052 -0.4651
   39CHL1  H11A 2847   2.661   5.481   7.370  0.3611  0.9494 -4.1486
   39CHL1  H11B 2848   2.677   5.643   7.365 -2.7927 -1.0431 -0.0159
   39CHL1    C9 2849   2.871   5.535   7.330 -0.9167  0.3066 -0.8492
   39CHL1    H9 2850   2.928   5.628   7.348  0.9915 -0.6982 -1.4557
   39CHL1   C10 2851   2.868   5.518   7.174 -0.0161 -0.8428  0.0378
   39CHL1   C19 2852   2.763   5.409   7.136  0.0568 -0.3947  0.1693
   39CHL1  H19A 2853   2.773   5.314   7.193  2.4371 -1.1146 -1.3042
   39CHL1  H19B 2854   2.662   5.444   7.164 -0.2790  0.3402 -1.7484
   39CHL1  H19C 2855   2.759   5.396   7.025  0.5703  0.2296  0.0682
   39CHL1    C1 2856   2.828   5.659   7.115 -0.4660  0.3162 -0.7789
   39CHL1   H1A 2857   2.730   5.695   7.155 -1.0082 -1.1937 -0.6914
   39CHL1   H1B 2858   2.895   5.741   7.150 -1.7661  1.1048 -0.0343
   39CHL1    C2 2859   2.825   5.665   6.967  0.5996 -0.1150 -0.0920
   39CHL1   H2A 2860   2.825   5.774   6.945 -1.1172  0.3033  1.6939
   39CHL1   H2B 2861   2.736   5.619   6.919  0.7976 -1.0067  0.3776
   39CHL1   C20 2862   2.743   5.369   7.857 -0.3977  0.6622 -0.3576
   39CHL1   H20 2863   2.715   5.266   7.828 -2.0103  0.7668  0.6909
   39CHL1   C21 2864   2.623   5.449   7.845 -0.0982  0.2410 -0.8661
   39CHL1  H21A 2865   2.543   5.434   7.921 -1.6638  2.7762 -1.8588
   39CHL1  H21B 2866   2.573   5.437   7.747 -2.6308  2.1133  0.0676
   39CHL1  H21C 2867   2.652   5.556   7.851 -0.0678  0.4274 -3.3900
   39CHL1   C22 2868   2.795   5.365   8.006  0.7838 -0.2365  0.7075
   39CHL1  H22A 2869   2.885   5.302   7.990  0.6568 -0.1140 -0.5520
   39CHL1  H22B 2870   2.820   5.468   8.040 -0.6365  0.7728 -1.1676
   39CHL1   C23 2871   2.705   5.283   8.104 -0.8828  0.4147  1.2325
   39CHL1  H23A 2872   2.616   5.349   8.113  0.6073  2.5004  1.4374
   39CHL1  H23B 2873   2.671   5.187   8.059  0.8969  0.6567 -0.7656
   39CHL1   C24 2874   2.773   5.273   8.247 -0.3916 -0.1875  0.0126
   39CHL1  H24A 2875   2.859   5.203   8.238 -1.3467 -1.4398  0.3438
   39CHL1  H24B 2876   2.824   5.370   8.264 -0.4887 -0.4191  1.8010
   39CHL1   C25 2877   2.680   5.225   8.361 -0.2870 -0.5417  0.6404
   39CHL1   H25 2878   2.731   5.235   8.459 -0.7192 -1.0019  0.9188
   39CHL1   C26 2879   2.553   5.307   8.364  0.9430  0.2869  0.1648
   39CHL1  H26A 2880   2.565   5.417   8.374 -2.5154  0.7864 -0.0201
   39CHL1  H26B 2881   2.493   5.296   8.272 -0.6660  1.9904  0.9574
   39CHL1  H26C 2882   2.492   5.273   8.451  1.0664 -0.3656  0.0011
   39CHL1   C27 2883   2.643   5.078   8.344  0.0752  0.3704 -0.1474
   39CHL1  H27A 2884   2.736   5.024   8.316 -0.2624  0.1442 -0.8483
   39CHL1  H27B 2885   2.601   5.035   8.438  0.7826 -0.9741 -0.4096
   39CHL1  H27C 2886   2.564   5.050   8.272 -0.2183  0.7714  0.0184
   40CHL1    C3 2887   6.338   4.709   6.785  0.1473  0.3025 -0.1569
   40CHL1    H3 2888   6.231   4.687   6.809  0.5185 -1.3369  0.1567
   40CHL1    O3 2889   6.342   4.688   6.646 -0.6085 -0.3841  0.8770
   40CHL1   H3' 2890   6.425   4.647   6.619  0.5961  2.1483  0.4098
   40CHL1    C4 2891   6.376   4.849   6.821  0.6265 -0.1619  0.0462
   40CHL1   H4A 2892   6.472   4.873   6.771 -0.9670 -0.1889 -3.2365
   40CHL1   H4B 2893   6.305   4.922   6.777  0.8385  0.8417  1.2956
   40CHL1    C5 2894   6.374   4.870   6.975 -0.3594  0.1754 -0.0892
   40CHL1    C6 2895   6.299   4.961   7.037 -0.2498 -0.0423  0.2284
   40CHL1    H6 2896   6.239   5.022   6.968 -1.7183 -0.2228  1.2944
   40CHL1    C7 2897   6.297   4.986   7.184  0.5626  0.5454 -0.0364
   40CHL1   H7A 2898   6.299   5.096   7.198  0.1746  0.4571  0.7243
   40CHL1   H7B 2899   6.210   4.940   7.235  0.5431 -2.4862 -2.4427
   40CHL1    C8 2900   6.419   4.922   7.254 -0.0896 -0.0801 -0.2070
   40CHL1    H8 2901   6.505   4.985   7.225  0.1104 -0.4847 -0.5099
   40CHL1   C14 2902   6.390   4.921   7.407  0.3318 -0.3637  0.2566
   40CHL1   H14 2903   6.306   4.852   7.428 -0.7222  0.7030 -0.3651
   40CHL1   C15 2904   6.336   5.045   7.474 -0.0147 -0.8394  0.3798
   40CHL1  H15A 2905   6.383   5.128   7.417 -0.2199 -1.5098 -0.8014
   40CHL1  H15B 2906   6.227   5.056   7.458  0.0269  0.2892  0.8162
   40CHL1   C16 2907   6.378   5.031   7.620 -0.0420  0.6284 -0.4034
   40CHL1  H16A 2908   6.467   5.094   7.641 -0.4483  0.2639  2.9978
   40CHL1  H16B 2909   6.295   5.055   7.690  0.9319  2.0395  0.3164
   40CHL1   C17 2910   6.443   4.886   7.625  0.8558 -0.3067 -0.6754
   40CHL1   H17 2911   6.362   4.811   7.634  1.5951 -0.8996  2.0031
   40CHL1   C13 2912   6.500   4.855   7.489  0.1504  0.2696 -0.4470
   40CHL1   C18 2913   6.637   4.927   7.476  0.8382  0.0260 -0.1368
   40CHL1  H18A 2914   6.627   5.033   7.505  0.6086 -0.0799  0.1777
   40CHL1  H18B 2915   6.716   4.892   7.546  0.6746  1.7708  0.9813
   40CHL1  H18C 2916   6.670   4.930   7.370  1.0259  0.1733 -0.0736
   40CHL1   C12 2917   6.513   4.709   7.443 -0.0494 -0.2022  0.0693
   40CHL1  H12A 2918   6.579   4.641   7.501 -1.5355 -0.4251  1.5507
   40CHL1  H12B 2919   6.414   4.665   7.468  0.6214 -0.6296  2.1911
   40CHL1   C11 2920   6.540   4.697   7.296 -0.2438 -0.2708 -0.2727
   40CHL1  H11A 2921   6.644   4.733   7.277 -0.1027 -1.0703 -1.0721
   40CHL1  H11B 2922   6.539   4.589   7.272  3.1871 -0.9414  1.9748
   40CHL1    C9 2923   6.432   4.778   7.213  0.0606 -0.1290 -0.4383
   40CHL1    H9 2924   6.334   4.730   7.237  0.7534 -0.3999  2.1332
   40CHL1   C10 2925   6.457   4.766   7.057  0.4419  0.6889  0.1969
   40CHL1   C19 2926   6.609   4.795   7.027 -0.0984 -0.8376 -0.0654
   40CHL1  H19A 2927   6.682   4.743   7.093 -0.8378  0.8813  2.2802
   40CHL1  H19B 2928   6.643   4.778   6.923  0.1100 -1.4153  0.0958
   40CHL1  H19C 2929   6.620   4.906   7.025 -1.1603 -0.7369 -0.8184
   40CHL1    C1 2930   6.425   4.621   7.013  0.1861  0.3232 -0.1603
   40CHL1   H1A 2931   6.508   4.556   7.046  1.5630  1.0886 -1.9557
   40CHL1   H1B 2932   6.326   4.596   7.058  1.2021 -0.8469  1.5440
   40CHL1    C2 2933   6.417   4.599   6.854  0.6417 -0.5752 -0.1038
   40CHL1   H2A 2934   6.374   4.502   6.818  0.2004 -0.0089 -1.1455
   40CHL1   H2B 2935   6.520   4.597   6.812  0.7502  3.1859 -0.2905
   40CHL1   C20 2936   6.527   4.862   7.752  0.1152  0.0632  0.8699
   40CHL1   H20 2937   6.611   4.935   7.751  0.8328 -0.7413  0.8911
   40CHL1   C21 2938   6.584   4.722   7.760 -0.5538  0.3152 -0.4672
   40CHL1  H21A 2939   6.641   4.695   7.668 -0.4335 -0.8579 -0.0741
   40CHL1  H21B 2940   6.507   4.643   7.773 -1.5860  0.5696 -4.1090
   40CHL1  H21C 2941   6.654   4.717   7.847 -0.8068  1.0492 -0.2186
   40CHL1   C22 2942   6.442   4.895   7.879  0.1164  0.7761  0.2511
   40CHL1  H22A 2943   6.414   5.002   7.879  0.7077  0.9384 -0.0217
   40CHL1  H22B 2944   6.351   4.831   7.880  0.0365  0.8350 -1.1814
   40CHL1   C23 2945   6.508   4.861   8.015  0.4144  0.4436  0.9581
   40CHL1  H23A 2946   6.511   4.751   8.035  0.4688 -0.2193 -2.1300
   40CHL1  H23B 2947   6.612   4.900   8.021  0.5121  0.1731  1.0604
   40CHL1   C24 2948   6.446   4.928   8.141  0.3073 -0.6492  0.6406
   40CHL1  H24A 2949   6.469   5.035   8.128  2.3168 -1.1738 -0.4733
   40CHL1  H24B 2950   6.339   4.906   8.120  0.8218 -0.7997 -2.2715
   40CHL1   C25 2951   6.487   4.860   8.276  0.5991  0.7668  0.8949
   40CHL1   H25 2952   6.463   4.752   8.278  1.1035  0.6505  3.0048
   40CHL1   C26 2953   6.638   4.881   8.294  0.0649  0.5188 -0.9302
   40CHL1  H26A 2954   6.695   4.829   8.215  0.0174 -1.7739  0.4452
   40CHL1  H26B 2955   6.658   4.991   8.289  0.1877  0.5394 -0.1395
   40CHL1  H26C 2956   6.676   4.848   8.393 -2.7043  0.3738  0.1685
   40CHL1   C27 2957   6.408   4.931   8.384  0.3050  0.4332  0.1585
   40CHL1  H27A 2958   6.459   4.914   8.481  0.6951 -1.5551 -0.3391
   40CHL1  H27B 2959   6.418   5.039   8.362 -1.2413  0.4949 -0.3880
   40CHL1  H27C 2960   6.302   4.899   8.378 -0.1473  1.9579 -0.3281
   41CHL1    C3 2961   6.530   4.084   6.906  0.4589 -0.1881  0.0791
   41CHL1    H3 2962   6.477   4.180   6.923  0.3110  0.1831 -2.1911
   41CHL1    O3 2963   6.558   4.069   6.764 -0.6372 -0.4612 -0.1172
   41CHL1   H3' 2964   6.634   4.012   6.768 -0.6274 -0.4580  3.7932
   41CHL1    C4 2965   6.666   4.092   6.982  0.9431  0.5935  0.5555
   41CHL1   H4A 2966   6.727   4.007   6.946  0.1458  0.4608 -0.5355
   41CHL1   H4B 2967   6.721   4.184   6.952  3.0793 -1.2643 -1.6912
   41CHL1    C5 2968   6.644   4.095   7.137 -0.5844  0.0974  0.0536
   41CHL1    C6 2969   6.690   4.194   7.211  0.3827  0.5235 -0.7439
   41CHL1    H6 2970   6.752   4.274   7.168  2.2590 -1.7025 -2.4576
   41CHL1    C7 2971   6.675   4.200   7.363  0.2864  0.1335 -0.3394
   41CHL1   H7A 2972   6.770   4.222   7.416 -0.2093  2.5996 -0.3745
   41CHL1   H7B 2973   6.605   4.283   7.387  1.2361  0.5904  0.9934
   41CHL1    C8 2974   6.621   4.069   7.421  0.0232 -0.0914  0.2273
   41CHL1    H8 2975   6.705   3.996   7.420  0.0402 -0.0647 -0.2851
   41CHL1   C14 2976   6.573   4.081   7.564  0.0922  0.5069 -0.3508
   41CHL1   H14 2977   6.483   4.146   7.554 -0.0022  0.5333  0.5525
   41CHL1   C15 2978   6.666   4.156   7.667 -0.1041  0.4350 -0.3923
   41CHL1  H15A 2979   6.771   4.122   7.662 -0.2416 -0.3755  1.2450
   41CHL1  H15B 2980   6.652   4.266   7.662 -0.9714  0.2878 -1.7374
   41CHL1   C16 2981   6.599   4.109   7.799 -0.5670 -0.3491  0.4405
   41CHL1  H16A 2982   6.676   4.055   7.858 -0.1814  0.3042  0.5408
   41CHL1  H16B 2983   6.551   4.191   7.858  1.5174  1.5220 -0.3347
   41CHL1   C17 2984   6.479   4.010   7.763  0.2328  0.0671 -0.3662
   41CHL1   H17 2985   6.381   4.059   7.746 -0.7473 -0.1484  3.6237
   41CHL1   C13 2986   6.513   3.954   7.630 -0.2443  0.3645 -0.2323
   41CHL1   C18 2987   6.625   3.848   7.648  0.1517  0.2052 -0.3523
   41CHL1  H18A 2988   6.581   3.757   7.693  2.1893 -0.4481  0.4400
   41CHL1  H18B 2989   6.671   3.811   7.554 -0.2384 -1.7733  0.1935
   41CHL1  H18C 2990   6.703   3.882   7.719 -1.0455 -1.7273  2.0124
   41CHL1   C12 2991   6.410   3.886   7.543 -0.2154 -0.2381  0.3856
   41CHL1  H12A 2992   6.395   3.782   7.578  0.2218 -0.3479  0.2466
   41CHL1  H12B 2993   6.311   3.937   7.546 -1.4906 -2.3746 -1.7774
   41CHL1   C11 2994   6.445   3.877   7.395  0.8451 -0.2813  0.3613
   41CHL1  H11A 2995   6.516   3.791   7.386 -2.3966 -3.0274 -1.9496
   41CHL1  H11B 2996   6.349   3.853   7.345  1.9686 -1.0151 -1.5588
   41CHL1    C9 2997   6.512   4.005   7.337  0.4683  0.6555  0.5499
   41CHL1    H9 2998   6.431   4.081   7.341 -1.1058 -0.8134 -1.0048
   41CHL1   C10 2999   6.556   3.978   7.193  0.0999  0.4541 -0.2589
   41CHL1   C19 3000   6.639   3.840   7.170 -0.0105  0.3671  0.0225
   41CHL1  H19A 3001   6.726   3.828   7.239 -0.0853  0.0123  0.0563
   41CHL1  H19B 3002   6.576   3.753   7.196  0.6709  0.1949  1.1670
   41CHL1  H19C 3003   6.676   3.831   7.066  0.5889 -0.7726  0.3191
   41CHL1    C1 3004   6.423   3.966   7.103 -0.8938 -0.1216 -0.1404
   41CHL1   H1A 3005   6.366   3.871   7.117 -1.1650 -0.0084 -0.4650
   41CHL1   H1B 3006   6.363   4.056   7.130  1.4325  0.9798  1.7566
   41CHL1    C2 3007   6.447   3.967   6.947  0.1197  0.0695 -0.5038
   41CHL1   H2A 3008   6.348   3.962   6.896 -1.0207  0.0965  1.5631
   41CHL1   H2B 3009   6.503   3.876   6.917  0.7880  0.7591 -1.4203
   41CHL1   C20 3010   6.457   3.919   7.889  0.9489  0.3014  0.7040
   41CHL1   H20 3011   6.541   3.848   7.902  0.1697 -1.1342 -1.4551
   41CHL1   C21 3012   6.327   3.846   7.872  0.8855  0.0203 -0.5059
   41CHL1  H21A 3013   6.301   3.779   7.957 -1.4966  1.5420  0.0713
   41CHL1  H21B 3014   6.315   3.789   7.777  0.1189 -0.5179 -0.1038
   41CHL1  H21C 3015   6.241   3.916   7.865  1.1369  0.6404  1.7267
   41CHL1   C22 3016   6.448   3.992   8.022 -0.3133 -0.8099 -0.4838
   41CHL1  H22A 3017   6.542   4.039   8.056 -1.2689  1.1312 -0.3729
   41CHL1  H22B 3018   6.372   4.071   8.002  0.5757 -0.0257 -0.8371
   41CHL1   C23 3019   6.407   3.908   8.142 -0.7488  0.7244  0.0796
   41CHL1  H23A 3020   6.301   3.881   8.122 -0.2293 -0.4696 -1.1787
   41CHL1  H23B 3021   6.467   3.815   8.147 -0.7544  0.4514 -3.0488
   41CHL1   C24 3022   6.416   3.978   8.278  0.7170  0.0540  0.2845
   41CHL1  H24A 3023   6.520   4.016   8.290  0.5966  0.5316 -0.1294
   41CHL1  H24B 3024   6.346   4.063   8.263 -2.3765 -2.2768  0.5021
   41CHL1   C25 3025   6.368   3.886   8.396 -0.2887  0.2158  0.3876
   41CHL1   H25 3026   6.438   3.801   8.410  0.2217  0.8635  2.0151
   41CHL1   C26 3027   6.366   3.967   8.526 -0.6977 -0.2965 -0.1250
   41CHL1  H26A 3028   6.272   4.024   8.544  0.2518  1.5174 -0.6916
   41CHL1  H26B 3029   6.375   3.898   8.613 -0.9403  1.1567  1.0968
   41CHL1  H26C 3030   6.453   4.034   8.546 -1.3530  0.5174  0.0732
   41CHL1   C27 3031   6.227   3.822   8.382  0.0084 -0.2355  0.0884
   41CHL1  H27A 3032   6.229   3.729   8.321 -0.0737 -0.4136  0.3563
   41CHL1  H27B 3033   6.194   3.797   8.485  2.3571 -0.8915  0.7616
   41CHL1  H27C 3034   6.162   3.901   8.339  0.2501 -0.7149 -1.1998
   42CHL1    C3 3035   1.858   1.417   6.832  0.0302 -0.9595 -0.0996
   42CHL1    H3 3036   1.794   1.482   6.896  0.3653  1.0647 -1.7074
   42CHL1    O3 3037   1.801   1.416   6.705 -0.7291  0.2488  0.0027
   42CHL1   H3' 3038   1.856   1.356   6.655 -2.7331  0.6894 -2.9513
   42CHL1    C4 3039   2.000   1.471   6.832  0.0920  0.0521  0.2277
   42CHL1   H4A 3040   2.068   1.398   6.784  0.3045 -0.1886  0.8806
   42CHL1   H4B 3041   2.015   1.564   6.773  1.4114 -1.5949 -2.2016
   42CHL1    C5 3042   2.046   1.487   6.976  0.1430 -0.3237  0.3814
   42CHL1    C6 3043   2.073   1.608   7.023  0.2454 -0.2837 -0.4203
   42CHL1    H6 3044   2.061   1.695   6.957 -0.3068 -0.3944 -0.4783
   42CHL1    C7 3045   2.124   1.635   7.164  0.6223  0.0451 -1.1382
   42CHL1   H7A 3046   2.217   1.697   7.168 -0.0938  1.1375 -0.9435
   42CHL1   H7B 3047   2.044   1.691   7.217 -0.0491 -0.4430 -1.6089
   42CHL1    C8 3048   2.152   1.502   7.237 -0.2399 -0.4374 -0.1406
   42CHL1    H8 3049   2.242   1.457   7.190 -1.4950 -1.3600 -1.7662
   42CHL1   C14 3050   2.164   1.541   7.386  0.0281 -0.0321  0.1299
   42CHL1   H14 3051   2.065   1.575   7.424 -0.2983 -0.8687  0.0424
   42CHL1   C15 3052   2.253   1.658   7.432  0.2578 -0.3761 -0.1253
   42CHL1  H15A 3053   2.347   1.670   7.374  0.4236  3.1987  0.6785
   42CHL1  H15B 3054   2.193   1.751   7.421 -0.0287 -0.5266  0.1722
   42CHL1   C16 3055   2.274   1.631   7.587  0.2629  0.1312 -0.1739
   42CHL1  H16A 3056   2.383   1.613   7.596  0.8088  3.1220  0.3554
   42CHL1  H16B 3057   2.232   1.713   7.650  0.9940 -0.6365  1.3605
   42CHL1   C17 3058   2.201   1.492   7.618 -0.1720 -0.4279 -0.1604
   42CHL1   H17 3059   2.093   1.503   7.642 -0.5714 -2.5869 -0.7481
   42CHL1   C13 3060   2.197   1.422   7.480  0.0961  0.6467 -0.8377
   42CHL1   C18 3061   2.335   1.370   7.453  0.1090 -0.2217 -0.5055
   42CHL1  H18A 3062   2.366   1.289   7.523 -1.2966 -1.8184 -1.6611
   42CHL1  H18B 3063   2.330   1.326   7.351  0.6586  0.7066 -0.9413
   42CHL1  H18C 3064   2.417   1.445   7.449  0.3290 -0.0545  3.2036
   42CHL1   C12 3065   2.087   1.314   7.458 -0.2199 -0.0784  0.5390
   42CHL1  H12A 3066   2.122   1.223   7.512 -0.0063  0.9140  2.1338
   42CHL1  H12B 3067   1.997   1.358   7.505 -0.6586 -1.7201  1.3201
   42CHL1   C11 3068   2.076   1.270   7.309  0.1111 -0.1652  1.1003
   42CHL1  H11A 3069   2.169   1.224   7.271 -0.3696  0.4750 -0.9611
   42CHL1  H11B 3070   2.000   1.190   7.298 -0.7576  0.2732  3.2757
   42CHL1    C9 3071   2.045   1.393   7.215  0.1507  0.1056  0.6045
   42CHL1    H9 3072   1.952   1.443   7.250  0.0019  1.1813 -1.2067
   42CHL1   C10 3073   2.028   1.358   7.065 -0.3691  0.1986 -0.5903
   42CHL1   C19 3074   2.145   1.261   7.031  0.4615 -0.7492 -0.2181
   42CHL1  H19A 3075   2.105   1.169   7.079 -1.4444  0.8127  1.3911
   42CHL1  H19B 3076   2.150   1.241   6.922 -0.4746  0.0788 -0.4347
   42CHL1  H19C 3077   2.242   1.291   7.076 -0.5033  1.5874  0.4345
   42CHL1    C1 3078   1.891   1.289   7.046 -0.3180  0.4138  0.2833
   42CHL1   H1A 3079   1.902   1.184   7.079  0.7341  0.8110  1.2701
   42CHL1   H1B 3080   1.815   1.349   7.101 -1.6018  1.2133 -2.2013
   42CHL1    C2 3081   1.853   1.280   6.897  0.4352  0.4270  0.1632
   42CHL1   H2A 3082   1.755   1.227   6.898  0.8325 -0.3298  0.2571
   42CHL1   H2B 3083   1.927   1.211   6.850  0.8213 -0.9945  2.6650
   42CHL1   C20 3084   2.263   1.420   7.739  0.0210  0.3710  0.6043
   42CHL1   H20 3085   2.362   1.383   7.706  0.7473  0.5308  2.4799
   42CHL1   C21 3086   2.174   1.299   7.784 -0.0671  0.6964 -0.8013
   42CHL1  H21A 3087   2.213   1.253   7.877  0.3725  1.0650 -0.8044
   42CHL1  H21B 3088   2.178   1.221   7.705  1.6740 -0.7910  0.6628
   42CHL1  H21C 3089   2.068   1.335   7.790 -0.7255 -1.0748 -1.2420
   42CHL1   C22 3090   2.300   1.509   7.861  0.3144  0.2889 -0.3711
   42CHL1  H22A 3091   2.356   1.438   7.926 -2.1173 -1.3087  0.0936
   42CHL1  H22B 3092   2.359   1.591   7.815 -0.5773  1.4872  0.5673
   42CHL1   C23 3093   2.195   1.586   7.936  0.1799  0.0253 -0.2471
   42CHL1  H23A 3094   2.141   1.642   7.857  1.5669 -0.9732 -1.9943
   42CHL1  H23B 3095   2.128   1.516   7.991  1.5743 -0.0095  1.4966
   42CHL1   C24 3096   2.242   1.684   8.054  0.3993  0.4633 -0.5959
   42CHL1  H24A 3097   2.153   1.731   8.101 -0.8009 -0.2897 -2.0439
   42CHL1  H24B 3098   2.292   1.619   8.129  1.3974 -0.2497 -1.8584
   42CHL1   C25 3099   2.352   1.791   8.019  0.6507 -0.1621 -0.1546
   42CHL1   H25 3100   2.443   1.738   7.982  0.0787 -1.2967  0.0079
   42CHL1   C26 3101   2.295   1.885   7.912  0.6143 -0.5444 -0.3447
   42CHL1  H26A 3102   2.260   1.839   7.817 -0.8030  0.8676 -0.5478
   42CHL1  H26B 3103   2.207   1.939   7.952  1.4449 -0.6437  1.7219
   42CHL1  H26C 3104   2.381   1.943   7.873 -0.9905  1.7553 -0.6701
   42CHL1   C27 3105   2.386   1.886   8.134 -0.9888 -0.1723 -0.0976
   42CHL1  H27A 3106   2.310   1.968   8.132 -1.8718 -0.9616  0.5215
   42CHL1  H27B 3107   2.483   1.937   8.114 -0.9613 -0.0224  0.4050
   42CHL1  H27C 3108   2.388   1.848   8.238 -0.0334 -1.6394 -0.6265
   43CHL1    C3 3109   2.457   5.778   6.829 -0.0794 -0.2909  0.6848
   43CHL1    H3 3110   2.561   5.744   6.848  0.2681  0.4318  0.0967
   43CHL1    O3 3111   2.435   5.786   6.689 -0.7220 -0.2536 -0.8344
   43CHL1   H3' 3112   2.505   5.836   6.648 -1.0749 -0.1076 -1.2645
   43CHL1    C4 3113   2.361   5.679   6.901 -0.4386  0.2126  0.5947
   43CHL1   H4A 3114   2.259   5.711   6.870 -0.2495  1.1679  0.9108
   43CHL1   H4B 3115   2.376   5.578   6.859 -0.7397  0.1885  0.5433
   43CHL1    C5 3116   2.356   5.675   7.052 -0.1987 -0.7227  0.7257
   43CHL1    C6 3117   2.353   5.555   7.117 -0.5212 -0.0405  0.1694
   43CHL1    H6 3118   2.346   5.464   7.055 -1.6921 -0.5962  1.0890
   43CHL1    C7 3119   2.350   5.539   7.267  0.0440  0.9068  0.0977
   43CHL1   H7A 3120   2.273   5.463   7.291 -0.7231  1.7647  0.4049
   43CHL1   H7B 3121   2.448   5.495   7.295 -0.7084  0.5185  2.3383
   43CHL1    C8 3122   2.321   5.675   7.332 -0.1780 -0.2952 -0.4759
   43CHL1    H8 3123   2.216   5.700   7.307 -0.4457 -1.9131 -1.0615
   43CHL1   C14 3124   2.352   5.676   7.490  0.7901 -0.4706  1.0996
   43CHL1   H14 3125   2.461   5.654   7.484  0.5890 -1.3683  0.6172
   43CHL1   C15 3126   2.290   5.563   7.574  0.3624 -0.2150 -0.7157
   43CHL1  H15A 3127   2.187   5.548   7.537 -0.3708  0.6719  0.8276
   43CHL1  H15B 3128   2.346   5.467   7.566  0.7236 -0.0424 -0.3275
   43CHL1   C16 3129   2.307   5.611   7.720  0.5108 -0.4339 -0.1117
   43CHL1  H16A 3130   2.209   5.614   7.773  0.9747  1.8781  0.7383
   43CHL1  H16B 3131   2.377   5.550   7.780  0.7508  0.6548  0.7513
   43CHL1   C17 3132   2.355   5.758   7.706 -0.7003  0.1102 -0.0690
   43CHL1   H17 3133   2.466   5.750   7.709 -0.7459 -0.8495 -0.6511
   43CHL1   C13 3134   2.326   5.806   7.560 -0.2249 -0.2789 -0.2077
   43CHL1   C18 3135   2.173   5.837   7.554 -0.5486 -0.2686 -0.8632
   43CHL1  H18A 3136   2.152   5.941   7.586 -1.2351 -0.7470  0.2780
   43CHL1  H18B 3137   2.135   5.822   7.451  0.7540  2.5186 -1.8533
   43CHL1  H18C 3138   2.129   5.779   7.638  0.4532 -0.7185 -0.6363
   43CHL1   C12 3139   2.410   5.925   7.505 -0.2575  0.0567  0.6186
   43CHL1  H12A 3140   2.381   6.024   7.546  3.1463  0.6483  1.9551
   43CHL1  H12B 3141   2.517   5.911   7.531 -0.3629 -1.7850  0.1926
   43CHL1   C11 3142   2.384   5.933   7.351 -0.3137 -0.1497  0.3937
   43CHL1  H11A 3143   2.286   5.980   7.331  0.9972  1.8336 -2.0528
   43CHL1  H11B 3144   2.457   6.008   7.311  0.6581 -2.0896 -1.7325
   43CHL1    C9 3145   2.392   5.798   7.274  0.5410  0.2906 -0.7425
   43CHL1    H9 3146   2.498   5.766   7.270  0.5627  0.3942 -1.1276
   43CHL1   C10 3147   2.362   5.809   7.124 -0.4694  0.0864  0.5807
   43CHL1   C19 3148   2.224   5.880   7.110 -0.5557  0.3870  0.4610
   43CHL1  H19A 3149   2.151   5.840   7.183  0.6407  1.4736  2.3100
   43CHL1  H19B 3150   2.232   5.990   7.116 -0.5136  0.3768  0.5897
   43CHL1  H19C 3151   2.178   5.865   7.009  2.1758  0.7017 -0.9220
   43CHL1    C1 3152   2.468   5.898   7.041 -1.3044  0.8029 -0.2877
   43CHL1   H1A 3153   2.465   6.001   7.082  0.9145 -0.2601  2.9625
   43CHL1   H1B 3154   2.572   5.860   7.052 -1.1736  1.1639 -0.2452
   43CHL1    C2 3155   2.444   5.917   6.888  0.4685  0.3003 -0.1734
   43CHL1   H2A 3156   2.510   5.996   6.846 -1.2707 -0.1902 -4.2243
   43CHL1   H2B 3157   2.337   5.948   6.879  0.2254 -0.2336  0.7337
   43CHL1   C20 3158   2.320   5.845   7.824  0.0664  1.0028 -0.7987
   43CHL1   H20 3159   2.211   5.825   7.828  0.0216  1.0376 -1.6057
   43CHL1   C21 3160   2.340   5.991   7.807 -0.1870  0.3211  0.4534
   43CHL1  H21A 3161   2.441   6.013   7.767 -0.5094 -1.3285 -1.4643
   43CHL1  H21B 3162   2.329   6.045   7.904  2.4590  1.6341  0.1116
   43CHL1  H21C 3163   2.271   6.036   7.732  0.6272 -1.5523 -1.5131
   43CHL1   C22 3164   2.377   5.790   7.962 -0.5343 -0.2679  0.3824
   43CHL1  H22A 3165   2.326   5.849   8.041  1.4948  1.6849  0.3302
   43CHL1  H22B 3166   2.358   5.681   7.972  2.4824 -0.9813 -0.8031
   43CHL1   C23 3167   2.532   5.799   7.984 -0.3978  0.2371  0.0579
   43CHL1  H23A 3168   2.588   5.733   7.915 -3.1561 -2.6867  0.3815
   43CHL1  H23B 3169   2.566   5.903   7.965 -0.3226 -0.4034 -4.5603
   43CHL1   C24 3170   2.585   5.748   8.117 -0.1212  0.0317 -0.2009
   43CHL1  H24A 3171   2.581   5.637   8.116  0.7774 -0.0106 -0.5885
   43CHL1  H24B 3172   2.693   5.773   8.127  0.1512 -0.0125 -2.5604
   43CHL1   C25 3173   2.511   5.804   8.245 -0.1314  0.3456  0.3967
   43CHL1   H25 3174   2.403   5.785   8.227  0.6352 -4.6953 -0.2202
   43CHL1   C26 3175   2.552   5.719   8.363  0.1046 -0.8590 -0.2552
   43CHL1  H26A 3176   2.544   5.773   8.460  2.1635 -0.0157 -0.4938
   43CHL1  H26B 3177   2.485   5.631   8.373 -1.0590  0.0489  0.1409
   43CHL1  H26C 3178   2.657   5.683   8.358  1.3034  2.3862 -1.4873
   43CHL1   C27 3179   2.520   5.956   8.264 -0.4957  0.0220 -0.1303
   43CHL1  H27A 3180   2.489   6.014   8.175  0.2591  0.4471 -0.1293
   43CHL1  H27B 3181   2.473   5.999   8.354  1.2451 -1.0174  1.3581
   43CHL1  H27C 3182   2.627   5.988   8.269  0.1099 -1.3694 -2.4175
   44CHL1    C3 3183   0.535   4.068   6.584  0.0325  0.4824 -0.0433
   44CHL1    H3 3184   0.570   3.963   6.593  0.1595  0.5865  0.7713
   44CHL1    O3 3185   0.539   4.125   6.451  0.0609 -0.6212 -0.6868
   44CHL1   H3' 3186   0.535   4.221   6.462  0.5416 -0.6524 -0.1632
   44CHL1    C4 3187   0.385   4.074   6.628 -0.6404 -0.2319 -0.1124
   44CHL1   H4A 3188   0.344   4.174   6.599  1.6155  1.4415  2.0950
   44CHL1   H4B 3189   0.335   3.996   6.566  1.1688 -1.9488  0.5104
   44CHL1    C5 3190   0.370   4.036   6.782  0.3915 -0.0758  0.7235
   44CHL1    C6 3191   0.289   3.937   6.822 -0.2845  0.2124 -0.3179
   44CHL1    H6 3192   0.220   3.880   6.758  0.3381 -1.4236  0.4212
   44CHL1    C7 3193   0.269   3.909   6.962  0.2206 -0.4904 -0.1842
   44CHL1   H7A 3194   0.158   3.904   6.972  0.1974 -0.8125 -0.5826
   44CHL1   H7B 3195   0.319   3.820   7.006 -0.0855 -1.3484 -1.5102
   44CHL1    C8 3196   0.314   4.026   7.059  0.8744 -0.0322 -0.3046
   44CHL1    H8 3197   0.242   4.110   7.044 -0.5947 -1.1571  0.2025
   44CHL1   C14 3198   0.317   3.973   7.205  0.9896  0.0165  0.2020
   44CHL1   H14 3199   0.402   3.900   7.207  0.7446 -0.3367 -1.1026
   44CHL1   C15 3200   0.191   3.906   7.260 -0.1189 -0.4855 -0.6778
   44CHL1  H15A 3201   0.103   3.969   7.236 -1.0101  0.0487  3.3399
   44CHL1  H15B 3202   0.169   3.802   7.226  1.8714 -1.2657  0.2901
   44CHL1   C16 3203   0.213   3.913   7.407  0.9450  0.8487  0.4442
   44CHL1  H16A 3204   0.123   3.948   7.461  0.7149  1.4180 -0.3017
   44CHL1  H16B 3205   0.238   3.814   7.453  1.3608  1.3047  1.2149
   44CHL1   C17 3206   0.322   4.011   7.440  0.0640  0.4656  0.0825
   44CHL1   H17 3207   0.409   3.946   7.464 -0.8665 -0.9716 -0.3219
   44CHL1   C13 3208   0.354   4.080   7.302  0.3082  0.7801 -0.5869
   44CHL1   C18 3209   0.258   4.208   7.285  0.1733  0.4097  0.2789
   44CHL1  H18A 3210   0.154   4.170   7.279  0.3995  0.0360 -2.6989
   44CHL1  H18B 3211   0.261   4.279   7.370  3.0122  1.9218 -0.9507
   44CHL1  H18C 3212   0.278   4.254   7.186  0.9192  0.0370  0.2525
   44CHL1   C12 3213   0.501   4.111   7.273 -1.3219 -0.2012  0.5392
   44CHL1  H12A 3214   0.539   4.192   7.338 -0.1488  0.6508 -1.1502
   44CHL1  H12B 3215   0.570   4.027   7.295  0.6442  1.4593  1.0348
   44CHL1   C11 3216   0.514   4.162   7.128 -0.2837 -0.0781  0.1890
   44CHL1  H11A 3217   0.456   4.256   7.118  1.7198  1.0153 -2.1798
   44CHL1  H11B 3218   0.619   4.178   7.097 -0.2742 -1.7259 -0.7496
   44CHL1    C9 3219   0.452   4.069   7.018 -0.9096 -0.0180 -0.2443
   44CHL1    H9 3220   0.511   3.974   7.019 -1.3067 -0.3721 -2.9510
   44CHL1   C10 3221   0.470   4.120   6.871 -0.2144 -0.0197 -1.0351
   44CHL1   C19 3222   0.428   4.272   6.868 -0.3993  0.6766  0.6537
   44CHL1  H19A 3223   0.411   4.304   6.763 -0.3576  0.2451  0.5135
   44CHL1  H19B 3224   0.325   4.294   6.905 -1.0968  0.7936 -1.2773
   44CHL1  H19C 3225   0.500   4.347   6.908  1.7630 -0.3459 -1.1075
   44CHL1    C1 3226   0.613   4.106   6.823 -0.3779  0.3210 -0.2774
   44CHL1   H1A 3227   0.689   4.163   6.881  0.1065 -2.0019  1.5445
   44CHL1   H1B 3228   0.647   4.000   6.832  0.4350  0.6919  1.3336
   44CHL1    C2 3229   0.628   4.149   6.681 -0.2067  0.0163  0.9772
   44CHL1   H2A 3230   0.732   4.125   6.651 -0.0601  0.8003  0.8360
   44CHL1   H2B 3231   0.615   4.259   6.671  0.8295 -0.0552 -2.2761
   44CHL1   C20 3232   0.295   4.106   7.563 -0.1244  0.3276  0.3452
   44CHL1   H20 3233   0.203   4.164   7.542 -0.0247  0.6848  0.8712
   44CHL1   C21 3234   0.426   4.183   7.588  0.2478 -0.5310 -0.4587
   44CHL1  H21A 3235   0.519   4.121   7.586  0.8309  0.3033  0.1060
   44CHL1  H21B 3236   0.423   4.242   7.682  0.7380 -0.7216 -0.3193
   44CHL1  H21C 3237   0.453   4.260   7.513  0.7286  0.5266  0.7596
   44CHL1   C22 3238   0.252   4.030   7.688  0.1971  0.0493 -0.2735
   44CHL1  H22A 3239   0.172   3.955   7.670 -0.3127  0.2663  1.0015
   44CHL1  H22B 3240   0.338   3.974   7.733 -1.6336 -0.6109  2.6998
   44CHL1   C23 3241   0.199   4.107   7.805 -0.1646 -0.7922 -0.8433
   44CHL1  H23A 3242   0.230   4.213   7.798  1.0251 -1.0204  0.4434
   44CHL1  H23B 3243   0.090   4.125   7.791  0.1459  0.5994 -1.6437
   44CHL1   C24 3244   0.230   4.053   7.944 -0.0895  0.1192  0.0849
   44CHL1  H24A 3245   0.194   3.949   7.963  1.4528 -0.2545  1.1627
   44CHL1  H24B 3246   0.341   4.061   7.944 -0.0972  0.6091 -1.7218
   44CHL1   C25 3247   0.181   4.147   8.055 -0.4432  1.1290  0.1660
   44CHL1   H25 3248   0.216   4.250   8.032 -2.5606  2.1461  1.2615
   44CHL1   C26 3249   0.027   4.155   8.063 -0.0051 -0.2418  0.4174
   44CHL1  H26A 3250  -0.001   4.207   7.969  0.2673 -0.3095  0.2987
   44CHL1  H26B 3251  -0.028   4.060   8.078  0.7006 -0.3125  3.0267
   44CHL1  H26C 3252  -0.002   4.212   8.154  0.7354  1.2239 -0.2338
   44CHL1   C27 3253   0.229   4.120   8.193  0.1054  0.9546  0.3577
   44CHL1  H27A 3254   0.187   4.193   8.266  2.0630  0.8649  1.6506
   44CHL1  H27B 3255   0.187   4.019   8.214  1.4029  0.3600  0.1805
   44CHL1  H27C 3256   0.340   4.115   8.196  0.0369 -1.5717  1.6125
   45CHL1    C3 3257   1.098   2.042   6.693 -0.6772 -0.0154  0.2547
   45CHL1    H3 3258   1.122   2.148   6.719  0.5049 -0.4407  0.9435
   45CHL1    O3 3259   1.086   2.046   6.553 -0.1556  0.1967  0.4793
   45CHL1   H3' 3260   1.039   1.969   6.519 -0.3476  0.3222  0.4588
   45CHL1    C4 3261   1.219   1.950   6.739 -0.1685  0.2235  0.0042
   45CHL1   H4A 3262   1.197   1.843   6.720 -0.3577  0.1341  0.7110
   45CHL1   H4B 3263   1.311   1.975   6.681  0.0633 -0.4453  0.0717
   45CHL1    C5 3264   1.240   1.969   6.889  0.4280  0.2366 -0.6746
   45CHL1    C6 3265   1.356   2.010   6.939  0.3849  0.5739  0.6831
   45CHL1    H6 3266   1.444   2.022   6.875 -0.2236 -0.4367 -0.3866
   45CHL1    C7 3267   1.387   2.030   7.091  0.4125  0.0325 -0.3495
   45CHL1   H7A 3268   1.486   1.989   7.121  1.0023  0.9106 -1.0138
   45CHL1   H7B 3269   1.385   2.137   7.119 -0.7621 -0.5522  2.0612
   45CHL1    C8 3270   1.272   1.960   7.176 -0.1844  1.1616 -0.2958
   45CHL1    H8 3271   1.275   1.849   7.175  2.0442  1.0522  2.7661
   45CHL1   C14 3272   1.290   1.995   7.325 -0.6016  0.0397 -0.5445
   45CHL1   H14 3273   1.286   2.105   7.344 -0.0431 -0.2859  1.6574
   45CHL1   C15 3274   1.430   1.959   7.382 -0.1971 -0.1840 -0.7444
   45CHL1  H15A 3275   1.465   1.856   7.359  0.1496 -0.6252  1.5639
   45CHL1  H15B 3276   1.509   2.032   7.357  1.0067 -0.6797  1.3801
   45CHL1   C16 3277   1.395   1.973   7.531  0.0556 -0.4110  0.3677
   45CHL1  H16A 3278   1.419   1.879   7.587  0.2288 -0.5316  0.0922
   45CHL1  H16B 3279   1.448   2.055   7.584  0.3304  0.0958 -0.6742
   45CHL1   C17 3280   1.245   1.999   7.548  1.1018 -0.1424 -0.1209
   45CHL1   H17 3281   1.229   2.109   7.549 -0.3951 -0.2752 -2.3755
   45CHL1   C13 3282   1.183   1.948   7.415  0.7235 -0.7419 -0.7002
   45CHL1   C18 3283   1.181   1.795   7.424  0.1555 -0.0987 -0.2244
   45CHL1  H18A 3284   1.110   1.753   7.498 -0.0426  0.8369  0.1362
   45CHL1  H18B 3285   1.155   1.744   7.329  1.5505  0.7724 -1.1119
   45CHL1  H18C 3286   1.285   1.766   7.450  0.8757 -0.6342 -3.3387
   45CHL1   C12 3287   1.042   2.013   7.372 -0.6119 -0.5110 -0.4831
   45CHL1  H12A 3288   0.961   1.979   7.440  1.6840 -1.4563  1.9515
   45CHL1  H12B 3289   1.058   2.122   7.389 -0.8508 -0.6304  0.5933
   45CHL1   C11 3290   1.015   1.985   7.220  0.1231 -0.6226  0.7966
   45CHL1  H11A 3291   0.986   1.878   7.221 -1.1308 -0.3003  1.0168
   45CHL1  H11B 3292   0.927   2.032   7.172  0.4501  0.4732  1.2370
   45CHL1    C9 3293   1.140   2.002   7.119  0.7243  0.1015 -0.2930
   45CHL1    H9 3294   1.153   2.111   7.100  0.8011 -0.0549 -1.1689
   45CHL1   C10 3295   1.114   1.962   6.978  0.0432 -0.7856  1.0507
   45CHL1   C19 3296   1.071   1.818   6.976 -0.0322  0.5174 -0.5787
   45CHL1  H19A 3297   1.042   1.775   6.878 -2.9910 -0.2932  0.5264
   45CHL1  H19B 3298   1.151   1.755   7.021  0.4401  1.9681  0.6981
   45CHL1  H19C 3299   0.978   1.804   7.036  0.3054 -1.4278 -0.4621
   45CHL1    C1 3300   0.982   2.037   6.918 -0.1492  0.3109  0.5497
   45CHL1   H1A 3301   0.901   1.980   6.968 -0.5397  0.2579 -0.1281
   45CHL1   H1B 3302   0.989   2.142   6.955  1.2983 -0.8894  4.1070
   45CHL1    C2 3303   0.962   2.018   6.766 -0.3616 -0.2313  0.0044
   45CHL1   H2A 3304   0.868   2.063   6.728  0.3056  0.3539 -0.9910
   45CHL1   H2B 3305   0.939   1.909   6.761  0.9748 -0.5039 -0.6914
   45CHL1   C20 3306   1.197   1.944   7.689  0.3870 -0.3566 -0.0545
   45CHL1   H20 3307   1.201   1.833   7.690  0.4415 -0.3640  1.8465
   45CHL1   C21 3308   1.056   1.999   7.716 -0.0399 -0.0008 -0.2133
   45CHL1  H21A 3309   1.000   1.968   7.808 -1.7222  0.3350 -1.0754
   45CHL1  H21B 3310   0.990   1.962   7.635  1.4902  0.8371 -1.9066
   45CHL1  H21C 3311   1.060   2.110   7.721 -0.8194  0.0707 -0.8345
   45CHL1   C22 3312   1.288   1.977   7.807  0.1208 -0.1783 -0.2118
   45CHL1  H22A 3313   1.392   1.945   7.780  0.0403 -0.7082  0.0972
   45CHL1  H22B 3314   1.291   2.083   7.839 -0.8159 -0.3899  0.6308
   45CHL1   C23 3315   1.258   1.889   7.923 -0.3614 -0.2019 -0.1114
   45CHL1  H23A 3316   1.150   1.892   7.949 -0.0683 -0.6748  1.2281
   45CHL1  H23B 3317   1.282   1.782   7.909  0.0097  0.1215 -2.2913
   45CHL1   C24 3318   1.348   1.929   8.039 -0.7688 -0.2341  0.5070
   45CHL1  H24A 3319   1.447   1.890   8.007 -1.2598  0.0735 -1.5376
   45CHL1  H24B 3320   1.357   2.039   8.053  1.1601 -0.6579  3.3811
   45CHL1   C25 3321   1.296   1.867   8.169 -0.5292 -0.7854  0.0485
   45CHL1   H25 3322   1.278   1.759   8.147  1.1052 -1.1987  0.5918
   45CHL1   C26 3323   1.403   1.880   8.280  0.0232 -0.1973  0.0587
   45CHL1  H26A 3324   1.361   1.870   8.382  1.5526  0.9325  0.8482
   45CHL1  H26B 3325   1.482   1.801   8.280  0.2191 -0.0124  0.6376
   45CHL1  H26C 3326   1.455   1.977   8.264 -1.1612  0.3837 -0.3269
   45CHL1   C27 3327   1.174   1.942   8.226 -0.2084  0.4177 -0.5540
   45CHL1  H27A 3328   1.131   1.899   8.319 -1.2865  0.1587 -1.1459
   45CHL1  H27B 3329   1.203   2.048   8.242  1.4678 -0.0696 -0.2291
   45CHL1  H27C 3330   1.095   1.930   8.148 -0.0744 -1.9113 -0.4135
   46CHL1    C3 3331   1.935   3.349   7.038  0.3856  0.2048 -0.0867
   46CHL1    H3 3332   1.995   3.442   7.031 -0.7541  0.8061 -3.8954
   46CHL1    O3 3333   1.938   3.304   6.904 -0.1194  0.0196 -0.8893
   46CHL1   H3' 3334   1.882   3.226   6.900  2.0444 -1.8453  1.2954
   46CHL1    C4 3335   2.007   3.250   7.128 -0.3822  0.3188  0.3747
   46CHL1   H4A 3336   1.959   3.150   7.120  0.6170 -0.0521 -1.5822
   46CHL1   H4B 3337   2.108   3.229   7.088 -0.6732 -0.7306  0.1619
   46CHL1    C5 3338   2.000   3.298   7.273 -0.3446  0.3695 -0.4428
   46CHL1    C6 3339   2.111   3.315   7.342  0.2817 -0.2930 -0.4169
   46CHL1    H6 3340   2.204   3.293   7.287 -1.1796 -0.0995 -3.1526
   46CHL1    C7 3341   2.125   3.346   7.487 -0.1093 -0.4568  0.4361
   46CHL1   H7A 3342   2.183   3.265   7.538 -1.5769 -0.7806  1.6603
   46CHL1   H7B 3343   2.166   3.449   7.490  1.5679 -0.9103 -2.8070
   46CHL1    C8 3344   1.988   3.336   7.557  0.1210 -0.1672  0.3066
   46CHL1    H8 3345   1.977   3.226   7.555  3.3241 -0.5807 -1.7873
   46CHL1   C14 3346   1.996   3.400   7.693  0.6218  0.1788 -0.7353
   46CHL1   H14 3347   2.006   3.510   7.688 -4.4457  0.8186 -1.6157
   46CHL1   C15 3348   2.111   3.360   7.793 -0.2925  0.3130 -0.1776
   46CHL1  H15A 3349   2.125   3.250   7.787  0.6956  0.3031  1.6439
   46CHL1  H15B 3350   2.208   3.408   7.767 -0.1694  0.5047  0.6028
   46CHL1   C16 3351   2.065   3.399   7.929  0.2137 -0.1089 -0.1703
   46CHL1  H16A 3352   2.077   3.311   7.997  2.2995 -1.2239 -1.8410
   46CHL1  H16B 3353   2.120   3.486   7.971  3.3051 -1.7433 -0.5298
   46CHL1   C17 3354   1.914   3.430   7.916  0.0934 -0.3239 -0.4566
   46CHL1   H17 3355   1.908   3.541   7.909  0.6979 -0.1239  1.6424
   46CHL1   C13 3356   1.867   3.375   7.776  0.3686 -0.2689 -0.5716
   46CHL1   C18 3357   1.845   3.224   7.786 -0.0560  0.5900 -0.1843
   46CHL1  H18A 3358   1.742   3.223   7.829 -0.7759  1.1515 -1.8226
   46CHL1  H18B 3359   1.831   3.160   7.696 -0.7896 -0.6963  0.8009
   46CHL1  H18C 3360   1.915   3.176   7.857  0.4168 -0.2303 -1.1847
   46CHL1   C12 3361   1.759   3.448   7.703  0.5905 -0.0744  0.5829
   46CHL1  H12A 3362   1.659   3.437   7.750  0.3604  0.4233  0.2187
   46CHL1  H12B 3363   1.784   3.555   7.689 -1.2157  0.2357 -0.6031
   46CHL1   C11 3364   1.744   3.399   7.558 -0.4830 -0.8021  0.0254
   46CHL1  H11A 3365   1.705   3.296   7.560  1.6734 -1.6675  1.6241
   46CHL1  H11B 3366   1.677   3.472   7.507  1.3603  1.1724  0.2902
   46CHL1    C9 3367   1.871   3.395   7.474 -0.3133 -0.4070 -0.7504
   46CHL1    H9 3368   1.903   3.499   7.455  0.4874 -0.8201 -1.7736
   46CHL1   C10 3369   1.861   3.323   7.336 -0.4291 -0.2895 -0.4719
   46CHL1   C19 3370   1.792   3.183   7.358 -0.9985  0.2205  0.0975
   46CHL1  H19A 3371   1.858   3.116   7.417 -0.1489 -0.1539 -1.2262
   46CHL1  H19B 3372   1.688   3.189   7.395 -0.4371  1.2061  1.6381
   46CHL1  H19C 3373   1.781   3.141   7.256 -3.6122 -0.1896  0.4950
   46CHL1    C1 3374   1.781   3.415   7.232 -0.8015  0.1458  0.0351
   46CHL1   H1A 3375   1.677   3.425   7.270 -1.4441 -1.2976 -1.2661
   46CHL1   H1B 3376   1.826   3.517   7.242  2.3369 -1.3310  2.9193
   46CHL1    C2 3377   1.792   3.372   7.085  0.6244  0.3976  0.1324
   46CHL1   H2A 3378   1.736   3.433   7.012  0.3675 -1.3587 -1.1976
   46CHL1   H2B 3379   1.744   3.272   7.076  1.7655 -0.0556 -1.3725
   46CHL1   C20 3380   1.832   3.395   8.046 -0.5653 -0.7256 -0.3608
   46CHL1   H20 3381   1.821   3.285   8.046  0.7422 -0.8779 -0.1705
   46CHL1   C21 3382   1.708   3.478   8.052  0.1036 -0.7235 -0.0529
   46CHL1  H21A 3383   1.633   3.452   8.129 -1.8826 -1.3265 -2.1033
   46CHL1  H21B 3384   1.650   3.465   7.959 -1.8192 -0.9430  1.1331
   46CHL1  H21C 3385   1.730   3.587   8.056 -0.2552 -0.5090 -2.6141
   46CHL1   C22 3386   1.917   3.433   8.177 -0.1355  1.0337  0.3401
   46CHL1  H22A 3387   2.000   3.362   8.195 -2.2250 -2.0462 -1.1439
   46CHL1  H22B 3388   1.957   3.536   8.169 -0.4841  1.2079  0.8401
   46CHL1   C23 3389   1.835   3.430   8.306  0.8681 -0.0048 -0.7666
   46CHL1  H23A 3390   1.761   3.513   8.303  1.3055  0.4179 -0.2665
   46CHL1  H23B 3391   1.776   3.336   8.304  2.9829 -1.4196 -0.3498
   46CHL1   C24 3392   1.915   3.433   8.433  0.5428  0.2901  0.1255
   46CHL1  H24A 3393   1.958   3.334   8.460  0.9928  0.6978  0.9643
   46CHL1  H24B 3394   2.007   3.492   8.411  1.4463 -0.8112  0.8031
   46CHL1   C25 3395   1.821   3.488   8.546 -0.2471  0.7782  0.1128
   46CHL1   H25 3396   1.718   3.449   8.533  0.6035 -1.6635  0.1934
   46CHL1   C26 3397   1.871   3.427   8.681  0.2514  0.3332 -0.4728
   46CHL1  H26A 3398   1.968   3.481   8.686 -0.8983  2.5781 -1.1090
   46CHL1  H26B 3399   1.802   3.454   8.763 -0.9349 -0.8038 -1.0507
   46CHL1  H26C 3400   1.895   3.318   8.679 -1.4883 -0.0817 -2.1036
   46CHL1   C27 3401   1.808   3.641   8.548 -0.0341 -0.3391  0.5400
   46CHL1  H27A 3402   1.756   3.675   8.640 -0.5516 -1.3615  0.6393
   46CHL1  H27B 3403   1.903   3.699   8.541 -0.0824 -0.4101 -1.1484
   46CHL1  H27C 3404   1.749   3.674   8.459  2.7910  0.5271 -1.1296
   47CHL1    C3 3405   1.629   3.661   6.703  0.9987 -0.2364  0.2241
   47CHL1    H3 3406   1.678   3.564   6.729 -1.3415 -1.3009  0.8876
   47CHL1    O3 3407   1.624   3.674   6.562  0.0966  0.1659 -0.1645
   47CHL1   H3' 3408   1.569   3.752   6.557  0.3700  0.4348  0.7068
   47CHL1    C4 3409   1.484   3.660   6.759  0.7349  1.0326 -0.6400
   47CHL1   H4A 3410   1.427   3.750   6.726  0.0926  0.9886  0.2813
   47CHL1   H4B 3411   1.438   3.573   6.708  0.8159  1.0345 -0.7161
   47CHL1    C5 3412   1.479   3.661   6.909  0.9948  0.4833 -0.6952
   47CHL1    C6 3413   1.414   3.562   6.979  0.1337 -0.0094  0.8564
   47CHL1    H6 3414   1.353   3.485   6.930  0.3266  0.2508  0.1888
   47CHL1    C7 3415   1.402   3.560   7.127 -0.4346  0.1804  0.5255
   47CHL1   H7A 3416   1.301   3.540   7.168 -0.1135  1.7793  2.2109
   47CHL1   H7B 3417   1.462   3.477   7.169 -1.6089 -1.2857 -0.5768
   47CHL1    C8 3418   1.446   3.692   7.193  0.1175 -0.5528  0.3927
   47CHL1    H8 3419   1.362   3.760   7.167  1.4539  0.6444 -0.9452
   47CHL1   C14 3420   1.458   3.674   7.343  0.4249 -0.3490 -0.2385
   47CHL1   H14 3421   1.538   3.600   7.362 -0.9946 -1.8851 -0.0908
   47CHL1   C15 3422   1.342   3.614   7.413  1.3551  0.0835  0.0687
   47CHL1  H15A 3423   1.244   3.656   7.382  0.5153 -1.5863  0.3967
   47CHL1  H15B 3424   1.343   3.503   7.406  2.4390  0.1022 -0.2819
   47CHL1   C16 3425   1.360   3.658   7.556  0.4332 -0.3605 -0.0438
   47CHL1  H16A 3426   1.279   3.724   7.593  1.1852  1.3982 -1.3925
   47CHL1  H16B 3427   1.368   3.572   7.626 -0.0661 -1.2596 -1.0606
   47CHL1   C17 3428   1.495   3.743   7.564  0.2404  0.4071  0.7594
   47CHL1   H17 3429   1.575   3.667   7.578 -0.1998  0.2574  2.6004
   47CHL1   C13 3430   1.508   3.796   7.416  0.7280  0.5532 -0.5331
   47CHL1   C18 3431   1.403   3.912   7.397  0.2709  0.3673  0.2591
   47CHL1  H18A 3432   1.297   3.880   7.408  0.2866  0.9022  2.5595
   47CHL1  H18B 3433   1.416   3.990   7.476 -1.7875  0.4823  0.5432
   47CHL1  H18C 3434   1.422   3.962   7.300 -0.3392  1.0076  0.4600
   47CHL1   C12 3435   1.647   3.828   7.364  0.4039 -1.0832  0.3164
   47CHL1  H12A 3436   1.677   3.929   7.400 -0.3088 -0.3388 -1.0966
   47CHL1  H12B 3437   1.728   3.756   7.388  2.5451  0.0784 -2.8059
   47CHL1   C11 3438   1.641   3.849   7.216 -0.3046  0.0432  0.5413
   47CHL1  H11A 3439   1.601   3.948   7.186 -1.2260 -0.6252 -0.5194
   47CHL1  H11B 3440   1.745   3.857   7.177 -0.2725  2.6405  1.0106
   47CHL1    C9 3441   1.573   3.742   7.131 -0.1393 -0.4645 -0.1426
   47CHL1    H9 3442   1.634   3.649   7.137 -0.0905 -0.4138  0.1656
   47CHL1   C10 3443   1.559   3.771   6.978 -0.5075  0.2713 -0.1978
   47CHL1   C19 3444   1.481   3.898   6.948  0.2559  0.1403  0.3048
   47CHL1  H19A 3445   1.382   3.895   7.000  0.7754  0.3276  1.3392
   47CHL1  H19B 3446   1.533   3.991   6.980 -1.0906  1.3586 -0.9144
   47CHL1  H19C 3447   1.470   3.920   6.840  0.8659  0.2545  0.2598
   47CHL1    C1 3448   1.705   3.790   6.909 -0.3212  0.3273  0.4171
   47CHL1   H1A 3449   1.748   3.888   6.939 -0.3010  0.0929  1.1919
   47CHL1   H1B 3450   1.755   3.697   6.944  1.0258  0.5450 -0.8375
   47CHL1    C2 3451   1.702   3.782   6.754  0.1770 -0.0672  0.6131
   47CHL1   H2A 3452   1.802   3.790   6.708  0.0071  2.2030  0.4917
   47CHL1   H2B 3453   1.656   3.876   6.716  0.4166  0.0316  0.5646
   47CHL1   C20 3454   1.501   3.837   7.679  0.3031 -0.1275 -0.3624
   47CHL1   H20 3455   1.404   3.891   7.675  0.3718  0.0055 -0.2045
   47CHL1   C21 3456   1.615   3.941   7.674 -0.3343  0.3615  0.5115
   47CHL1  H21A 3457   1.715   3.892   7.673 -0.9643 -0.9828 -0.5938
   47CHL1  H21B 3458   1.617   4.021   7.751  0.3198 -0.4433  1.3353
   47CHL1  H21C 3459   1.615   4.002   7.580  3.3121  0.5895  0.5111
   47CHL1   C22 3460   1.513   3.764   7.815 -0.3783  0.4389 -0.0034
   47CHL1  H22A 3461   1.448   3.675   7.823 -0.5000  0.5442  0.2008
   47CHL1  H22B 3462   1.620   3.742   7.834 -0.3140 -1.3497 -2.1401
   47CHL1   C23 3463   1.469   3.851   7.937  0.3712  0.1999 -0.4502
   47CHL1  H23A 3464   1.536   3.940   7.937 -0.2983  0.7255  0.5856
   47CHL1  H23B 3465   1.365   3.886   7.917 -0.1247 -1.0367 -0.1115
   47CHL1   C24 3466   1.474   3.784   8.069  0.2845 -0.6555 -0.3200
   47CHL1  H24A 3467   1.377   3.732   8.085  0.4103 -0.6833  0.3684
   47CHL1  H24B 3468   1.557   3.710   8.067 -1.2681 -2.4669 -0.5389
   47CHL1   C25 3469   1.466   3.871   8.195 -0.0835 -0.2540  0.1636
   47CHL1   H25 3470   1.554   3.939   8.194  0.4303 -0.8984  0.6367
   47CHL1   C26 3471   1.344   3.973   8.196  0.3654 -0.3005 -0.6593
   47CHL1  H26A 3472   1.385   4.061   8.142  3.9907 -2.2679 -1.4576
   47CHL1  H26B 3473   1.248   3.934   8.158 -1.5539  1.3704  2.0513
   47CHL1  H26C 3474   1.311   3.996   8.300  0.1506 -1.3168 -0.4955
   47CHL1   C27 3475   1.475   3.790   8.315  0.1319  0.5029  0.8008
   47CHL1  H27A 3476   1.486   3.849   8.409  0.3902  1.8803 -0.0779
   47CHL1  H27B 3477   1.393   3.717   8.330  0.2282  0.3670  0.6608
   47CHL1  H27C 3478   1.563   3.722   8.308 -1.0938 -1.1198  0.4282
   48CHL1    C3 3479   5.320   5.637   6.417  0.0308  0.3715  1.0326
   48CHL1    H3 3480   5.259   5.719   6.372  1.9241  1.2750 -0.0036
   48CHL1    O3 3481   5.369   5.559   6.313  0.1224 -0.0049 -0.0098
   48CHL1   H3' 3482   5.452   5.530   6.351 -0.5860 -1.8408  0.2554
   48CHL1    C4 3483   5.432   5.705   6.495  0.2539 -0.2151 -0.1740
   48CHL1   H4A 3484   5.515   5.635   6.520 -0.9766 -2.9808 -3.1988
   48CHL1   H4B 3485   5.484   5.778   6.430  2.2547 -0.6965  0.8036
   48CHL1    C5 3486   5.385   5.772   6.618 -0.2793  0.6226 -0.5433
   48CHL1    C6 3487   5.425   5.902   6.640  0.0437 -0.6255  0.9107
   48CHL1    H6 3488   5.476   5.955   6.558  1.0990 -2.1433  0.5453
   48CHL1    C7 3489   5.394   5.977   6.767  0.4283  0.0484  0.0220
   48CHL1   H7A 3490   5.482   6.040   6.792  0.1626  0.8452 -0.9855
   48CHL1   H7B 3491   5.310   6.048   6.753  0.8699  0.5474 -0.1176
   48CHL1    C8 3492   5.356   5.886   6.878  0.0497  0.7701  0.4513
   48CHL1    H8 3493   5.442   5.827   6.915 -2.1233 -1.8187  1.8057
   48CHL1   C14 3494   5.294   5.969   6.989 -0.9628  0.7992  0.8699
   48CHL1   H14 3495   5.201   6.013   6.948 -1.7543 -1.5200 -0.0307
   48CHL1   C15 3496   5.381   6.079   7.039  0.0372  1.0865  0.4636
   48CHL1  H15A 3497   5.487   6.048   7.046 -0.3196  0.0560  1.8488
   48CHL1  H15B 3498   5.373   6.177   6.987  2.4504  0.9499 -0.2883
   48CHL1   C16 3499   5.313   6.096   7.179 -0.5639  0.0437 -0.0895
   48CHL1  H16A 3500   5.397   6.081   7.250  0.4256 -0.4143 -1.3163
   48CHL1  H16B 3501   5.275   6.198   7.204  3.1213  1.0627  2.0422
   48CHL1   C17 3502   5.207   5.999   7.212 -0.3129 -0.3103  0.6987
   48CHL1   H17 3503   5.113   6.046   7.175  0.6448  0.3951 -0.9175
   48CHL1   C13 3504   5.238   5.889   7.113  0.6572  0.4455  0.6549
   48CHL1   C18 3505   5.345   5.798   7.171  1.2165  0.2835 -0.9397
   48CHL1  H18A 3506   5.388   5.733   7.092  1.8205 -0.1931 -0.2248
   48CHL1  H18B 3507   5.424   5.841   7.237  0.8587 -0.3074 -0.1165
   48CHL1  H18C 3508   5.300   5.727   7.243 -2.6642  1.2345 -2.1931
   48CHL1   C12 3509   5.121   5.806   7.058 -0.3779 -0.0601  0.7606
   48CHL1  H12A 3510   5.072   5.743   7.135 -2.4055 -0.8453 -1.0844
   48CHL1  H12B 3511   5.034   5.866   7.023 -0.0384 -0.0388 -0.0818
   48CHL1   C11 3512   5.166   5.711   6.939  0.3988  0.2322  0.6115
   48CHL1  H11A 3513   5.235   5.633   6.978 -0.1409  0.0318  1.2004
   48CHL1  H11B 3514   5.076   5.668   6.889  0.9168 -0.3779  0.1938
   48CHL1    C9 3515   5.248   5.785   6.831 -0.0973 -0.5891  0.3160
   48CHL1    H9 3516   5.172   5.846   6.777  0.0610 -1.9402 -1.5488
   48CHL1   C10 3517   5.312   5.688   6.722  0.2284 -0.4244 -0.2141
   48CHL1   C19 3518   5.417   5.585   6.776  0.4369  0.2362 -0.5425
   48CHL1  H19A 3519   5.361   5.502   6.824 -1.4591  0.9820 -1.4143
   48CHL1  H19B 3520   5.475   5.533   6.697 -1.0595  0.2584 -1.6819
   48CHL1  H19C 3521   5.488   5.633   6.847 -0.8792 -1.1744  1.8588
   48CHL1    C1 3522   5.199   5.609   6.644  0.4780 -0.1044 -0.1308
   48CHL1   H1A 3523   5.152   5.533   6.710  2.1210 -0.6477  0.4672
   48CHL1   H1B 3524   5.115   5.677   6.617 -2.0501 -2.3144  1.6693
   48CHL1    C2 3525   5.241   5.543   6.513 -0.0674 -0.1356 -0.3072
   48CHL1   H2A 3526   5.149   5.512   6.459 -0.2378 -2.3714  1.1549
   48CHL1   H2B 3527   5.320   5.468   6.534  0.4391  0.9437  2.0944
   48CHL1   C20 3528   5.209   5.967   7.366  0.0880  0.8555 -0.9255
   48CHL1   H20 3529   5.307   5.918   7.387  0.4951  1.6407 -0.9303
   48CHL1   C21 3530   5.094   5.867   7.403  0.3760  0.5020  1.3436
   48CHL1  H21A 3531   5.095   5.775   7.341 -2.2313  0.5205  1.1497
   48CHL1  H21B 3532   4.997   5.921   7.395  0.2723  0.5828  2.7939
   48CHL1  H21C 3533   5.112   5.829   7.506 -0.6417 -2.2148  0.6111
   48CHL1   C22 3534   5.205   6.089   7.468 -0.3952 -0.9039 -0.1361
   48CHL1  H22A 3535   5.273   6.171   7.438 -2.7253  1.2025  0.0561
   48CHL1  H22B 3536   5.107   6.137   7.452  0.5691  1.0464 -0.4307
   48CHL1   C23 3537   5.226   6.061   7.614  0.6415  0.2462 -0.5582
   48CHL1  H23A 3538   5.136   5.997   7.629  1.0346 -0.0064  0.8798
   48CHL1  H23B 3539   5.315   6.004   7.649  0.8808  1.1834  0.4338
   48CHL1   C24 3540   5.216   6.187   7.693 -0.3129 -0.0302 -0.1730
   48CHL1  H24A 3541   5.277   6.258   7.632  1.2378 -1.5252 -0.4544
   48CHL1  H24B 3542   5.112   6.224   7.707 -0.1036  0.6177 -0.2866
   48CHL1   C25 3543   5.265   6.179   7.837  0.8740  0.0862  0.3863
   48CHL1   H25 3544   5.372   6.155   7.818  0.6427  1.6198 -3.8121
   48CHL1   C26 3545   5.258   6.317   7.901 -0.8722 -0.0888  0.2448
   48CHL1  H26A 3546   5.325   6.324   7.990  1.4599  0.4186 -1.4637
   48CHL1  H26B 3547   5.297   6.392   7.830  0.1967  0.8887  1.8169
   48CHL1  H26C 3548   5.153   6.333   7.935 -1.2160 -1.4889 -0.0604
   48CHL1   C27 3549   5.184   6.064   7.908  0.0432  0.4557 -0.6156
   48CHL1  H27A 3550   5.200   5.965   7.861  2.2513  0.4223  0.0882
   48CHL1  H27B 3551   5.204   6.045   8.016  0.1974 -1.5384 -0.9601
   48CHL1  H27C 3552   5.077   6.092   7.896 -0.5219 -0.7256  1.1952
   49CHL1    C3 3553   3.514   0.769   6.611 -0.4825  0.3389 -0.4269
   49CHL1    H3 3554   3.623   0.747   6.619 -0.7229 -0.2011  3.0389
   49CHL1    O3 3555   3.482   0.814   6.477 -0.3829  0.2919  0.1002
   49CHL1   H3' 3556   3.388   0.803   6.462 -0.5795  1.0169  0.7217
   49CHL1    C4 3557   3.448   0.637   6.656  0.2572  0.6059  0.4747
   49CHL1   H4A 3558   3.337   0.641   6.666  0.4910  1.0475  4.3734
   49CHL1   H4B 3559   3.478   0.560   6.582 -0.2336  0.5892  0.2913
   49CHL1    C5 3560   3.472   0.596   6.803  0.2886  0.2823 -0.0518
   49CHL1    C6 3561   3.515   0.474   6.835  0.0817 -0.3140  0.3740
   49CHL1    H6 3562   3.539   0.401   6.756 -1.3861  0.4060 -0.7892
   49CHL1    C7 3563   3.539   0.430   6.976 -0.7381 -0.1847  0.3727
   49CHL1   H7A 3564   3.505   0.325   6.983  1.2400 -0.8131  1.1160
   49CHL1   H7B 3565   3.648   0.425   6.993 -0.7002  1.2471  0.6951
   49CHL1    C8 3566   3.476   0.528   7.084  0.4226 -0.1805 -0.2258
   49CHL1    H8 3567   3.373   0.492   7.103  0.0869  0.5169 -0.6745
   49CHL1   C14 3568   3.548   0.514   7.220 -0.0901 -0.1443 -0.2820
   49CHL1   H14 3569   3.654   0.542   7.203 -0.7339  1.8693 -1.2886
   49CHL1   C15 3570   3.552   0.365   7.266 -0.0391  0.2515 -0.0725
   49CHL1  H15A 3571   3.448   0.325   7.265  0.3166 -0.7079  0.1591
   49CHL1  H15B 3572   3.619   0.297   7.208  0.1971 -0.2091  0.7196
   49CHL1   C16 3573   3.594   0.392   7.413 -0.9361 -0.2995 -0.0587
   49CHL1  H16A 3574   3.533   0.334   7.486 -1.3242 -0.0856 -0.2080
   49CHL1  H16B 3575   3.696   0.350   7.429 -0.9842  0.2215  1.7939
   49CHL1   C17 3576   3.586   0.545   7.448  1.0212 -0.2197 -0.3797
   49CHL1   H17 3577   3.685   0.591   7.423  1.3552 -2.0593 -2.8543
   49CHL1   C13 3578   3.489   0.593   7.338 -0.0911 -0.3368  0.3214
   49CHL1   C18 3579   3.339   0.563   7.378 -0.2187 -0.2367  0.6691
   49CHL1  H18A 3580   3.285   0.654   7.409 -2.4310 -1.0432 -0.5816
   49CHL1  H18B 3581   3.280   0.514   7.297  1.5053  0.9441 -1.4091
   49CHL1  H18C 3582   3.327   0.485   7.456  0.5119 -1.5625 -0.4887
   49CHL1   C12 3583   3.507   0.741   7.296 -0.0310 -0.0931  0.4555
   49CHL1  H12A 3584   3.482   0.819   7.372 -0.5889 -1.7551  2.0582
   49CHL1  H12B 3585   3.614   0.762   7.274  0.0222  1.0162  1.6669
   49CHL1   C11 3586   3.433   0.775   7.160 -0.4242  0.5259 -0.6141
   49CHL1  H11A 3587   3.324   0.755   7.165 -0.4154  0.6322  0.1553
   49CHL1  H11B 3588   3.450   0.879   7.124  1.2799  0.7909  0.8177
   49CHL1    C9 3589   3.486   0.680   7.039  0.5055  0.3440 -0.6578
   49CHL1    H9 3590   3.596   0.697   7.042  1.0226 -2.5777  1.8123
   49CHL1   C10 3591   3.436   0.709   6.899 -0.5723  0.2221 -0.4751
   49CHL1   C19 3592   3.285   0.729   6.901  0.2651 -0.4389 -0.1866
   49CHL1  H19A 3593   3.241   0.755   6.802  0.8276 -1.1602 -0.6367
   49CHL1  H19B 3594   3.241   0.631   6.928 -0.5443 -0.5755 -1.8910
   49CHL1  H19C 3595   3.249   0.806   6.974 -1.5452 -1.1497 -0.2726
   49CHL1    C1 3596   3.513   0.839   6.854 -0.5760 -0.1261 -0.3645
   49CHL1   H1A 3597   3.485   0.928   6.914 -2.7566 -1.1259  0.2183
   49CHL1   H1B 3598   3.623   0.824   6.853 -0.5801 -0.5486  1.5490
   49CHL1    C2 3599   3.477   0.883   6.711  0.7235  0.9813  0.3567
   49CHL1   H2A 3600   3.543   0.968   6.684  0.2529  1.0868 -0.4958
   49CHL1   H2B 3601   3.368   0.900   6.702  0.9437  1.4715 -1.9879
   49CHL1   C20 3602   3.548   0.568   7.600 -0.0784  0.6841 -0.4264
   49CHL1   H20 3603   3.445   0.538   7.627  0.5794 -2.0108 -0.6346
   49CHL1   C21 3604   3.547   0.722   7.619 -0.8186 -0.2830 -0.1730
   49CHL1  H21A 3605   3.521   0.759   7.721  0.5911  1.7207 -0.4942
   49CHL1  H21B 3606   3.470   0.763   7.551 -1.3531 -1.3052 -0.2116
   49CHL1  H21C 3607   3.641   0.773   7.592 -0.7192  0.6177  1.6855
   49CHL1   C22 3608   3.653   0.503   7.695 -0.7743 -0.0319 -0.1718
   49CHL1  H22A 3609   3.677   0.398   7.669 -3.4657 -1.0606  1.1142
   49CHL1  H22B 3610   3.752   0.552   7.684 -0.2616 -1.1416 -0.6578
   49CHL1   C23 3611   3.603   0.499   7.842 -0.1192 -0.4885 -0.6478
   49CHL1  H23A 3612   3.601   0.604   7.879  0.8316 -0.6606 -0.0553
   49CHL1  H23B 3613   3.498   0.464   7.839 -1.1004  2.2904 -1.0004
   49CHL1   C24 3614   3.691   0.412   7.942  0.4547  0.2215  0.2947
   49CHL1  H24A 3615   3.709   0.308   7.908 -0.6889 -0.0388  0.4549
   49CHL1  H24B 3616   3.793   0.457   7.941  1.3184 -1.3876  3.4381
   49CHL1   C25 3617   3.635   0.415   8.079 -0.5754  0.1128  0.0033
   49CHL1   H25 3618   3.592   0.516   8.099 -2.2465 -0.3426 -1.0027
   49CHL1   C26 3619   3.522   0.313   8.093 -1.1642  0.5437  0.3889
   49CHL1  H26A 3620   3.564   0.212   8.069  1.1369  1.0628  1.9265
   49CHL1  H26B 3621   3.487   0.308   8.198  0.8291 -3.4379  1.0512
   49CHL1  H26C 3622   3.449   0.338   8.013  1.2959  3.7491 -1.0318
   49CHL1   C27 3623   3.747   0.390   8.187 -0.9278  0.6529 -0.1717
   49CHL1  H27A 3624   3.700   0.417   8.284  1.1497  0.6914  0.8899
   49CHL1  H27B 3625   3.783   0.285   8.174 -0.6989  0.6464  0.5125
   49CHL1  H27C 3626   3.843   0.441   8.167  0.9357 -2.0175  1.3388
   50CHL1    C3 3627   5.641   6.618   6.695 -0.3125 -0.0608 -0.0292
   50CHL1    H3 3628   5.748   6.596   6.711 -0.3964  1.2522  3.0476
   50CHL1    O3 3629   5.611   6.638   6.561 -0.1811  0.5350  0.0805
   50CHL1   H3' 3630   5.518   6.658   6.563  0.0817  1.9862 -0.8220
   50CHL1    C4 3631   5.552   6.500   6.758  0.0580 -0.5452 -0.1858
   50CHL1   H4A 3632   5.444   6.517   6.737 -0.4325  1.0558  2.9795
   50CHL1   H4B 3633   5.587   6.409   6.705  0.7594  0.5175 -1.6264
   50CHL1    C5 3634   5.578   6.492   6.903  0.2500 -0.4342 -0.1339
   50CHL1    C6 3635   5.618   6.374   6.957  0.9917 -0.1410  0.9785
   50CHL1    H6 3636   5.624   6.286   6.891 -1.0909  1.1091 -1.0599
   50CHL1    C7 3637   5.641   6.357   7.102  0.4365 -0.1962 -0.0128
   50CHL1   H7A 3638   5.597   6.257   7.121 -0.6313 -0.2056 -2.1715
   50CHL1   H7B 3639   5.749   6.350   7.126  0.0871 -0.6742  1.5196
   50CHL1    C8 3640   5.576   6.467   7.189 -0.2868 -0.7301  0.4972
   50CHL1    H8 3641   5.468   6.446   7.192 -0.4273 -0.0690  0.3158
   50CHL1   C14 3642   5.616   6.455   7.330  0.0476 -0.4307 -0.6263
   50CHL1   H14 3643   5.726   6.470   7.332  0.0110 -0.1495  2.0640
   50CHL1   C15 3644   5.584   6.327   7.410 -0.2049  0.2180  0.3950
   50CHL1  H15A 3645   5.480   6.297   7.386 -0.1441  1.0371 -0.9799
   50CHL1  H15B 3646   5.656   6.242   7.402  0.2180  0.6730 -0.8881
   50CHL1   C16 3647   5.583   6.369   7.554  0.5235  0.0107  0.0587
   50CHL1  H16A 3648   5.488   6.342   7.606 -0.2620  0.9591 -0.8157
   50CHL1  H16B 3649   5.667   6.319   7.606  0.4633 -1.4697 -1.2113
   50CHL1   C17 3650   5.606   6.523   7.560 -0.1163 -0.5955  1.0618
   50CHL1   H17 3651   5.715   6.541   7.553 -0.2303  0.0614  0.8269
   50CHL1   C13 3652   5.556   6.573   7.422 -0.3195 -0.7459 -0.0302
   50CHL1   C18 3653   5.403   6.583   7.433  0.3750  0.3342 -0.5665
   50CHL1  H18A 3654   5.369   6.660   7.506  1.0258 -0.2100  0.3335
   50CHL1  H18B 3655   5.345   6.589   7.338 -2.5687  0.3915  1.0936
   50CHL1  H18C 3656   5.364   6.489   7.477  1.5313 -0.0629 -0.3765
   50CHL1   C12 3657   5.617   6.701   7.366 -0.0613  0.3119 -0.2098
   50CHL1  H12A 3658   5.574   6.791   7.416 -1.6496  0.2443 -1.3712
   50CHL1  H12B 3659   5.728   6.710   7.366 -0.1330  1.4542 -0.9179
   50CHL1   C11 3660   5.567   6.734   7.221 -0.2714 -0.4571  0.1550
   50CHL1  H11A 3661   5.457   6.751   7.224 -0.4542 -1.5914  0.4325
   50CHL1  H11B 3662   5.610   6.827   7.179 -1.7862 -0.4009 -1.4018
   50CHL1    C9 3663   5.605   6.612   7.127 -0.1121  0.2050 -0.9201
   50CHL1    H9 3664   5.716   6.622   7.131 -0.1823  0.6209  1.1925
   50CHL1   C10 3665   5.552   6.625   6.983 -0.3322 -0.2537  0.3168
   50CHL1   C19 3666   5.400   6.638   6.988  0.0439 -0.4018  0.0147
   50CHL1  H19A 3667   5.351   6.549   7.033 -1.4126  0.2820 -0.1844
   50CHL1  H19B 3668   5.365   6.726   7.046  2.6360  0.3564  0.5695
   50CHL1  H19C 3669   5.365   6.653   6.884 -1.2311 -1.7958  0.2138
   50CHL1    C1 3670   5.630   6.741   6.915  0.0394 -0.1343  0.2845
   50CHL1   H1A 3671   5.599   6.835   6.965 -0.4240  1.3160 -2.5501
   50CHL1   H1B 3672   5.740   6.725   6.917  0.4481  2.0814 -1.2228
   50CHL1    C2 3673   5.611   6.748   6.763 -0.3534  0.6002 -0.1516
   50CHL1   H2A 3674   5.682   6.821   6.717 -0.5881  0.1146 -1.3275
   50CHL1   H2B 3675   5.509   6.785   6.740  1.2226  4.6664 -1.4708
   50CHL1   C20 3676   5.555   6.595   7.690 -0.7037  0.7603  0.4225
   50CHL1   H20 3677   5.446   6.577   7.701 -0.6662  0.9013  1.1299
   50CHL1   C21 3678   5.577   6.746   7.682  0.4452 -0.8546 -0.1761
   50CHL1  H21A 3679   5.521   6.793   7.598  3.6696  2.4877 -0.7107
   50CHL1  H21B 3680   5.683   6.772   7.660  0.5290 -0.9519  0.1100
   50CHL1  H21C 3681   5.543   6.799   7.773  0.7292  0.8004 -0.9954
   50CHL1   C22 3682   5.629   6.529   7.808 -0.6147 -0.1864  0.0876
   50CHL1  H22A 3683   5.619   6.418   7.803  2.3158 -0.5043 -0.1783
   50CHL1  H22B 3684   5.737   6.551   7.817 -0.4501 -1.3729  1.4323
   50CHL1   C23 3685   5.550   6.563   7.939 -0.4397 -0.5200  0.0870
   50CHL1  H23A 3686   5.561   6.672   7.957  0.2932 -0.1244 -2.3727
   50CHL1  H23B 3687   5.440   6.548   7.937 -0.4715 -1.1614  2.6525
   50CHL1   C24 3688   5.599   6.487   8.063 -0.4926  0.7467  0.0510
   50CHL1  H24A 3689   5.576   6.379   8.050 -1.3083  0.6089  2.3055
   50CHL1  H24B 3690   5.705   6.511   8.085 -0.7770  1.6410  0.4682
   50CHL1   C25 3691   5.526   6.530   8.189 -0.7683 -0.1085 -0.5930
   50CHL1   H25 3692   5.418   6.547   8.174 -1.1998 -2.8269 -1.1693
   50CHL1   C26 3693   5.556   6.435   8.307 -0.0290 -0.4047  0.3212
   50CHL1  H26A 3694   5.666   6.419   8.316 -0.1303 -1.4265 -0.1432
   50CHL1  H26B 3695   5.520   6.478   8.403 -0.5896  1.9499 -0.8866
   50CHL1  H26C 3696   5.509   6.336   8.292  2.7018 -1.7450 -0.0234
   50CHL1   C27 3697   5.578   6.671   8.237 -0.5311  0.4809  0.0666
   50CHL1  H27A 3698   5.538   6.752   8.172 -2.2065  1.7815  2.5157
   50CHL1  H27B 3699   5.558   6.705   8.341 -0.3895 -1.8206  0.9105
   50CHL1  H27C 3700   5.689   6.672   8.234 -0.4259 -1.5814  1.3640
   51CHL1    C3 3701   4.092   0.715   6.712 -0.0701 -0.2760 -0.0570
   51CHL1    H3 3702   4.090   0.604   6.724 -0.2513 -0.1383  1.3622
   51CHL1    O3 3703   4.055   0.767   6.584  0.2128  0.1600 -0.3137
   51CHL1   H3' 3704   4.014   0.688   6.548 -0.3273 -0.6210  1.8468
   51CHL1    C4 3705   3.975   0.756   6.808 -0.0279 -0.2672  0.0616
   51CHL1   H4A 3706   3.971   0.866   6.799 -0.5975 -0.3466 -0.7821
   51CHL1   H4B 3707   3.876   0.712   6.780  0.5248 -1.1127 -0.6159
   51CHL1    C5 3708   4.005   0.716   6.950  0.8593  0.1548  0.1010
   51CHL1    C6 3709   3.932   0.628   7.023  0.2102  0.5750  0.0454
   51CHL1    H6 3710   3.846   0.568   6.988 -0.0616  0.2170  1.3069
   51CHL1    C7 3711   3.945   0.629   7.171  0.2778  0.7973 -0.2921
   51CHL1   H7A 3712   3.853   0.654   7.229 -1.8601  0.8912 -3.4731
   51CHL1   H7B 3713   3.981   0.531   7.208 -0.3639  0.3347 -0.8715
   51CHL1    C8 3714   4.052   0.730   7.231  1.1191  0.7152 -0.0423
   51CHL1    H8 3715   4.005   0.830   7.239 -1.2234  0.0749 -3.6184
   51CHL1   C14 3716   4.107   0.687   7.365 -0.1214  0.6097 -0.2696
   51CHL1   H14 3717   4.156   0.589   7.343  0.7469  0.8568  0.4548
   51CHL1   C15 3718   4.013   0.644   7.474  0.0365 -0.4895  0.0600
   51CHL1  H15A 3719   3.943   0.729   7.486  2.1165  1.3174 -0.0670
   51CHL1  H15B 3720   3.959   0.549   7.454 -1.8891  0.5034  0.3723
   51CHL1   C16 3721   4.088   0.645   7.605 -0.9000  0.5154 -0.6938
   51CHL1  H16A 3722   4.048   0.719   7.678  2.9477  2.1603  0.0417
   51CHL1  H16B 3723   4.091   0.541   7.644  0.1958  0.7429 -0.1142
   51CHL1   C17 3724   4.236   0.688   7.567  0.0522  0.6043  0.1397
   51CHL1   H17 3725   4.291   0.594   7.546 -1.0350 -0.7504  2.8664
   51CHL1   C13 3726   4.214   0.768   7.432 -0.0773  0.2405  0.2087
   51CHL1   C18 3727   4.162   0.909   7.462 -0.6816  0.3337 -0.3080
   51CHL1  H18A 3728   4.079   0.902   7.537  1.5384 -0.5845  2.2243
   51CHL1  H18B 3729   4.245   0.974   7.498 -0.9223  1.4677 -1.7132
   51CHL1  H18C 3730   4.126   0.969   7.376 -0.5235  0.4419 -0.2989
   51CHL1   C12 3731   4.343   0.775   7.338  0.0802  0.8703 -0.7389
   51CHL1  H12A 3732   4.416   0.855   7.362  0.2171  1.3395 -2.5994
   51CHL1  H12B 3733   4.390   0.674   7.343 -0.5301  0.5705 -0.9681
   51CHL1   C11 3734   4.300   0.812   7.199 -0.4640  0.2206 -0.0949
   51CHL1  H11A 3735   4.279   0.920   7.190 -2.0100 -0.0334  0.0890
   51CHL1  H11B 3736   4.388   0.791   7.135 -0.5244 -2.4309  0.5711
   51CHL1    C9 3737   4.176   0.736   7.145  0.0428 -0.3167 -0.2125
   51CHL1    H9 3738   4.216   0.634   7.129 -0.4373 -0.7257  1.1079
   51CHL1   C10 3739   4.133   0.785   7.006 -0.6199 -0.6196  0.2956
   51CHL1   C19 3740   4.122   0.940   7.009 -0.6669 -0.7351 -0.6884
   51CHL1  H19A 3741   4.085   0.968   6.908  0.7453  2.8674 -0.3657
   51CHL1  H19B 3742   4.061   0.981   7.092  1.1153 -0.8890  0.7617
   51CHL1  H19C 3743   4.229   0.970   7.006 -0.3140 -1.8374  0.1456
   51CHL1    C1 3744   4.242   0.741   6.903 -0.6430 -0.5048  0.7898
   51CHL1   H1A 3745   4.335   0.797   6.929 -0.6958 -0.3959  0.7438
   51CHL1   H1B 3746   4.272   0.634   6.908 -0.5075 -0.4298  1.7361
   51CHL1    C2 3747   4.218   0.780   6.752 -0.1352  0.1765 -0.2805
   51CHL1   H2A 3748   4.294   0.743   6.680 -1.6671 -0.2681 -1.7326
   51CHL1   H2B 3749   4.212   0.891   6.747  0.4689  0.2731  0.8476
   51CHL1   C20 3750   4.316   0.757   7.682  0.2723  0.8821  0.3448
   51CHL1   H20 3751   4.272   0.856   7.704 -3.0795 -0.1184 -1.1450
   51CHL1   C21 3752   4.465   0.766   7.637 -0.0236 -0.0078 -0.5403
   51CHL1  H21A 3753   4.535   0.804   7.714  0.8903 -0.2958 -1.2198
   51CHL1  H21B 3754   4.477   0.853   7.569  2.7070 -1.0611 -1.5319
   51CHL1  H21C 3755   4.507   0.674   7.590 -0.2598 -1.3932  1.7920
   51CHL1   C22 3756   4.314   0.670   7.810 -0.3698 -0.3029 -0.4637
   51CHL1  H22A 3757   4.207   0.674   7.841 -0.6420 -0.7704 -1.3116
   51CHL1  H22B 3758   4.335   0.563   7.790 -1.3255 -0.3354 -1.3374
   51CHL1   C23 3759   4.402   0.725   7.921 -0.1967  0.6033  0.5871
   51CHL1  H23A 3760   4.512   0.713   7.908 -0.4477 -0.1204 -1.0771
   51CHL1  H23B 3761   4.396   0.836   7.930  0.8925  0.7560 -0.3570
   51CHL1   C24 3762   4.347   0.682   8.062 -0.2217  0.4572 -0.0333
   51CHL1  H24A 3763   4.418   0.719   8.139 -0.2169 -0.6080  0.4990
   51CHL1  H24B 3764   4.249   0.731   8.079  0.5440  1.3668  2.0625
   51CHL1   C25 3765   4.341   0.532   8.100  0.0380 -0.6148 -0.4972
   51CHL1   H25 3766   4.260   0.485   8.039 -0.1668 -0.2302 -0.5308
   51CHL1   C26 3767   4.467   0.449   8.067  0.2821 -0.2744 -0.7235
   51CHL1  H26A 3768   4.461   0.339   8.056  2.0997 -0.4738 -0.1634
   51CHL1  H26B 3769   4.479   0.475   7.959  0.2438 -1.4278 -1.0140
   51CHL1  H26C 3770   4.551   0.471   8.137 -0.2812 -1.3744  0.3126
   51CHL1   C27 3771   4.289   0.514   8.245  0.2365  0.2192 -0.3433
   51CHL1  H27A 3772   4.187   0.554   8.260  0.2157  0.7501 -1.7969
   51CHL1  H27B 3773   4.288   0.404   8.256 -1.3762  0.1338 -1.1290
   51CHL1  H27C 3774   4.363   0.554   8.318  0.2500  0.3230 -0.4110
   52CHL1    C3 3775   0.619   1.794   6.827  0.8483  0.5676  0.1651
   52CHL1    H3 3776   0.723   1.831   6.826  0.8999  0.5310  1.8329
   52CHL1    O3 3777   0.580   1.801   6.687 -0.6855 -0.2446  0.0286
   52CHL1   H3' 3778   0.505   1.742   6.674  0.0410 -0.9063 -1.3689
   52CHL1    C4 3779   0.624   1.652   6.867 -0.2298 -0.0689  0.5419
   52CHL1   H4A 3780   0.521   1.610   6.863  0.9172 -3.1175  0.5752
   52CHL1   H4B 3781   0.695   1.602   6.797 -1.1083  1.4353 -1.5107
   52CHL1    C5 3782   0.675   1.642   7.007 -0.5105  0.8514 -0.0024
   52CHL1    C6 3783   0.775   1.556   7.025 -0.4546 -0.3342 -0.6310
   52CHL1    H6 3784   0.822   1.500   6.943 -0.8357 -0.8263 -0.5213
   52CHL1    C7 3785   0.841   1.540   7.167  0.1555  0.0055 -0.0312
   52CHL1   H7A 3786   0.874   1.435   7.185  1.3245  0.1098 -1.3819
   52CHL1   H7B 3787   0.932   1.603   7.159  1.8146 -2.0042  1.5963
   52CHL1    C8 3788   0.747   1.592   7.279  0.0153  0.3006  0.0751
   52CHL1    H8 3789   0.668   1.514   7.283  0.9393 -0.6670  0.1656
   52CHL1   C14 3790   0.828   1.601   7.410 -0.3352 -0.4203 -0.1402
   52CHL1   H14 3791   0.912   1.665   7.377  1.2641 -1.5080  1.5879
   52CHL1   C15 3792   0.897   1.482   7.469  0.4437  0.1811  0.0765
   52CHL1  H15A 3793   0.823   1.399   7.468  0.7788 -0.1236  0.0940
   52CHL1  H15B 3794   0.988   1.438   7.421 -0.9987 -1.6629 -1.0835
   52CHL1   C16 3795   0.933   1.526   7.612  0.7445  0.4849 -0.0448
   52CHL1  H16A 3796   0.897   1.450   7.684  1.4938  1.2837  1.2092
   52CHL1  H16B 3797   1.043   1.536   7.619  0.6755  0.0897  2.8649
   52CHL1   C17 3798   0.858   1.662   7.638  0.3233 -0.2618 -0.9627
   52CHL1   H17 3799   0.941   1.734   7.624  1.2119 -1.3162 -1.3027
   52CHL1   C13 3800   0.749   1.661   7.530 -1.1419  0.0153  0.2241
   52CHL1   C18 3801   0.632   1.563   7.565 -0.5827  0.3952  0.5511
   52CHL1  H18A 3802   0.554   1.602   7.635 -0.8260 -0.3738  0.7207
   52CHL1  H18B 3803   0.581   1.525   7.474  1.3059 -1.9770  0.3982
   52CHL1  H18C 3804   0.677   1.480   7.623 -0.6403 -0.2046 -0.2439
   52CHL1   C12 3805   0.688   1.792   7.494  0.3459 -0.1459  0.5272
   52CHL1  H12A 3806   0.626   1.831   7.577  1.3449  0.3499  1.0594
   52CHL1  H12B 3807   0.770   1.866   7.476 -1.5753  1.7504 -0.9065
   52CHL1   C11 3808   0.604   1.787   7.365 -0.0844  0.5496  0.0116
   52CHL1  H11A 3809   0.515   1.723   7.385  1.3739 -1.7658 -0.5359
   52CHL1  H11B 3810   0.572   1.891   7.343 -0.0917  1.1716  2.6737
   52CHL1    C9 3811   0.688   1.729   7.247  0.0575 -0.5155 -0.0456
   52CHL1    H9 3812   0.777   1.793   7.232  1.2458 -1.8139  1.2338
   52CHL1   C10 3813   0.612   1.732   7.116  0.5593 -0.1003  0.3692
   52CHL1   C19 3814   0.467   1.672   7.131  0.3796  0.7663  0.1047
   52CHL1  H19A 3815   0.409   1.743   7.194  0.0995  0.5893  0.0498
   52CHL1  H19B 3816   0.416   1.679   7.032 -2.0494 -0.3640  1.2034
   52CHL1  H19C 3817   0.473   1.566   7.164 -0.0482  1.3838  2.3410
   52CHL1    C1 3818   0.616   1.879   7.059  0.5211 -0.0680 -0.5401
   52CHL1   H1A 3819   0.570   1.948   7.133  1.2400 -1.9678  1.8112
   52CHL1   H1B 3820   0.722   1.912   7.048  0.4156  0.2459 -0.6364
   52CHL1    C2 3821   0.543   1.891   6.924 -0.5867 -0.1621  0.7410
   52CHL1   H2A 3822   0.547   1.999   6.899  1.2848 -0.6007 -1.0873
   52CHL1   H2B 3823   0.435   1.866   6.924 -0.4030 -1.0646 -0.7038
   52CHL1   C20 3824   0.817   1.671   7.777 -0.1902 -0.7579 -0.3509
   52CHL1   H20 3825   0.749   1.586   7.798  0.0621 -0.6236  1.1578
   52CHL1   C21 3826   0.728   1.795   7.808 -0.8724 -0.2931 -0.1912
   52CHL1  H21A 3827   0.764   1.896   7.779 -2.5735 -0.1694 -2.1165
   52CHL1  H21B 3828   0.737   1.802   7.918  4.1521  1.6633 -0.4748
   52CHL1  H21C 3829   0.622   1.798   7.775 -0.8754 -2.2819 -0.5166
   52CHL1   C22 3830   0.937   1.657   7.884  0.8425 -0.2141 -0.3998
   52CHL1  H22A 3831   0.994   1.564   7.864  0.0887 -0.9156  0.5984
   52CHL1  H22B 3832   1.000   1.748   7.881  0.0539  0.3245 -1.9839
   52CHL1   C23 3833   0.886   1.637   8.029 -0.6116 -0.2483 -0.7158
   52CHL1  H23A 3834   0.842   1.725   8.081  0.9985 -0.9347  2.0112
   52CHL1  H23B 3835   0.799   1.569   8.021 -1.2972  0.2345  1.7927
   52CHL1   C24 3836   0.999   1.578   8.120 -0.5180 -0.1409  1.0076
   52CHL1  H24A 3837   1.050   1.490   8.076 -0.5595 -0.4513  1.5643
   52CHL1  H24B 3838   1.070   1.661   8.139  2.2987 -2.2015  0.3105
   52CHL1   C25 3839   0.947   1.541   8.260  0.7139  0.0216 -0.1683
   52CHL1   H25 3840   0.846   1.497   8.250  0.4941 -0.2082  2.4762
   52CHL1   C26 3841   1.037   1.432   8.315 -0.0270  0.3331 -0.5074
   52CHL1  H26A 3842   1.135   1.479   8.337 -0.1658 -0.0656  1.0899
   52CHL1  H26B 3843   0.988   1.376   8.398 -0.1065 -0.6386 -1.1944
   52CHL1  H26C 3844   1.064   1.354   8.240  1.6297  1.1894 -0.8389
   52CHL1   C27 3845   0.944   1.668   8.358 -0.2636 -0.3851  0.5081
   52CHL1  H27A 3846   0.856   1.731   8.331 -0.9881 -0.8724  1.6622
   52CHL1  H27B 3847   0.936   1.642   8.466  1.3062  0.9333  0.9717
   52CHL1  H27C 3848   1.027   1.737   8.334 -0.7387 -0.5644 -1.9539
   53CHL1    C3 3849   3.022   6.086   6.954  0.3531  1.0204 -0.3088
   53CHL1    H3 3850   2.957   5.998   6.935  2.4651 -1.0199  1.3474
   53CHL1    O3 3851   3.034   6.156   6.834 -0.5716  0.2730  0.5380
   53CHL1   H3' 3852   3.078   6.105   6.766 -1.8453  2.6566 -2.2980
   53CHL1    C4 3853   2.945   6.170   7.052 -0.0395 -0.1440 -0.7373
   53CHL1   H4A 3854   2.997   6.268   7.053  0.1547 -0.2303 -1.4639
   53CHL1   H4B 3855   2.853   6.194   6.995  0.3067  0.7409 -0.9409
   53CHL1    C5 3856   2.935   6.105   7.189 -0.0765  0.2478 -0.0327
   53CHL1    C6 3857   2.810   6.076   7.240  0.0243  0.2006  0.2654
   53CHL1    H6 3858   2.722   6.118   7.189  1.5206  1.6290 -1.3269
   53CHL1    C7 3859   2.789   6.014   7.377  0.3521 -0.1995 -0.6184
   53CHL1   H7A 3860   2.715   6.081   7.427 -0.1468 -1.7015  0.7139
   53CHL1   H7B 3861   2.750   5.913   7.356  0.4032 -0.4444  0.4504
   53CHL1    C8 3862   2.927   6.005   7.456  0.5202  0.6637  0.2791
   53CHL1    H8 3863   2.934   6.105   7.504  0.1445  0.5614  0.5537
   53CHL1   C14 3864   2.914   5.903   7.563 -0.0468 -0.6908 -0.0519
   53CHL1   H14 3865   2.898   5.803   7.516 -1.7728 -1.3656  1.8522
   53CHL1   C15 3866   2.793   5.918   7.650  0.5650 -0.0444 -0.1602
   53CHL1  H15A 3867   2.777   6.025   7.675 -1.0498 -0.2521 -0.1987
   53CHL1  H15B 3868   2.718   5.860   7.592  1.1151 -0.6613 -0.2627
   53CHL1   C16 3869   2.831   5.838   7.778  0.2120 -0.0978  0.4602
   53CHL1  H16A 3870   2.818   5.910   7.862 -2.6545  0.6247 -0.4850
   53CHL1  H16B 3871   2.780   5.741   7.792  0.8134 -0.5859 -0.6355
   53CHL1   C17 3872   2.977   5.805   7.762 -0.3189 -0.3595 -0.1074
   53CHL1   H17 3873   2.980   5.702   7.720  1.4928  0.5286 -2.3469
   53CHL1   C13 3874   3.038   5.902   7.657 -0.2190 -0.1258  0.0426
   53CHL1   C18 3875   3.073   6.040   7.717  0.2340 -0.0553 -0.4566
   53CHL1  H18A 3876   3.170   6.041   7.771  0.3868 -0.2893 -0.7241
   53CHL1  H18B 3877   3.092   6.115   7.637  2.1722 -0.2191 -0.1826
   53CHL1  H18C 3878   2.987   6.078   7.775 -1.3077 -1.9260 -1.3694
   53CHL1   C12 3879   3.150   5.838   7.565 -0.0626 -0.2351  0.4264
   53CHL1  H12A 3880   3.247   5.839   7.618 -0.0007  0.3667  0.3138
   53CHL1  H12B 3881   3.110   5.739   7.535 -1.0617  0.7365 -1.7143
   53CHL1   C11 3882   3.178   5.934   7.437  0.4049 -0.0173 -0.4086
   53CHL1  H11A 3883   3.234   6.019   7.481  1.6902 -1.2089  0.3600
   53CHL1  H11B 3884   3.246   5.891   7.361  0.0151  2.1666 -2.0782
   53CHL1    C9 3885   3.049   5.971   7.365  0.1491 -0.8721  0.3592
   53CHL1    H9 3886   3.029   5.870   7.323  0.9591 -1.1991  0.7563
   53CHL1   C10 3887   3.068   6.065   7.243 -0.0615  0.7385 -0.8655
   53CHL1   C19 3888   3.154   6.188   7.289  0.5217  0.0606 -0.0609
   53CHL1  H19A 3889   3.184   6.246   7.200  3.0835 -1.2128 -0.1235
   53CHL1  H19B 3890   3.103   6.260   7.356 -0.3021  1.5952 -2.2162
   53CHL1  H19C 3891   3.249   6.155   7.338  1.0137  1.4598 -0.0205
   53CHL1    C1 3892   3.152   5.981   7.138 -0.2865 -0.8545 -0.0479
   53CHL1   H1A 3893   3.252   5.978   7.187 -0.7512 -1.5578  0.8994
   53CHL1   H1B 3894   3.093   5.889   7.121 -2.3733  0.5363 -0.7182
   53CHL1    C2 3895   3.156   6.058   7.006 -0.5726  0.2249 -0.6259
   53CHL1   H2A 3896   3.202   5.990   6.932 -1.3320 -0.8381 -0.1422
   53CHL1   H2B 3897   3.208   6.156   7.017 -0.7950  0.3201 -0.4080
   53CHL1   C20 3898   3.058   5.805   7.895  0.4577  0.2855 -0.2542
   53CHL1   H20 3899   3.058   5.911   7.926  0.8734 -0.2906  1.8366
   53CHL1   C21 3900   3.205   5.767   7.870  0.1235  0.2031 -0.2483
   53CHL1  H21A 3901   3.269   5.785   7.959  0.7704  0.7554 -0.8042
   53CHL1  H21B 3902   3.247   5.847   7.805 -0.1534  0.5311 -0.0251
   53CHL1  H21C 3903   3.219   5.666   7.825  2.4515  0.2473  0.2271
   53CHL1   C22 3904   2.983   5.719   7.998  0.1379 -0.0673 -0.6581
   53CHL1  H22A 3905   2.884   5.762   8.023 -0.0414 -1.2409  0.8105
   53CHL1  H22B 3906   2.965   5.618   7.954  2.9689 -0.8902 -0.1141
   53CHL1   C23 3907   3.050   5.706   8.134 -0.7801 -0.2064 -0.4585
   53CHL1  H23A 3908   2.997   5.627   8.192  0.0666  1.0760  2.2212
   53CHL1  H23B 3909   3.158   5.684   8.122 -0.1154  0.9613  2.6343
   53CHL1   C24 3910   3.060   5.839   8.215  0.5075  1.1269 -0.0465
   53CHL1  H24A 3911   3.144   5.888   8.160  1.0873 -1.4722 -1.6278
   53CHL1  H24B 3912   2.964   5.892   8.197  0.4550  0.6081 -1.4559
   53CHL1   C25 3913   3.087   5.824   8.368 -0.4409  0.2815 -0.7336
   53CHL1   H25 3914   3.174   5.756   8.368 -2.2994 -2.2927  1.0950
   53CHL1   C26 3915   3.131   5.955   8.431 -0.7907  0.4107 -0.5407
   53CHL1  H26A 3916   3.162   5.940   8.536 -1.7338  0.9853 -0.1605
   53CHL1  H26B 3917   3.210   6.003   8.369 -1.3798  2.5998  0.2841
   53CHL1  H26C 3918   3.052   6.033   8.434 -0.3677  0.8212  0.4524
   53CHL1   C27 3919   2.967   5.755   8.437  0.5235 -0.4464 -0.1304
   53CHL1  H27A 3920   2.995   5.732   8.542  1.4275  2.5939  0.3686
   53CHL1  H27B 3921   2.879   5.821   8.425  0.9955  0.0098 -1.1884
   53CHL1  H27C 3922   2.941   5.665   8.377 -2.0308  0.6395 -0.7805
   54CHL1    C3 3923   3.107   1.054   6.678  0.3557  0.5799 -0.1561
   54CHL1    H3 3924   3.167   0.960   6.679  0.7956  0.7501 -3.1535
   54CHL1    O3 3925   3.093   1.104   6.551  0.3869  0.5836  0.7566
   54CHL1   H3' 3926   3.182   1.125   6.522  0.7820  0.4569  1.8339
   54CHL1    C4 3927   2.971   1.020   6.733 -0.1285  0.3045  0.3205
   54CHL1   H4A 3928   2.908   1.109   6.713 -1.1895  0.5161  3.8247
   54CHL1   H4B 3929   2.930   0.942   6.665 -0.3082 -0.9514  1.7836
   54CHL1    C5 3930   2.981   0.978   6.884  0.8735 -0.5433  0.1899
   54CHL1    C6 3931   2.941   0.853   6.928  0.1883  0.6912 -0.7022
   54CHL1    H6 3932   2.886   0.786   6.860 -2.0300  1.0322  0.6524
   54CHL1    C7 3933   2.934   0.811   7.072 -0.4089  0.3838  0.4219
   54CHL1   H7A 3934   2.835   0.761   7.082 -0.1243 -0.7524 -1.7703
   54CHL1   H7B 3935   3.001   0.724   7.090 -0.3907  0.3289  0.1057
   54CHL1    C8 3936   2.960   0.924   7.176 -0.0220  0.0965 -0.4502
   54CHL1    H8 3937   2.868   0.984   7.192 -0.0866 -0.4784  1.7301
   54CHL1   C14 3938   3.013   0.863   7.300  0.9027  0.2730  0.5535
   54CHL1   H14 3939   3.101   0.802   7.269 -2.0671 -2.7763 -2.7335
   54CHL1   C15 3940   2.924   0.752   7.365 -0.0462 -1.0982 -0.0134
   54CHL1  H15A 3941   2.822   0.794   7.374  1.1085  1.8465  0.2852
   54CHL1  H15B 3942   2.925   0.660   7.302  1.1417 -1.2459  0.1870
   54CHL1   C16 3943   2.971   0.733   7.509 -0.5689  0.1455 -1.2375
   54CHL1  H16A 3944   2.890   0.756   7.582  1.3184 -1.3820  1.5198
   54CHL1  H16B 3945   3.005   0.629   7.521  2.0622  0.9012 -1.6005
   54CHL1   C17 3946   3.073   0.849   7.527 -0.4797 -0.0237  0.1230
   54CHL1   H17 3947   3.169   0.804   7.495 -1.0593 -0.7225 -0.6775
   54CHL1   C13 3948   3.044   0.958   7.417 -0.6376 -0.6203  0.3787
   54CHL1   C18 3949   2.926   1.048   7.458  0.7587  0.1942 -0.0467
   54CHL1  H18A 3950   2.854   0.996   7.525  0.4483  1.0704  0.3238
   54CHL1  H18B 3951   2.958   1.142   7.508  1.9207 -0.1061 -0.2068
   54CHL1  H18C 3952   2.866   1.075   7.368 -1.9000  1.7514  2.0314
   54CHL1   C12 3953   3.166   1.040   7.365  0.3792 -0.2022  0.5455
   54CHL1  H12A 3954   3.208   1.123   7.426  1.6355  1.2963 -2.1349
   54CHL1  H12B 3955   3.251   0.971   7.346 -0.1707 -0.9048  0.5959
   54CHL1   C11 3956   3.129   1.112   7.235 -0.9060  0.5218  0.0047
   54CHL1  H11A 3957   3.052   1.189   7.260  0.1852  1.5113  0.3988
   54CHL1  H11B 3958   3.219   1.162   7.196 -2.0763  2.3469 -0.4623
   54CHL1    C9 3959   3.073   1.011   7.127  0.3878  0.3682 -0.7544
   54CHL1    H9 3960   3.158   0.946   7.096 -0.8531 -2.4710  1.4156
   54CHL1   C10 3961   3.046   1.079   6.984 -0.2785  0.6609 -0.4823
   54CHL1   C19 3962   2.951   1.199   6.994  0.3461  0.2661  0.2254
   54CHL1  H19A 3963   2.864   1.181   7.061  0.0603 -0.4477 -0.3272
   54CHL1  H19B 3964   3.015   1.278   7.039  1.2787 -0.7016  0.6464
   54CHL1  H19C 3965   2.919   1.229   6.892 -0.5905 -0.4521  0.2908
   54CHL1    C1 3966   3.182   1.125   6.918  0.3299 -0.4137  0.6613
   54CHL1   H1A 3967   3.228   1.213   6.967 -0.6498  1.7512 -2.0417
   54CHL1   H1B 3968   3.253   1.039   6.916 -2.0769 -2.5493 -1.4465
   54CHL1    C2 3969   3.162   1.165   6.774  0.0655 -0.4101  0.3991
   54CHL1   H2A 3970   3.255   1.209   6.734 -0.1062  0.5351  1.0209
   54CHL1   H2B 3971   3.094   1.251   6.757  0.3107  0.0105  1.4809
   54CHL1   C20 3972   3.097   0.898   7.666 -0.3758 -0.1699 -0.1966
   54CHL1   H20 3973   3.016   0.967   7.697 -1.6718 -0.5169 -2.6018
   54CHL1   C21 3974   3.233   0.974   7.688  0.4617  0.0927  0.1516
   54CHL1  H21A 3975   3.215   1.074   7.643  0.1945  0.0639  0.1899
   54CHL1  H21B 3976   3.319   0.932   7.631  0.8933  1.9042 -0.6042
   54CHL1  H21C 3977   3.256   0.984   7.796 -2.3792  2.1464  0.6694
   54CHL1   C22 3978   3.085   0.789   7.785  0.6807  0.3161 -0.3803
   54CHL1  H22A 3979   3.082   0.844   7.881  2.7707 -0.3622  0.1252
   54CHL1  H22B 3980   2.991   0.732   7.770  2.0409 -1.7128 -1.7124
   54CHL1   C23 3981   3.193   0.672   7.794 -0.6745 -0.0506  0.2274
   54CHL1  H23A 3982   3.188   0.606   7.704 -1.9245  1.3494 -0.7782
   54CHL1  H23B 3983   3.298   0.706   7.787 -1.1417  1.0221 -3.2148
   54CHL1   C24 3984   3.165   0.565   7.905 -0.0161  0.2622 -0.2599
   54CHL1  H24A 3985   3.066   0.520   7.886 -0.5027  0.4945  1.5481
   54CHL1  H24B 3986   3.234   0.478   7.896 -1.3015 -0.7362 -0.7755
   54CHL1   C25 3987   3.170   0.615   8.054  0.0445 -0.4863  0.0476
   54CHL1   H25 3988   3.101   0.703   8.059  1.8291  1.0150 -0.8685
   54CHL1   C26 3989   3.141   0.503   8.155  0.4404  0.7952  0.2993
   54CHL1  H26A 3990   3.032   0.493   8.176  1.0471 -1.3056  3.2359
   54CHL1  H26B 3991   3.176   0.405   8.115 -1.6354  0.1349 -0.0235
   54CHL1  H26C 3992   3.193   0.527   8.251  0.4811  0.7991  0.2758
   54CHL1   C27 3993   3.316   0.664   8.080 -0.2726  0.0099  0.1039
   54CHL1  H27A 3994   3.333   0.757   8.021 -1.7880  1.2734  1.5616
   54CHL1  H27B 3995   3.329   0.691   8.187 -1.9889 -1.1415  0.6570
   54CHL1  H27C 3996   3.393   0.588   8.056  0.8534  1.2448 -0.2788
   55CHL1    C3 3997   2.191   2.533   6.802 -0.2751 -0.1794 -0.7682
   55CHL1    H3 3998   2.087   2.569   6.790 -0.8492 -1.7886 -0.7944
   55CHL1    O3 3999   2.251   2.496   6.682 -0.0812  0.7654  0.2749
   55CHL1   H3' 4000   2.304   2.574   6.664  0.9432  0.1525  0.5677
   55CHL1    C4 4001   2.275   2.658   6.852 -0.0604  0.1488 -0.1535
   55CHL1   H4A 4002   2.384   2.637   6.846 -0.4340 -1.6855 -1.1694
   55CHL1   H4B 4003   2.246   2.734   6.776 -0.6347  0.4773  0.3866
   55CHL1    C5 4004   2.243   2.708   6.987  0.0415  0.1295  0.6761
   55CHL1    C6 4005   2.198   2.829   7.019  0.3879 -0.1375 -0.2981
   55CHL1    H6 4006   2.189   2.906   6.941 -1.9755 -0.3675 -0.3422
   55CHL1    C7 4007   2.167   2.874   7.159  0.1929  0.1704  0.9582
   55CHL1   H7A 4008   2.224   2.968   7.175  2.3525 -1.0449  0.7790
   55CHL1   H7B 4009   2.059   2.899   7.166 -0.0844 -0.9055  0.6570
   55CHL1    C8 4010   2.216   2.779   7.268  0.3052 -0.2815  0.3748
   55CHL1    H8 4011   2.326   2.782   7.284  0.2898 -1.9798  0.9463
   55CHL1   C14 4012   2.145   2.810   7.399  0.3119 -0.0924  0.0103
   55CHL1   H14 4013   2.037   2.793   7.384 -0.3544  2.2081  1.7038
   55CHL1   C15 4014   2.140   2.957   7.436 -0.0658  0.4021  0.2146
   55CHL1  H15A 4015   2.234   3.006   7.403 -1.9507  2.9136 -1.9634
   55CHL1  H15B 4016   2.059   3.006   7.377  1.0029 -0.6140 -2.2472
   55CHL1   C16 4017   2.124   2.951   7.588  0.7096  0.4374  0.0321
   55CHL1  H16A 4018   2.219   2.991   7.628  1.0525  2.1691 -2.3026
   55CHL1  H16B 4019   2.040   3.011   7.630  0.6377  0.7185 -0.5128
   55CHL1   C17 4020   2.117   2.809   7.638  0.3599  0.0723 -0.2563
   55CHL1   H17 4021   2.010   2.778   7.646  0.2456  0.9460  2.1761
   55CHL1   C13 4022   2.184   2.729   7.520  0.0139 -0.5380 -0.7442
   55CHL1   C18 4023   2.338   2.729   7.546 -0.8862 -0.3604  0.1832
   55CHL1  H18A 4024   2.354   2.660   7.632 -0.8013 -0.4377  0.1063
   55CHL1  H18B 4025   2.391   2.676   7.464  0.5115  0.0417  0.7892
   55CHL1  H18C 4026   2.384   2.827   7.571 -2.0844 -0.0487  1.2747
   55CHL1   C12 4027   2.125   2.586   7.482 -0.6278  0.4079  0.8187
   55CHL1  H12A 4028   2.135   2.518   7.569 -1.3128  3.1035  3.1124
   55CHL1  H12B 4029   2.014   2.583   7.469 -0.6375  0.2929  0.9248
   55CHL1   C11 4030   2.188   2.533   7.351  0.5375 -0.3214  0.2465
   55CHL1  H11A 4031   2.297   2.513   7.365  0.7775  0.2862 -0.6242
   55CHL1  H11B 4032   2.133   2.441   7.322  0.3762 -0.4169  0.8600
   55CHL1    C9 4033   2.177   2.639   7.230  0.1371  0.4709 -0.2724
   55CHL1    H9 4034   2.068   2.633   7.211  0.3726 -0.8192 -1.3820
   55CHL1   C10 4035   2.250   2.597   7.097  0.1382  0.1539  0.2932
   55CHL1   C19 4036   2.396   2.576   7.124 -0.8426 -0.3215  0.1897
   55CHL1  H19A 4037   2.422   2.498   7.198  1.5572 -0.1152 -0.3680
   55CHL1  H19B 4038   2.440   2.543   7.028  0.8668  1.6710  0.2028
   55CHL1  H19C 4039   2.457   2.667   7.144 -0.1172 -0.4158 -1.4399
   55CHL1    C1 4040   2.183   2.466   7.053 -0.1572 -0.3339  0.5976
   55CHL1   H1A 4041   2.210   2.388   7.128  0.0594 -0.4364  0.4167
   55CHL1   H1B 4042   2.076   2.491   7.069 -0.0887  0.2666  0.1512
   55CHL1    C2 4043   2.204   2.419   6.906  0.2561  0.2488 -0.3790
   55CHL1   H2A 4044   2.140   2.333   6.879  2.1275 -1.3273 -0.0640
   55CHL1   H2B 4045   2.310   2.383   6.906 -0.2912 -1.5135 -1.9459
   55CHL1   C20 4046   2.171   2.785   7.788 -0.8896 -0.1470 -0.0220
   55CHL1   H20 4047   2.280   2.804   7.802 -0.7576  1.2681 -2.3205
   55CHL1   C21 4048   2.141   2.642   7.829  0.1625  0.4686 -0.0823
   55CHL1  H21A 4049   2.176   2.563   7.759  1.2170 -0.3457  1.3014
   55CHL1  H21B 4050   2.031   2.626   7.834  0.1421 -0.1538 -1.8907
   55CHL1  H21C 4051   2.178   2.628   7.933 -0.5344 -0.6803  0.0265
   55CHL1   C22 4052   2.093   2.876   7.883  0.1671 -0.0019 -0.1980
   55CHL1  H22A 4053   2.106   2.979   7.843 -0.9458  1.4640  2.9270
   55CHL1  H22B 4054   1.985   2.856   7.893  0.3780 -0.0165  2.8896
   55CHL1   C23 4055   2.171   2.879   8.021  0.2530  0.5304 -0.0968
   55CHL1  H23A 4056   2.157   2.785   8.079  3.3265 -0.9658 -1.4973
   55CHL1  H23B 4057   2.280   2.889   8.000  0.2178 -0.4911 -0.8722
   55CHL1   C24 4058   2.126   3.007   8.096  0.0121  0.5912 -0.0907
   55CHL1  H24A 4059   2.190   3.092   8.064 -0.8526  1.3401  0.1248
   55CHL1  H24B 4060   2.027   3.040   8.058  0.0784 -1.2124 -2.0010
   55CHL1   C25 4061   2.135   2.985   8.251 -0.1495 -0.7504 -0.9690
   55CHL1   H25 4062   2.235   2.942   8.273 -0.0161  0.5432  1.1646
   55CHL1   C26 4063   2.152   3.126   8.323  0.5731  0.3300 -0.2704
   55CHL1  H26A 4064   2.068   3.191   8.288 -0.5310 -0.7535  0.2691
   55CHL1  H26B 4065   2.141   3.120   8.433  0.7485 -1.6564 -0.3212
   55CHL1  H26C 4066   2.245   3.183   8.303  0.4591  0.0549 -1.7142
   55CHL1   C27 4067   2.027   2.896   8.306 -0.9660  0.4311  0.5409
   55CHL1  H27A 4068   1.932   2.906   8.249 -0.1893 -0.6278 -1.0143
   55CHL1  H27B 4069   2.048   2.791   8.277 -0.3656  0.7495 -0.2455
   55CHL1  H27C 4070   2.028   2.899   8.417  2.3778 -1.7861  0.7308
   56CHL1    C3 4071   1.684   0.306   6.810 -0.3821 -0.7613  0.1197
   56CHL1    H3 4072   1.771   0.237   6.814 -0.8838 -1.3458  1.8960
   56CHL1    O3 4073   1.657   0.323   6.676  0.0581  0.1279 -0.4065
   56CHL1   H3' 4074   1.612   0.244   6.644  1.2732  0.1111 -2.2561
   56CHL1    C4 4075   1.571   0.239   6.883  0.1043 -0.2651 -0.0768
   56CHL1   H4A 4076   1.482   0.305   6.880  0.7550  0.7039  1.0027
   56CHL1   H4B 4077   1.534   0.147   6.832 -1.5506 -0.1742  0.8541
   56CHL1    C5 4078   1.592   0.220   7.029 -0.1724  0.0653 -0.5550
   56CHL1    C6 4079   1.574   0.100   7.085 -0.2572 -0.1285  0.4095
   56CHL1    H6 4080   1.550   0.013   7.021 -0.2169 -0.5277  0.9258
   56CHL1    C7 4081   1.585   0.073   7.233 -0.0953 -0.5253 -0.2159
   56CHL1   H7A 4082   1.496   0.016   7.265  0.2471  0.2866  2.4082
   56CHL1   H7B 4083   1.675   0.013   7.257  1.3922  2.6608  3.1555
   56CHL1    C8 4084   1.589   0.203   7.318  0.3082  0.2867 -0.1034
   56CHL1    H8 4085   1.489   0.250   7.325  0.9379  1.6014  0.3244
   56CHL1   C14 4086   1.636   0.183   7.466  0.2795  0.0839  0.3974
   56CHL1   H14 4087   1.741   0.159   7.440 -0.5316 -3.2385 -0.1828
   56CHL1   C15 4088   1.586   0.060   7.544 -0.1778 -0.1219  0.4345
   56CHL1  H15A 4089   1.475   0.047   7.549 -0.4013  1.3529 -0.0800
   56CHL1  H15B 4090   1.634  -0.030   7.501  2.3792  0.5284  1.7097
   56CHL1   C16 4091   1.630   0.100   7.690  0.6208  0.6287 -0.2923
   56CHL1  H16A 4092   1.552   0.074   7.764 -0.9382  0.5132 -1.9074
   56CHL1  H16B 4093   1.713   0.029   7.714  0.4006  0.7551  0.9049
   56CHL1   C17 4094   1.689   0.246   7.689  0.6079  0.3702  0.2175
   56CHL1   H17 4095   1.800   0.245   7.679  0.6571 -0.5464  0.7594
   56CHL1   C13 4096   1.639   0.304   7.560  0.4106 -0.4285  0.3008
   56CHL1   C18 4097   1.487   0.352   7.581 -0.3066  0.5749 -0.5642
   56CHL1  H18A 4098   1.431   0.374   7.487  1.1429 -0.5928 -1.7548
   56CHL1  H18B 4099   1.440   0.266   7.633  0.9913  1.3059  1.9693
   56CHL1  H18C 4100   1.482   0.436   7.654  0.0230  0.4043 -0.3474
   56CHL1   C12 4101   1.714   0.418   7.499 -0.1659 -0.0548  0.5273
   56CHL1  H12A 4102   1.697   0.516   7.549  2.8529  0.1298  1.3661
   56CHL1  H12B 4103   1.824   0.412   7.485 -0.4962  0.5282 -3.6574
   56CHL1   C11 4104   1.669   0.446   7.353 -0.5159 -0.0468 -0.8038
   56CHL1  H11A 4105   1.571   0.495   7.369 -0.4178 -0.1290  0.0709
   56CHL1  H11B 4106   1.733   0.526   7.310  1.7484 -2.1121 -1.4911
   56CHL1    C9 4107   1.671   0.319   7.257 -0.3745  0.6394  0.4051
   56CHL1    H9 4108   1.775   0.281   7.249  0.3736  2.1623  2.1290
   56CHL1   C10 4109   1.624   0.344   7.110  0.4809 -1.1248  0.5713
   56CHL1   C19 4110   1.505   0.447   7.116  0.1425  0.4563 -0.4834
   56CHL1  H19A 4111   1.424   0.407   7.181  1.2501 -1.1415 -0.0108
   56CHL1  H19B 4112   1.550   0.547   7.133  0.3843  0.8832 -3.2051
   56CHL1  H19C 4113   1.450   0.461   7.021 -1.6155  0.4309  0.4968
   56CHL1    C1 4114   1.748   0.411   7.036 -0.2132  0.0838  0.6238
   56CHL1   H1A 4115   1.753   0.512   7.082  0.7690 -0.5296  1.9280
   56CHL1   H1B 4116   1.840   0.351   7.053  0.0707 -0.1268 -1.4180
   56CHL1    C2 4117   1.719   0.435   6.881  0.0430 -0.1169  0.0642
   56CHL1   H2A 4118   1.799   0.482   6.821 -0.4480  0.0452 -0.4691
   56CHL1   H2B 4119   1.637   0.510   6.880  2.5205  2.8546  2.0703
   56CHL1   C20 4120   1.668   0.314   7.829  0.4384 -0.2407  0.9640
   56CHL1   H20 4121   1.559   0.302   7.848  0.5239 -1.1190  0.9078
   56CHL1   C21 4122   1.721   0.452   7.824  0.0529 -0.4147  1.0463
   56CHL1  H21A 4123   1.732   0.496   7.926  0.7567 -0.9495  1.2058
   56CHL1  H21B 4124   1.658   0.514   7.757 -0.3199 -3.0844 -1.2555
   56CHL1  H21C 4125   1.817   0.456   7.769 -0.8295  2.2164 -0.4979
   56CHL1   C22 4126   1.743   0.233   7.932  0.0513 -0.0347 -0.4092
   56CHL1  H22A 4127   1.669   0.159   7.970 -0.3857  0.4662 -0.2831
   56CHL1  H22B 4128   1.833   0.180   7.891  0.3172 -0.4202  0.6511
   56CHL1   C23 4129   1.792   0.306   8.066  0.8742 -0.2454  0.1922
   56CHL1  H23A 4130   1.869   0.382   8.043 -0.1949  0.4834 -1.1234
   56CHL1  H23B 4131   1.699   0.345   8.112 -0.3808 -3.0319  0.2415
   56CHL1   C24 4132   1.842   0.214   8.172 -0.2450  0.5513 -0.5873
   56CHL1  H24A 4133   1.777   0.131   8.206 -0.5247 -0.1712 -2.7222
   56CHL1  H24B 4134   1.934   0.166   8.132 -0.7239  0.5623 -1.7519
   56CHL1   C25 4135   1.884   0.290   8.305  0.0000  0.0268  0.3159
   56CHL1   H25 4136   1.947   0.378   8.283 -0.3116 -0.2489 -1.9210
   56CHL1   C26 4137   1.763   0.325   8.391  0.5330 -0.3505 -0.1879
   56CHL1  H26A 4138   1.682   0.372   8.331  0.5685 -0.2236 -0.1365
   56CHL1  H26B 4139   1.795   0.381   8.481  1.7871  1.8071 -1.8608
   56CHL1  H26C 4140   1.707   0.239   8.434 -1.4104  1.0795  0.2427
   56CHL1   C27 4141   1.973   0.199   8.396  0.7616  0.9052 -0.0926
   56CHL1  H27A 4142   1.991   0.241   8.497  1.3480  3.4346 -1.1784
   56CHL1  H27B 4143   1.916   0.103   8.397  1.1033  0.5803 -2.8731
   56CHL1  H27C 4144   2.072   0.195   8.345  0.4157  0.3986 -0.7433
   57SAPC     N 4145   4.688   1.615  10.949 -0.1274 -0.4782  0.4930
   57SAPC   C12 4146   4.593   1.564  10.841  0.0059 -0.1652 -0.2470
   57SAPC  H12A 4147   4.495   1.562  10.886  0.6321 -1.3627  1.1347
   57SAPC  H12B 4148   4.621   1.460  10.830 -1.1446 -0.4800 -0.3908
   57SAPC   C13 4149   4.628   1.613  11.081  0.2428  0.3418  0.2911
   57SAPC  H13A 4150   4.534   1.665  11.095  0.6301  0.8321  1.1098
   57SAPC  H13B 4151   4.615   1.510  11.113 -1.6556 -0.2352 -2.0204
   57SAPC  H13C 4152   4.695   1.667  11.145 -1.3950  0.0408  2.3742
   57SAPC   C14 4153   4.815   1.547  10.951 -0.3528  0.3906 -1.1477
   57SAPC  H14A 4154   4.818   1.439  10.962 -1.1522  0.5587  1.0499
   57SAPC  H14B 4155   4.871   1.563  10.859  1.2725  0.6770 -0.1559
   57SAPC  H14C 4156   4.880   1.597  11.021 -1.8289 -0.6812  1.0821
   57SAPC   C15 4157   4.712   1.761  10.917 -0.1934 -0.1161  0.0925
   57SAPC  H15A 4158   4.761   1.774  10.822 -0.3153  1.6381  0.2369
   57SAPC  H15B 4159   4.619   1.814  10.933 -0.4099 -0.9864  2.1652
   57SAPC  H15C 4160   4.771   1.795  11.001  1.4244 -2.4890  0.0345
   57SAPC   C11 4161   4.608   1.598  10.694 -0.0290 -0.2967  0.5815
   57SAPC  H11A 4162   4.560   1.698  10.681 -0.3896 -0.6689 -1.1499
   57SAPC  H11B 4163   4.536   1.527  10.649  0.8505 -1.5590  1.1019
   57SAPC     P 4164   4.806   1.457  10.586  0.0999  0.0637  0.0641
   57SAPC   O13 4165   4.953   1.474  10.571 -0.2079  0.4997  0.1171
   57SAPC   O14 4166   4.759   1.330  10.650  0.3013 -0.1136  0.1825
   57SAPC   O12 4167   4.744   1.583  10.655 -0.4630 -0.1904  0.1458
   57SAPC   O11 4168   4.729   1.459  10.450 -0.1547 -0.2767  0.3384
   57SAPC    C1 4169   4.686   1.579  10.383  0.1475 -0.0664  0.3065
   57SAPC    HA 4170   4.587   1.608  10.424 -1.1103 -1.8097 -1.3404
   57SAPC    HB 4171   4.764   1.656  10.400  0.5011 -0.7520  1.9007
   57SAPC    C2 4172   4.664   1.536  10.235 -0.3413  0.7195  0.3122
   57SAPC    HS 4173   4.630   1.629  10.184  0.9821  0.2784 -1.4537
   57SAPC   O21 4174   4.570   1.430  10.216 -0.7703 -0.7389 -0.0351
   57SAPC   C21 4175   4.519   1.433  10.093  0.0766 -0.0245 -0.4892
   57SAPC   O22 4176   4.526   1.531  10.019  0.0598 -0.1363 -0.1663
   57SAPC   C22 4177   4.446   1.305  10.068  0.0192  0.3051 -0.2414
   57SAPC   H2R 4178   4.483   1.227  10.138  0.0815  1.4662  1.0480
   57SAPC   H2S 4179   4.340   1.323  10.096  0.3780 -0.1684  1.5462
   57SAPC    C3 4180   4.807   1.493  10.175  0.0669  0.3253 -0.0328
   57SAPC    HX 4181   4.842   1.400  10.225  0.0498  1.5410  2.3376
   57SAPC    HY 4182   4.867   1.577  10.216 -0.3842  0.9219 -0.5697
   57SAPC   O31 4183   4.812   1.476  10.025  0.0391 -0.9337  0.7321
   57SAPC   C31 4184   4.838   1.589   9.968 -0.3867 -0.0890  0.4581
   57SAPC   O32 4185   4.866   1.696  10.023  0.2182  0.1833 -0.0997
   57SAPC   C32 4186   4.816   1.568   9.815  0.0322  0.3022  0.7727
   57SAPC   H2X 4187   4.709   1.542   9.798 -0.4493  2.2736  0.4553
   57SAPC   H2Y 4188   4.860   1.473   9.780 -1.9844 -0.2106 -0.5817
   57SAPC   C23 4189   4.458   1.243   9.925  0.7520 -0.4075  0.9078
   57SAPC   H3R 4190   4.564   1.217   9.909  0.7438  0.3378 -0.5154
   57SAPC   H3S 4191   4.425   1.310   9.843 -1.2532  0.9800  2.7252
   57SAPC   C24 4192   4.368   1.117   9.916 -0.5016 -0.4334  0.5034
   57SAPC   H4R 4193   4.261   1.146   9.908 -1.7875 -4.6289 -0.1597
   57SAPC   H4S 4194   4.377   1.065  10.014  0.6369  1.3038  1.3774
   57SAPC   C25 4195   4.419   1.037   9.800  0.7293 -0.3963  0.1759
   57SAPC   H5R 4196   4.458   0.940   9.836  1.4790  0.5482  2.0474
   57SAPC   C26 4197   4.438   1.077   9.671  0.6009  0.5785  0.3570
   57SAPC   H6R 4198   4.479   1.002   9.601  2.5740  0.3930  1.6195
   57SAPC   C27 4199   4.410   1.209   9.606  0.4310  0.0528  0.3712
   57SAPC   H7R 4200   4.508   1.261   9.613  0.1069  0.7481 -0.2502
   57SAPC   H7S 4201   4.329   1.263   9.659  0.7832 -0.1427  1.1390
   57SAPC   C28 4202   4.381   1.199   9.457 -0.0674 -0.3131 -0.1348
   57SAPC   H8R 4203   4.290   1.142   9.435 -0.4548  0.3225 -0.1992
   57SAPC   C29 4204   4.436   1.262   9.351  0.2175  0.1884 -0.3218
   57SAPC   H9R 4205   4.395   1.240   9.251 -0.2132 -0.5311  0.0080
   57SAPC  C210 4206   4.548   1.361   9.349  0.3161  0.3273  0.6183
   57SAPC  H10R 4207   4.624   1.324   9.277 -0.3416  1.8602 -0.9362
   57SAPC  H10S 4208   4.609   1.366   9.442  2.9346  1.3209 -1.0091
   57SAPC  C211 4209   4.504   1.498   9.307  0.4529 -0.0840  0.6964
   57SAPC  H11R 4210   4.477   1.572   9.384 -2.3858 -0.7880  0.5025
   57SAPC  C212 4211   4.511   1.550   9.188 -0.1152  0.0786  0.5083
   57SAPC  H12R 4212   4.446   1.636   9.168 -0.2032 -0.2250 -0.5664
   57SAPC  C213 4213   4.562   1.478   9.067  0.1068  0.8806  0.5178
   57SAPC  H13R 4214   4.653   1.426   9.105 -1.5325 -0.7367  2.4031
   57SAPC  H13S 4215   4.586   1.550   8.985  2.7539 -0.1008  0.3200
   57SAPC  C214 4216   4.462   1.382   9.004  0.0127 -0.0244  0.2183
   57SAPC  H14R 4217   4.370   1.372   9.064 -0.0838 -2.1480 -0.2126
   57SAPC  C215 4218   4.476   1.325   8.881 -0.4139  0.4133 -0.3974
   57SAPC  H15R 4219   4.399   1.254   8.848  0.3206 -0.4034 -0.3965
   57SAPC  C216 4220   4.594   1.350   8.794 -0.2804  0.3602  0.3561
   57SAPC  H16R 4221   4.667   1.270   8.820  0.0194  0.2297 -0.8132
   57SAPC  H16S 4222   4.641   1.444   8.829 -0.7322  0.3532  0.9937
   57SAPC  C217 4223   4.575   1.351   8.638 -0.2122  0.0895 -0.5595
   57SAPC  H17R 4224   4.489   1.417   8.614 -0.5247  0.3556  1.1385
   57SAPC  H17S 4225   4.546   1.251   8.600 -1.0948 -0.7522  2.0701
   57SAPC  C218 4226   4.703   1.408   8.571  0.1793 -0.5669  0.3948
   57SAPC  H18R 4227   4.781   1.342   8.614  0.1775 -0.7577  0.1101
   57SAPC  H18S 4228   4.715   1.511   8.611  2.3817 -0.4636 -0.4033
   57SAPC  C219 4229   4.707   1.408   8.423  0.9920  0.6109 -0.0945
   57SAPC  H19R 4230   4.663   1.316   8.380  1.7863  0.1967 -0.0365
   57SAPC  H19S 4231   4.813   1.414   8.391  1.5021  1.2175  1.5995
   57SAPC  C220 4232   4.612   1.512   8.357  0.2288 -0.5148 -0.0448
   57SAPC  H20R 4233   4.503   1.501   8.371  0.3953 -0.8070  1.2355
   57SAPC  H20S 4234   4.632   1.524   8.249  0.8330  1.4672  0.2377
   57SAPC  H20T 4235   4.627   1.615   8.398 -0.1163  0.8955 -3.1673
   57SAPC   C33 4236   4.856   1.684   9.717 -0.3064 -0.3593 -0.6438
   57SAPC   H3X 4237   4.965   1.687   9.737 -0.4034 -1.3821  0.0968
   57SAPC   H3Y 4238   4.810   1.778   9.755  3.1989  1.2407  0.0417
   57SAPC   C34 4239   4.810   1.639   9.581 -0.5925 -0.2103  0.1131
   57SAPC   H4X 4240   4.702   1.614   9.585 -0.5454 -0.2692  1.4206
   57SAPC   H4Y 4241   4.862   1.543   9.560  1.0867  0.5044  0.7968
   57SAPC   C35 4242   4.855   1.734   9.468  0.2842 -0.2218  0.0118
   57SAPC   H5X 4243   4.961   1.766   9.475 -0.7331  3.7917 -0.2213
   57SAPC   H5Y 4244   4.792   1.826   9.473  0.3184 -0.2554  1.3512
   57SAPC   C36 4245   4.830   1.670   9.323 -0.3721  0.1586 -0.9498
   57SAPC   H6X 4246   4.723   1.643   9.317 -0.3328 -0.1653 -0.2904
   57SAPC   H6Y 4247   4.905   1.588   9.315 -0.2895  0.0890  0.3789
   57SAPC   C37 4248   4.874   1.772   9.219  0.0071  0.1464 -0.6477
   57SAPC   H7X 4249   4.978   1.808   9.236 -0.1408  0.1177  0.3760
   57SAPC   H7Y 4250   4.819   1.868   9.233  0.4555  0.0500  2.6505
   57SAPC   C38 4251   4.862   1.733   9.073  0.3241  0.1708 -0.2360
   57SAPC   H8X 4252   4.893   1.814   9.004  1.0399  0.0215 -0.0921
   57SAPC   H8Y 4253   4.755   1.711   9.053  0.3575 -0.3993  0.1895
   57SAPC   C39 4254   4.959   1.612   9.038  0.1901 -0.2004  0.1789
   57SAPC   H9X 4255   4.925   1.517   9.083  1.5356 -0.7291  0.1240
   57SAPC   H9Y 4256   5.050   1.633   9.098  0.7117 -2.4966  0.2863
   57SAPC  C310 4257   4.979   1.596   8.892  0.0632 -0.5713 -1.2438
   57SAPC  H10X 4258   5.041   1.680   8.853  2.8956 -0.8692  2.1651
   57SAPC  H10Y 4259   4.882   1.604   8.840 -1.5146  0.7637  1.6784
   57SAPC  C311 4260   5.060   1.471   8.861 -0.0281  0.4866 -0.0521
   57SAPC  H11X 4261   5.003   1.386   8.904 -0.2697  1.4950  1.7502
   57SAPC  H11Y 4262   5.157   1.485   8.913  0.0538  0.9976 -0.3340
   57SAPC  C312 4263   5.079   1.459   8.713  0.8722 -0.3424 -0.4392
   57SAPC  H12X 4264   5.095   1.559   8.668 -1.5040  0.6756  0.7840
   57SAPC  H12Y 4265   4.984   1.428   8.664  0.4548  0.1543  0.0293
   57SAPC  C313 4266   5.183   1.355   8.673  0.4248 -1.1178  0.2597
   57SAPC  H13X 4267   5.193   1.258   8.726  0.6500 -0.5477  1.2918
   57SAPC  H13Y 4268   5.285   1.399   8.678  0.5424 -1.4974  1.3202
   57SAPC  C314 4269   5.163   1.313   8.521  0.4520  0.3768 -0.2760
   57SAPC  H14X 4270   5.158   1.407   8.461  1.0493  0.2151 -0.5842
   57SAPC  H14Y 4271   5.063   1.265   8.516  0.9008 -0.7374  0.7803
   57SAPC  C315 4272   5.284   1.240   8.472 -0.1336 -0.3152 -0.0552
   57SAPC  H15X 4273   5.339   1.174   8.542  1.1050 -0.0601 -0.7613
   57SAPC  H15Y 4274   5.361   1.312   8.437  0.9941 -1.7138 -0.5834
   57SAPC  C316 4275   5.258   1.168   8.343  0.0757 -0.0384  0.1186
   57SAPC  H16X 4276   5.200   1.243   8.285  1.8507  1.5468  0.2961
   57SAPC  H16Y 4277   5.204   1.074   8.367 -0.3597 -0.0156 -0.7466
   57SAPC  C317 4278   5.392   1.124   8.278 -0.4085  0.1508  0.6228
   57SAPC  H17X 4279   5.360   1.073   8.185  0.7424  0.6032 -0.0450
   57SAPC  H17Y 4280   5.434   1.046   8.345 -2.0726  0.2470  1.8185
   57SAPC  C318 4281   5.500   1.220   8.235 -0.0142 -0.4642  0.2799
   57SAPC  H18X 4282   5.461   1.299   8.167  1.7184  0.4475  0.3102
   57SAPC  H18Y 4283   5.592   1.177   8.190  0.4453  1.1363 -0.3815
   57SAPC  H18Z 4284   5.537   1.270   8.327 -1.9505 -0.3125  1.0314
   58SAPC     N 4285   6.364   0.714  10.609  0.3156 -0.2456  0.0673
   58SAPC   C12 4286   6.267   0.654  10.513 -0.6046  0.6049 -0.1875
   58SAPC  H12A 4287   6.225   0.734  10.453  0.0804  0.2139 -1.2266
   58SAPC  H12B 4288   6.190   0.602  10.567  0.5733 -1.0947 -0.0800
   58SAPC   C13 4289   6.476   0.793  10.549  0.0799 -0.1779 -0.0734
   58SAPC  H13A 4290   6.434   0.885  10.511 -0.4073 -0.6943 -0.8073
   58SAPC  H13B 4291   6.539   0.812  10.635 -1.3527  1.6184  0.6526
   58SAPC  H13C 4292   6.529   0.752  10.465  0.7541 -1.5529  0.9856
   58SAPC   C14 4293   6.283   0.806  10.695 -0.2313 -0.0548 -0.2080
   58SAPC  H14A 4294   6.213   0.870  10.642 -0.8803  0.1683  0.8970
   58SAPC  H14B 4295   6.215   0.753  10.759  0.8572 -1.2687 -0.0179
   58SAPC  H14C 4296   6.341   0.876  10.753  2.8330 -1.0873 -1.7991
   58SAPC   C15 4297   6.427   0.612  10.701  0.2938 -0.3833 -0.2790
   58SAPC  H15A 4298   6.487   0.541  10.646 -1.9797 -3.4177  0.8831
   58SAPC  H15B 4299   6.487   0.661  10.776 -0.0509  0.8127 -0.7578
   58SAPC  H15C 4300   6.347   0.558  10.750  1.6978 -1.4002  0.9782
   58SAPC   C11 4301   6.317   0.554  10.407 -0.8588 -0.5632  0.2319
   58SAPC  H11A 4302   6.397   0.606  10.350  0.5361 -1.4816  1.2870
   58SAPC  H11B 4303   6.244   0.524  10.329  1.3100 -1.3246 -1.6365
   58SAPC     P 4304   6.317   0.293  10.483 -0.0872 -0.1162 -0.1775
   58SAPC   O13 4305   6.380   0.227  10.601  0.5659 -0.2249  0.4053
   58SAPC   O14 4306   6.172   0.308  10.495 -0.0890  0.5661 -0.0868
   58SAPC   O12 4307   6.380   0.445  10.470  0.2714 -0.0756 -0.1700
   58SAPC   O11 4308   6.359   0.205  10.362 -0.3537  0.0819  0.4194
   58SAPC    C1 4309   6.488   0.198  10.313 -0.1859 -0.0083 -0.1116
   58SAPC    HA 4310   6.529   0.298  10.290 -0.0714 -0.3850 -1.6524
   58SAPC    HB 4311   6.560   0.153  10.385  0.4662  0.5712 -0.4020
   58SAPC    C2 4312   6.484   0.110  10.185  0.3071 -0.0037 -0.4304
   58SAPC    HS 4313   6.589   0.086  10.156  0.7257 -0.2941  1.1877
   58SAPC   O21 4314   6.426   0.178  10.073  0.2176  0.1369  0.3881
   58SAPC   C21 4315   6.496   0.268  10.018  0.2744 -0.3199 -1.1265
   58SAPC   O22 4316   6.617   0.291  10.035  0.0019  0.0792  0.9388
   58SAPC   C22 4317   6.401   0.369   9.941  0.5260 -0.0962  0.0425
   58SAPC   H2R 4318   6.297   0.333   9.954  0.1517  1.2232  0.8364
   58SAPC   H2S 4319   6.418   0.470   9.983 -0.4651  0.2085 -0.2780
   58SAPC    C3 4320   6.422  -0.029  10.205 -0.3623 -0.2033  0.5955
   58SAPC    HX 4321   6.316  -0.013  10.236 -0.5172  0.6237 -0.3162
   58SAPC    HY 4322   6.472  -0.078  10.290  2.7308  2.9025  0.7771
   58SAPC   O31 4323   6.431  -0.102  10.083 -0.4825  0.0072  0.2786
   58SAPC   C31 4324   6.321  -0.139  10.019  0.1956 -0.1974 -1.5209
   58SAPC   O32 4325   6.207  -0.118  10.056 -0.0806  0.7730 -0.1817
   58SAPC   C32 4326   6.374  -0.230   9.906  0.0277 -0.4581 -0.2225
   58SAPC   H2X 4327   6.428  -0.313   9.958 -1.5899 -0.5193  1.4801
   58SAPC   H2Y 4328   6.447  -0.168   9.850  1.7456 -1.3031  0.9916
   58SAPC   C23 4329   6.441   0.388   9.789  1.2315 -0.1536  0.4144
   58SAPC   H3R 4330   6.551   0.405   9.785  1.0717  0.9422  0.3321
   58SAPC   H3S 4331   6.383   0.473   9.747 -0.3711  0.0472  2.8399
   58SAPC   C24 4332   6.396   0.270   9.702  0.7732 -0.2817 -0.1952
   58SAPC   H4R 4333   6.440   0.180   9.750  2.6969  1.7798  2.1768
   58SAPC   H4S 4334   6.444   0.287   9.603  0.4430 -1.6803 -0.6253
   58SAPC   C25 4335   6.249   0.245   9.688  0.6736 -0.7404 -0.0308
   58SAPC   H5R 4336   6.191   0.233   9.781 -0.0801 -2.4943 -0.6861
   58SAPC   C26 4337   6.190   0.208   9.570  0.2061 -0.4072 -0.4431
   58SAPC   H6R 4338   6.082   0.189   9.568 -0.0250  0.4569  1.7204
   58SAPC   C27 4339   6.256   0.219   9.435 -0.2680  0.3060  0.1585
   58SAPC   H7R 4340   6.313   0.125   9.419  0.4817  0.6604  0.7144
   58SAPC   H7S 4341   6.333   0.298   9.435  0.7081 -0.6030 -0.9969
   58SAPC   C28 4342   6.154   0.232   9.325  0.7006  0.3145  0.3520
   58SAPC   H8R 4343   6.052   0.204   9.357 -0.1806  2.2933 -0.5354
   58SAPC   C29 4344   6.167   0.277   9.204  0.3517  1.0913 -0.1099
   58SAPC   H9R 4345   6.082   0.279   9.134  0.1529 -0.2796  0.0676
   58SAPC  C210 4346   6.288   0.325   9.139 -0.1454 -0.6915  0.4345
   58SAPC  H10R 4347   6.377   0.305   9.202  0.1510 -1.5112 -0.2075
   58SAPC  H10S 4348   6.282   0.436   9.139 -1.8338 -0.7556  0.9197
   58SAPC  C211 4349   6.310   0.269   9.000 -0.2541 -0.3760  0.1402
   58SAPC  H11R 4350   6.376   0.180   9.004 -1.0576 -0.9392  1.9647
   58SAPC  C212 4351   6.289   0.325   8.880  0.4362 -0.1376  0.1005
   58SAPC  H12R 4352   6.342   0.275   8.797  1.1949  1.8659 -0.6719
   58SAPC  C213 4353   6.217   0.453   8.859  0.6579  0.1039 -0.2018
   58SAPC  H13R 4354   6.289   0.536   8.842 -0.1832  1.0019  0.4556
   58SAPC  H13S 4355   6.164   0.492   8.949 -0.8187 -1.0838 -0.5184
   58SAPC  C214 4356   6.122   0.436   8.740 -0.8176 -0.2421 -0.4030
   58SAPC  H14R 4357   6.014   0.421   8.757 -0.9534  0.9313 -0.1130
   58SAPC  C215 4358   6.166   0.445   8.613 -0.8282  0.3839  0.3876
   58SAPC  H15R 4359   6.092   0.413   8.538  0.5355 -1.1709 -0.3753
   58SAPC  C216 4360   6.304   0.475   8.565  0.3895  0.0147 -0.1626
   58SAPC  H16R 4361   6.375   0.390   8.551  0.7564  0.3053 -0.0739
   58SAPC  H16S 4362   6.358   0.542   8.635  2.7095 -0.9954 -0.8730
   58SAPC  C217 4363   6.298   0.550   8.425  0.1083 -0.7059 -0.1223
   58SAPC  H17R 4364   6.395   0.600   8.405 -0.9719  0.8539 -1.8385
   58SAPC  H17S 4365   6.227   0.635   8.433  1.5161  0.5673 -0.6428
   58SAPC  C218 4366   6.250   0.466   8.306 -0.5498  0.2463 -0.7872
   58SAPC  H18R 4367   6.154   0.418   8.336 -0.5789  0.6245 -0.2563
   58SAPC  H18S 4368   6.328   0.397   8.267 -0.0744  1.2781 -1.7001
   58SAPC  C219 4369   6.213   0.553   8.187  0.1596 -0.4803  0.1016
   58SAPC  H19R 4370   6.299   0.619   8.164 -0.5488  1.1437  1.8583
   58SAPC  H19S 4371   6.137   0.624   8.225 -0.0039 -0.8352  0.4519
   58SAPC  C220 4372   6.176   0.474   8.070  0.5632 -0.5779 -0.4184
   58SAPC  H20R 4373   6.068   0.451   8.083  0.7668 -0.4372  1.9779
   58SAPC  H20S 4374   6.242   0.386   8.061  1.3494 -0.1323  0.7134
   58SAPC  H20T 4375   6.158   0.531   7.976 -1.6738 -0.2917  0.1250
   58SAPC   C33 4376   6.259  -0.272   9.807  1.0136 -0.2007 -0.3591
   58SAPC   H3X 4377   6.166  -0.299   9.861  0.1825 -0.1475 -1.7209
   58SAPC   H3Y 4378   6.291  -0.359   9.746 -2.4056  0.1676 -2.9476
   58SAPC   C34 4379   6.240  -0.166   9.697 -0.1458  0.4518  0.5074
   58SAPC   H4X 4380   6.333  -0.149   9.639 -0.6449  1.4473 -0.0342
   58SAPC   H4Y 4381   6.217  -0.074   9.755 -0.8940  1.8337 -1.8663
   58SAPC   C35 4382   6.118  -0.186   9.608  0.5458  0.0381 -0.7221
   58SAPC   H5X 4383   6.096  -0.093   9.552 -0.0609  0.3345  0.0044
   58SAPC   H5Y 4384   6.030  -0.198   9.674  1.5633  1.9996  1.1167
   58SAPC   C36 4385   6.126  -0.313   9.533 -0.1371 -0.0381  0.0411
   58SAPC   H6X 4386   6.118  -0.394   9.609  0.0738  0.8603  1.0359
   58SAPC   H6Y 4387   6.220  -0.336   9.479 -1.2888 -2.3941 -1.1233
   58SAPC   C37 4388   6.014  -0.329   9.434 -0.0272  0.1202  0.9767
   58SAPC   H7X 4389   5.916  -0.312   9.484 -0.7987 -2.4439  0.4688
   58SAPC   H7Y 4390   6.008  -0.434   9.399  0.8326  0.5692 -0.5934
   58SAPC   C38 4391   6.014  -0.232   9.316  0.6649  0.0033 -0.4965
   58SAPC   H8X 4392   6.003  -0.132   9.362 -3.9121 -2.0802  3.9038
   58SAPC   H8Y 4393   5.932  -0.257   9.246  1.9119  1.3660 -2.5356
   58SAPC   C39 4394   6.149  -0.226   9.243 -0.1203  0.8135  0.0958
   58SAPC   H9X 4395   6.168  -0.329   9.205  0.7143  1.6817 -1.9916
   58SAPC   H9Y 4396   6.237  -0.208   9.308 -0.0785  0.1544  0.2303
   58SAPC  C310 4397   6.155  -0.118   9.131 -0.3979 -0.0101 -0.2914
   58SAPC  H10X 4398   6.255  -0.129   9.085  0.1783 -3.9080  1.4160
   58SAPC  H10Y 4399   6.139  -0.017   9.173  0.4016  0.2275 -0.5489
   58SAPC  C311 4400   6.051  -0.144   9.012 -0.1962 -0.7175 -0.4422
   58SAPC  H11X 4401   5.954  -0.097   9.041  0.5712  1.0096 -0.5461
   58SAPC  H11Y 4402   6.051  -0.255   9.004 -1.2501 -1.3085  4.6276
   58SAPC  C312 4403   6.090  -0.068   8.885  0.4436  0.2573  0.3400
   58SAPC  H12X 4404   6.198  -0.084   8.863  0.2920 -1.7708  0.8829
   58SAPC  H12Y 4405   6.092   0.041   8.908  2.1222 -0.3579  3.8220
   58SAPC  C313 4406   6.006  -0.114   8.761 -0.8021  0.0033  0.2343
   58SAPC  H13X 4407   6.059  -0.069   8.674 -0.4564 -1.6125 -0.4330
   58SAPC  H13Y 4408   5.903  -0.073   8.759 -1.1554 -0.7410 -3.3240
   58SAPC  C314 4409   6.015  -0.268   8.737 -0.1806  0.3499  0.3130
   58SAPC  H14X 4410   5.970  -0.321   8.824  1.6388  0.8752  1.6215
   58SAPC  H14Y 4411   6.125  -0.283   8.733 -0.0697  1.2334 -0.1132
   58SAPC  C315 4412   5.960  -0.317   8.606  0.3738  0.2206  0.7185
   58SAPC  H15X 4413   6.007  -0.245   8.536  0.8428  2.6956  3.3813
   58SAPC  H15Y 4414   5.851  -0.297   8.600  0.5698  0.9883 -0.6717
   58SAPC  C316 4415   6.007  -0.457   8.582  0.0550 -0.6735  0.1385
   58SAPC  H16X 4416   6.118  -0.468   8.588  0.5738  1.2822 -3.1655
   58SAPC  H16Y 4417   5.977  -0.487   8.479 -0.1719  1.2644 -0.4020
   58SAPC  C317 4418   5.942  -0.554   8.684  0.0857 -0.6449 -0.4407
   58SAPC  H17X 4419   5.834  -0.530   8.677  0.7218  2.1518 -2.2380
   58SAPC  H17Y 4420   5.963  -0.522   8.788 -1.4000 -1.9685  0.3073
   58SAPC  C318 4421   5.975  -0.699   8.660 -0.0223  0.0471 -0.4529
   58SAPC  H18X 4422   5.972  -0.757   8.754 -0.4041  0.6935 -0.0576
   58SAPC  H18Y 4423   6.076  -0.706   8.614  0.4983 -1.4661  0.8475
   58SAPC  H18Z 4424   5.900  -0.750   8.596 -1.0009  2.7402 -1.6048
   59SAPC     N 4425   6.796   2.975  11.289 -0.7236  0.2687 -0.0417
   59SAPC   C12 4426   6.897   2.914  11.193  0.6913  0.7010  0.0397
   59SAPC  H12A 4427   6.970   2.864  11.254  1.7805 -0.6184 -2.2084
   59SAPC  H12B 4428   6.948   2.994  11.142  0.1891  1.3263  0.5171
   59SAPC   C13 4429   6.686   2.878  11.324 -0.3132 -0.1984  0.1292
   59SAPC  H13A 4430   6.637   2.841  11.236  0.0014  1.7033 -0.8992
   59SAPC  H13B 4431   6.727   2.794  11.379 -2.3547 -0.6133  1.0896
   59SAPC  H13C 4432   6.614   2.927  11.387  0.6581 -0.4384  1.4806
   59SAPC   C14 4433   6.857   3.025  11.422 -0.4458 -0.5912  0.4413
   59SAPC  H14A 4434   6.785   3.064  11.492 -0.0829 -1.3974  1.2800
   59SAPC  H14B 4435   6.903   2.946  11.480  0.5408 -0.1925  0.2283
   59SAPC  H14C 4436   6.929   3.102  11.398 -0.9242 -0.1753  0.3440
   59SAPC   C15 4437   6.736   3.090  11.219  0.3887 -0.4714  0.6470
   59SAPC  H15A 4438   6.667   3.142  11.283 -1.3827  0.7270 -2.0605
   59SAPC  H15B 4439   6.803   3.163  11.174 -0.2291 -0.2602  0.0515
   59SAPC  H15C 4440   6.674   3.057  11.137  0.5405  2.8343 -0.9955
   59SAPC   C11 4441   6.839   2.817  11.082  0.0184  0.0988 -0.6723
   59SAPC  H11A 4442   6.904   2.793  10.995 -0.8998 -4.5923 -0.3550
   59SAPC  H11B 4443   6.756   2.875  11.036  0.1586  1.4414  0.6864
   59SAPC     P 4444   6.904   2.577  11.169 -0.4206  0.0581  0.2018
   59SAPC   O13 4445   6.967   2.603  11.300 -0.2132  0.1534 -0.2734
   59SAPC   O14 4446   6.836   2.446  11.158  0.5856 -0.0654 -0.3294
   59SAPC   O12 4447   6.798   2.697  11.140 -0.3244  0.1842 -0.2782
   59SAPC   O11 4448   7.009   2.591  11.053 -0.1696  0.6041 -0.0082
   59SAPC    C1 4449   7.138   2.537  11.045  0.1877 -0.1011  0.2031
   59SAPC    HA 4450   7.219   2.603  11.085  1.6976 -2.7488  1.8291
   59SAPC    HB 4451   7.148   2.446  11.108  1.3562  1.1762  1.9770
   59SAPC    C2 4452   7.184   2.494  10.900  0.5135  0.4064 -0.6682
   59SAPC    HS 4453   7.292   2.470  10.892  0.2459 -0.9290 -0.4223
   59SAPC   O21 4454   7.163   2.599  10.812 -0.2558  0.2995  0.1356
   59SAPC   C21 4455   7.205   2.723  10.830  0.2910 -0.0839  0.8468
   59SAPC   O22 4456   7.244   2.780  10.927 -0.7465 -0.5216 -0.3386
   59SAPC   C22 4457   7.150   2.792  10.705  0.6231  0.2818 -0.1322
   59SAPC   H2R 4458   7.039   2.784  10.709  0.6544 -0.5344 -0.7344
   59SAPC   H2S 4459   7.180   2.899  10.707 -0.2989  0.5460  1.9542
   59SAPC    C3 4460   7.102   2.365  10.855 -0.4679  0.7661  0.4169
   59SAPC    HX 4461   7.001   2.396  10.821 -0.7753 -0.1946  0.4505
   59SAPC    HY 4462   7.099   2.292  10.938 -0.3002 -0.0662 -0.2994
   59SAPC   O31 4463   7.174   2.312  10.737  0.0926 -0.1746  0.1124
   59SAPC   C31 4464   7.188   2.181  10.725 -0.4344 -0.0682  0.1590
   59SAPC   O32 4465   7.180   2.102  10.817 -0.5523 -0.3998 -0.2964
   59SAPC   C32 4466   7.208   2.139  10.582 -0.4653 -0.7073  1.2956
   59SAPC   H2X 4467   7.317   2.126  10.563  0.2996  1.3766  3.6828
   59SAPC   H2Y 4468   7.190   2.228  10.517  2.6088 -0.4846  0.5572
   59SAPC   C23 4469   7.206   2.733  10.575  0.0362  0.1388 -0.4272
   59SAPC   H3R 4470   7.139   2.647  10.553 -2.4153  0.9685  2.9626
   59SAPC   H3S 4471   7.310   2.694  10.587  0.4076  0.9267 -1.0079
   59SAPC   C24 4472   7.236   2.828  10.451  0.2107  0.1816 -0.4187
   59SAPC   H4R 4473   7.259   2.772  10.358  1.8557  1.1372 -0.6300
   59SAPC   H4S 4474   7.319   2.897  10.475  0.0674  0.8527 -1.7438
   59SAPC   C25 4475   7.128   2.919  10.416 -0.3144 -0.1551 -1.1700
   59SAPC   H5R 4476   7.131   3.014  10.472  0.7669 -1.6392  1.4666
   59SAPC   C26 4477   7.033   2.910  10.328  0.2145 -0.6473  0.2933
   59SAPC   H6R 4478   6.962   2.994  10.322  0.5572 -0.1860  2.1195
   59SAPC   C27 4479   7.003   2.790  10.235  0.1510  0.2350  0.1488
   59SAPC   H7R 4480   6.893   2.778  10.227  0.1595  0.1791  0.1127
   59SAPC   H7S 4481   7.052   2.695  10.263  0.8613  0.0169 -1.6791
   59SAPC   C28 4482   7.076   2.810  10.103  0.0145 -0.5759 -0.1149
   59SAPC   H8R 4483   7.186   2.816  10.102 -0.0496  0.8906 -0.0105
   59SAPC   C29 4484   7.020   2.829   9.979 -0.4774  0.3752 -0.7312
   59SAPC   H9R 4485   7.088   2.846   9.893  1.1782  0.1127  0.4810
   59SAPC  C210 4486   6.875   2.838   9.952  0.7353  0.2430 -0.5470
   59SAPC  H10R 4487   6.819   2.819  10.046 -0.0233  2.7510 -0.4170
   59SAPC  H10S 4488   6.844   2.748   9.895 -2.6059  1.8353 -1.4917
   59SAPC  C211 4489   6.819   2.970   9.906 -0.2246 -0.6459  0.3075
   59SAPC  H11R 4490   6.806   3.045   9.985  0.0444 -0.7719  0.4720
   59SAPC  C212 4491   6.789   3.002   9.775 -0.2471  0.5233  0.5377
   59SAPC  H12R 4492   6.753   3.101   9.743 -1.2035  0.0284  0.0521
   59SAPC  C213 4493   6.812   2.902   9.663 -0.5049  1.0533 -0.0591
   59SAPC  H13R 4494   6.758   2.935   9.572  1.0855  0.4643 -1.2550
   59SAPC  H13S 4495   6.774   2.798   9.677  0.1422  0.6945 -0.8747
   59SAPC  C214 4496   6.957   2.902   9.621  0.4773 -0.2507  0.6174
   59SAPC  H14R 4497   7.032   2.936   9.695 -0.4753 -0.3717  1.6596
   59SAPC  C215 4498   7.007   2.869   9.504 -0.0467  0.1274  0.2016
   59SAPC  H15R 4499   7.114   2.870   9.481 -0.5573  0.9561 -2.5369
   59SAPC  C216 4500   6.925   2.824   9.386  0.7246  0.6417  0.0640
   59SAPC  H16R 4501   6.817   2.814   9.410  1.3022 -2.6709  1.9298
   59SAPC  H16S 4502   6.961   2.735   9.331  0.1087 -0.0461  0.7427
   59SAPC  C217 4503   6.926   2.931   9.277 -0.1979  0.1745  0.7295
   59SAPC  H17R 4504   6.902   3.034   9.312 -0.2075 -0.0613  1.4389
   59SAPC  H17S 4505   6.853   2.905   9.197  0.9935  1.0250 -0.6669
   59SAPC  C218 4506   7.065   2.927   9.208  0.2496  0.3069  0.3294
   59SAPC  H18R 4507   7.070   2.831   9.152 -1.8170  0.4435 -0.1931
   59SAPC  H18S 4508   7.138   2.925   9.291 -0.4849 -0.9213  0.9825
   59SAPC  C219 4509   7.087   3.044   9.108  0.6832  0.1033 -0.2469
   59SAPC  H19R 4510   7.195   3.038   9.080  0.5504  2.1105 -1.3644
   59SAPC  H19S 4511   7.066   3.137   9.165  1.1727  0.2974 -0.3771
   59SAPC  C220 4512   6.995   3.039   8.984 -0.1379 -0.4545  0.3398
   59SAPC  H20R 4513   6.992   3.137   8.931 -2.6216  0.9061  2.7588
   59SAPC  H20S 4514   6.887   3.023   9.004 -0.7518  1.5203 -1.0588
   59SAPC  H20T 4515   7.030   2.962   8.911  0.7150 -1.5441  1.8383
   59SAPC   C33 4516   7.129   2.017  10.531 -0.1985  0.0970  0.1539
   59SAPC   H3X 4517   7.020   2.031  10.517 -0.0102  0.2960 -1.3159
   59SAPC   H3Y 4518   7.149   1.936  10.604 -0.6735 -0.0074  0.1673
   59SAPC   C34 4519   7.185   1.954  10.403  0.0502  0.2619  1.0787
   59SAPC   H4X 4520   7.142   1.852  10.389 -0.5570  0.3419  2.2019
   59SAPC   H4Y 4521   7.296   1.957  10.412 -0.0051  0.9048  1.6261
   59SAPC   C35 4522   7.139   2.032  10.277 -0.0900  0.2538 -0.1624
   59SAPC   H5X 4523   7.174   2.136  10.293 -0.2468 -0.1899  4.5934
   59SAPC   H5Y 4524   7.028   2.037  10.272 -0.1085 -0.5492 -0.7875
   59SAPC   C36 4525   7.211   1.972  10.147  1.0139 -0.4160 -0.2254
   59SAPC   H6X 4526   7.208   1.861  10.146  1.0973 -0.4891 -3.5381
   59SAPC   H6Y 4527   7.310   2.023  10.141  0.1563  1.1732 -1.6712
   59SAPC   C37 4528   7.120   2.000  10.028 -0.3108 -0.5890 -0.0648
   59SAPC   H7X 4529   7.096   2.108  10.034  1.9201 -0.0959  0.6380
   59SAPC   H7Y 4530   7.030   1.935  10.041 -0.4853 -0.0786  1.5569
   59SAPC   C38 4531   7.185   1.970   9.891  0.6227 -0.1927  0.0858
   59SAPC   H8X 4532   7.216   1.864   9.878  0.9901 -0.1109  0.2784
   59SAPC   H8Y 4533   7.281   2.026   9.894  0.2203  0.4777  0.9672
   59SAPC   C39 4534   7.095   2.017   9.780  0.2278  0.1809  0.5470
   59SAPC   H9X 4535   7.092   2.127   9.792 -0.6893 -0.0424  2.7763
   59SAPC   H9Y 4536   6.998   1.965   9.792 -0.0642 -0.5433 -3.4664
   59SAPC  C310 4537   7.147   1.984   9.635 -0.4277  0.0495 -0.2964
   59SAPC  H10X 4538   7.155   1.875   9.618 -2.6124 -0.3725  1.0036
   59SAPC  H10Y 4539   7.248   2.031   9.630 -1.0001  1.2127 -1.6224
   59SAPC  C311 4540   7.064   2.048   9.516 -0.1234  0.2071 -0.8697
   59SAPC  H11X 4541   7.076   2.158   9.528 -2.4336  0.3335  0.6826
   59SAPC  H11Y 4542   6.954   2.041   9.530 -0.2955  0.7248 -1.8445
   59SAPC  C312 4543   7.090   1.988   9.381 -0.6235  0.2438  0.4280
   59SAPC  H12X 4544   7.055   1.883   9.383 -0.4142  0.1822  1.2875
   59SAPC  H12Y 4545   7.197   1.991   9.350 -0.0360  3.7749  2.1497
   59SAPC  C313 4546   7.007   2.052   9.283 -0.4255 -0.0393  0.2289
   59SAPC  H13X 4547   7.021   2.162   9.284  0.8749 -0.1798  1.4501
   59SAPC  H13Y 4548   6.902   2.027   9.309 -0.3822 -1.0104 -0.4564
   59SAPC  C314 4549   7.021   1.993   9.142  0.0660  0.1819 -0.1739
   59SAPC  H14X 4550   6.979   1.891   9.156 -0.5009  0.4884  0.4156
   59SAPC  H14Y 4551   7.129   1.982   9.118 -0.1266 -4.0109  0.0878
   59SAPC  C315 4552   6.951   2.070   9.025  0.3672  0.1501  0.6869
   59SAPC  H15X 4553   7.004   2.163   8.995  1.3417 -0.5940  0.0639
   59SAPC  H15Y 4554   6.848   2.092   9.061 -0.2224 -0.9560 -0.2531
   59SAPC  C316 4555   6.931   1.975   8.898  0.6572  0.1603 -0.0537
   59SAPC  H16X 4556   6.895   2.043   8.818  2.5996 -0.1208 -1.2153
   59SAPC  H16Y 4557   6.849   1.902   8.916  0.2040 -0.6458 -4.2643
   59SAPC  C317 4558   7.064   1.918   8.860  0.7740  0.0399 -0.1879
   59SAPC  H17X 4559   7.052   1.853   8.771 -2.2918  1.1329 -0.6850
   59SAPC  H17Y 4560   7.109   1.855   8.941  1.7336  0.8459 -0.0858
   59SAPC  C318 4561   7.164   2.025   8.830  0.5393 -0.1743 -0.1579
   59SAPC  H18X 4562   7.264   1.981   8.812  0.9263  0.0249  1.3873
   59SAPC  H18Y 4563   7.175   2.089   8.920 -2.1216 -0.1959  0.2833
   59SAPC  H18Z 4564   7.132   2.092   8.747  1.5628 -0.2122 -0.5951
   60SAPC     N 4565   2.535   5.987  10.738  0.1602 -0.2698 -0.6673
   60SAPC   C12 4566   2.596   6.095  10.822 -0.4408 -0.2530  0.7874
   60SAPC  H12A 4567   2.587   6.069  10.926  0.0869  0.5007  1.0250
   60SAPC  H12B 4568   2.540   6.187  10.817 -0.0478 -0.0162  0.7054
   60SAPC   C13 4569   2.614   5.860  10.738  0.3412  0.6515  0.0202
   60SAPC  H13A 4570   2.712   5.864  10.692  0.2401 -4.0185 -1.0869
   60SAPC  H13B 4571   2.620   5.825  10.840 -0.6662 -0.9823 -0.4423
   60SAPC  H13C 4572   2.556   5.792  10.678  0.3819 -0.6489  1.3937
   60SAPC   C14 4573   2.398   5.951  10.793  0.4319  0.4245 -0.4057
   60SAPC  H14A 4574   2.333   6.038  10.796  3.9476  3.3066 -0.2446
   60SAPC  H14B 4575   2.350   5.878  10.730  0.8374  0.9197 -1.3156
   60SAPC  H14C 4576   2.408   5.913  10.894  0.5068 -4.4483 -2.0281
   60SAPC   C15 4577   2.525   6.028  10.596  0.2539  0.0053  0.9511
   60SAPC  H15A 4578   2.463   6.117  10.592  0.1619  0.0366  2.4102
   60SAPC  H15B 4579   2.620   6.068  10.563 -0.5201  0.0473 -1.4192
   60SAPC  H15C 4580   2.483   5.953  10.531 -0.1576  1.9783 -1.2014
   60SAPC   C11 4581   2.741   6.130  10.800  0.1264  0.7846  0.3334
   60SAPC  H11A 4582   2.807   6.043  10.822 -0.2363  0.8142  1.6484
   60SAPC  H11B 4583   2.763   6.203  10.881  1.1251 -0.0056  0.7986
   60SAPC     P 4584   2.879   6.181  10.582  0.1533 -0.1778 -0.0172
   60SAPC   O13 4585   2.979   6.267  10.652  0.3429 -0.1388  0.1464
   60SAPC   O14 4586   2.910   6.041  10.555  0.4090 -0.0564  0.1689
   60SAPC   O12 4587   2.752   6.184  10.668 -0.5237 -0.0591 -0.8835
   60SAPC   O11 4588   2.834   6.258  10.445 -0.1308  0.1068 -0.2233
   60SAPC    C1 4589   2.725   6.204  10.376  0.1191 -0.2377 -0.1487
   60SAPC    HA 4590   2.752   6.102  10.342 -1.7259 -1.0887  0.7785
   60SAPC    HB 4591   2.635   6.199  10.441  0.9269  2.5184  1.3142
   60SAPC    C2 4592   2.679   6.297  10.260 -0.2302 -0.0176 -0.0505
   60SAPC    HS 4593   2.615   6.240  10.189  0.1861 -1.3462  0.5991
   60SAPC   O21 4594   2.805   6.335  10.196 -0.2007  0.0920 -0.1532
   60SAPC   C21 4595   2.855   6.239  10.116 -0.3927 -0.0600 -0.2611
   60SAPC   O22 4596   2.795   6.138  10.079 -0.6530 -0.2010 -0.1667
   60SAPC   C22 4597   2.998   6.274  10.080 -0.5923  0.8952  0.3659
   60SAPC   H2R 4598   3.016   6.383  10.092 -0.0255  0.7798  0.6123
   60SAPC   H2S 4599   3.063   6.228  10.157 -2.8156 -0.5372  1.4882
   60SAPC    C3 4600   2.601   6.421  10.318 -1.0801  0.1562 -0.3564
   60SAPC    HX 4601   2.665   6.469  10.395 -0.2115 -1.0152 -0.3230
   60SAPC    HY 4602   2.518   6.383  10.380 -0.3027 -2.5950 -0.8423
   60SAPC   O31 4603   2.560   6.523  10.229  0.3147 -0.4296  0.0791
   60SAPC   C31 4604   2.480   6.494  10.128  0.3609 -0.4828 -0.3256
   60SAPC   O32 4605   2.437   6.386  10.104  0.1607  0.5507  0.2028
   60SAPC   C32 4606   2.475   6.621  10.045  0.1642  0.4808 -0.1227
   60SAPC   H2X 4607   2.528   6.707  10.091  2.7139 -0.2318 -1.5415
   60SAPC   H2Y 4608   2.366   6.645  10.040 -0.3870 -1.9738 -2.7124
   60SAPC   C23 4609   3.030   6.237   9.933  0.3953  0.0123 -0.1781
   60SAPC   H3R 4610   3.025   6.129   9.907 -0.5664 -0.0070  0.0312
   60SAPC   H3S 4611   3.134   6.270   9.912 -0.4172  2.0956 -1.1993
   60SAPC   C24 4612   2.928   6.308   9.832 -0.4950  0.7185  0.3824
   60SAPC   H4R 4613   2.823   6.298   9.868 -1.1233  0.8881 -1.2816
   60SAPC   H4S 4614   2.933   6.261   9.731  1.6353  0.6481  0.4893
   60SAPC   C25 4615   2.978   6.448   9.827 -0.3827  0.2842  0.1787
   60SAPC   H5R 4616   2.989   6.502   9.922  0.3552 -1.9379  1.4349
   60SAPC   C26 4617   2.995   6.516   9.713  0.4724  0.1636 -0.1389
   60SAPC   H6R 4618   3.025   6.622   9.711 -1.2515  0.6825 -0.8486
   60SAPC   C27 4619   2.974   6.467   9.573  0.1212 -0.2715 -0.0244
   60SAPC   H7R 4620   2.864   6.462   9.557 -0.0020 -2.1932  1.1068
   60SAPC   H7S 4621   3.005   6.361   9.564  2.5183  0.3380  0.4230
   60SAPC   C28 4622   3.024   6.555   9.461 -0.1112 -0.5350  0.1379
   60SAPC   H8R 4623   3.042   6.661   9.482  2.7227 -0.9070  0.0803
   60SAPC   C29 4624   3.027   6.519   9.327 -0.0687 -0.2912 -0.5133
   60SAPC   H9R 4625   3.062   6.586   9.247  0.9751 -1.3470 -0.9587
   60SAPC  C210 4626   2.983   6.388   9.267 -0.2145  0.2911  0.3616
   60SAPC  H10R 4627   2.904   6.349   9.334  0.5763 -0.5108  0.8540
   60SAPC  H10S 4628   3.068   6.317   9.267 -0.8792 -0.5135  0.5073
   60SAPC  C211 4629   2.937   6.396   9.123 -0.4482 -0.3681  0.3379
   60SAPC  H11R 4630   2.828   6.381   9.114 -0.4358 -1.1202  1.2656
   60SAPC  C212 4631   3.016   6.412   9.016  0.0708  0.0351  0.7858
   60SAPC  H12R 4632   2.968   6.426   8.918 -1.5510 -1.0979  1.3640
   60SAPC  C213 4633   3.171   6.425   9.027  0.5384  0.0130  0.3021
   60SAPC  H13R 4634   3.202   6.472   9.122  0.8465  2.2369 -0.8277
   60SAPC  H13S 4635   3.205   6.507   8.960 -0.7498 -0.4794 -1.0196
   60SAPC  C214 4636   3.240   6.295   8.989  0.7556  0.1767  0.2168
   60SAPC  H14R 4637   3.250   6.219   9.068 -1.5491 -0.2794  0.1463
   60SAPC  C215 4638   3.291   6.269   8.869  0.4419  1.0342 -0.1109
   60SAPC  H15R 4639   3.336   6.169   8.863 -1.2032  0.2700 -0.4317
   60SAPC  C216 4640   3.287   6.346   8.736 -0.0357  0.6478  0.1335
   60SAPC  H16R 4641   3.240   6.446   8.746  0.2469  0.6517  1.6834
   60SAPC  H16S 4642   3.241   6.285   8.656 -1.8605 -0.6643  2.0485
   60SAPC  C217 4643   3.428   6.375   8.682 -0.3554  0.3966 -0.6663
   60SAPC  H17R 4644   3.474   6.281   8.644 -1.5146  0.0472 -1.2201
   60SAPC  H17S 4645   3.493   6.408   8.767  1.3952  1.1634 -2.2202
   60SAPC  C218 4646   3.428   6.463   8.561 -0.5935  0.3995 -0.3253
   60SAPC  H18R 4647   3.416   6.572   8.584  0.3106  0.7494 -1.4312
   60SAPC  H18S 4648   3.353   6.424   8.489  0.4013 -0.2186 -1.0501
   60SAPC  C219 4649   3.562   6.446   8.491  0.6612  0.0876 -0.6075
   60SAPC  H19R 4650   3.563   6.338   8.465  0.1331 -0.4478  1.4011
   60SAPC  H19S 4651   3.646   6.477   8.557  2.0209  1.5118 -2.8787
   60SAPC  C220 4652   3.579   6.526   8.365  0.4973  0.0544 -0.2635
   60SAPC  H20R 4653   3.591   6.636   8.377  2.8794  0.1446 -2.5626
   60SAPC  H20S 4654   3.508   6.506   8.282  0.8617  0.9610 -0.8032
   60SAPC  H20T 4655   3.674   6.487   8.325  0.8778  2.4448 -1.9462
   60SAPC   C33 4656   2.535   6.593   9.906  0.4714 -0.4026  0.4229
   60SAPC   H3X 4657   2.484   6.501   9.871  1.8127 -0.5220 -1.3811
   60SAPC   H3Y 4658   2.643   6.575   9.928  0.2366 -1.4472  0.7679
   60SAPC   C34 4659   2.509   6.696   9.795  0.0795  0.1999  0.1234
   60SAPC   H4X 4660   2.502   6.797   9.839 -0.3474 -0.7972  2.5202
   60SAPC   H4Y 4661   2.413   6.674   9.744  0.2417  1.1202 -0.6137
   60SAPC   C35 4662   2.612   6.684   9.680 -0.5568  0.0981 -0.0695
   60SAPC   H5X 4663   2.632   6.578   9.655 -1.1341  0.1395 -0.7774
   60SAPC   H5Y 4664   2.712   6.729   9.698 -0.0870 -1.7144  2.1596
   60SAPC   C36 4665   2.550   6.726   9.546  0.3343  0.1414  0.1546
   60SAPC   H6X 4666   2.532   6.835   9.551 -0.5088  0.0865 -1.2375
   60SAPC   H6Y 4667   2.458   6.666   9.534 -0.4594  0.6363  3.0385
   60SAPC   C37 4668   2.653   6.704   9.437 -1.3534  0.5577  0.1977
   60SAPC   H7X 4669   2.651   6.595   9.414  0.4032  0.7252 -0.9393
   60SAPC   H7Y 4670   2.758   6.728   9.466 -0.0921 -0.5552 -2.9811
   60SAPC   C38 4671   2.607   6.763   9.304  0.3367 -0.9755 -0.8480
   60SAPC   H8X 4672   2.594   6.871   9.327  2.2405 -0.7189 -0.8333
   60SAPC   H8Y 4673   2.510   6.720   9.269 -0.2340 -0.5501  0.1544
   60SAPC   C39 4674   2.704   6.752   9.188 -0.0903 -0.4689  0.2400
   60SAPC   H9X 4675   2.724   6.648   9.155 -0.0678 -0.2487 -0.4541
   60SAPC   H9Y 4676   2.798   6.800   9.222 -1.7676  1.8356  1.9250
   60SAPC  C310 4677   2.654   6.833   9.060  0.0731 -0.7979  0.3713
   60SAPC  H10X 4678   2.646   6.939   9.093  0.9532  0.2198 -2.4112
   60SAPC  H10Y 4679   2.550   6.812   9.026  0.3897 -1.0189 -0.4748
   60SAPC  C311 4680   2.755   6.829   8.937 -0.3361  0.3574  0.5454
   60SAPC  H11X 4681   2.859   6.842   8.974  0.9748 -2.3394 -1.8021
   60SAPC  H11Y 4682   2.736   6.903   8.856 -0.7829 -0.1258  0.2019
   60SAPC  C312 4683   2.756   6.688   8.868 -0.1765 -0.5818 -0.5786
   60SAPC  H12X 4684   2.653   6.663   8.835  0.4510 -0.7639 -2.5285
   60SAPC  H12Y 4685   2.791   6.610   8.939 -2.2374 -0.0226  1.1422
   60SAPC  C313 4686   2.842   6.702   8.740  0.5948 -0.0416 -0.1044
   60SAPC  H13X 4687   2.807   6.801   8.704 -0.8270 -0.0061  1.2402
   60SAPC  H13Y 4688   2.799   6.624   8.673  0.6478  0.4893 -0.7578
   60SAPC  C314 4689   2.992   6.694   8.764 -0.6608 -0.6554  0.6765
   60SAPC  H14X 4690   3.017   6.591   8.797 -3.0526 -1.4228  0.2688
   60SAPC  H14Y 4691   3.036   6.770   8.832  0.9156 -0.6907 -0.2449
   60SAPC  C315 4692   3.060   6.721   8.630 -0.8439 -0.1536  0.8536
   60SAPC  H15X 4693   3.000   6.670   8.552 -1.8983  0.2231  1.4114
   60SAPC  H15Y 4694   3.160   6.672   8.640 -0.6181  0.5553  2.2159
   60SAPC  C316 4695   3.085   6.872   8.598 -0.0569  1.6901 -0.1797
   60SAPC  H16X 4696   3.158   6.911   8.672  1.4111 -2.3607  0.7579
   60SAPC  H16Y 4697   2.985   6.918   8.585 -0.9506 -0.0335  0.2625
   60SAPC  C317 4698   3.160   6.895   8.462 -0.5991 -0.9277  0.4202
   60SAPC  H17X 4699   3.105   6.836   8.385  0.0564 -1.3934  0.2965
   60SAPC  H17Y 4700   3.253   6.838   8.484  0.2914  1.4912  3.6917
   60SAPC  C318 4701   3.178   7.046   8.409 -0.8466 -0.0969  0.0434
   60SAPC  H18X 4702   3.213   7.105   8.497  0.2716 -1.2862  0.4129
   60SAPC  H18Y 4703   3.083   7.082   8.364  0.1153 -0.6111 -2.5668
   60SAPC  H18Z 4704   3.252   7.046   8.327 -0.3449  0.6898  0.4775
   61SAPC     N 4705   2.923   5.071  10.821  0.2504  0.3609  0.0598
   61SAPC   C12 4706   2.936   4.921  10.803 -0.2732  0.3921  0.0007
   61SAPC  H12A 4707   3.042   4.901  10.799 -0.1873  1.0400 -3.1913
   61SAPC  H12B 4708   2.905   4.891  10.705 -0.9871 -1.2728  0.7066
   61SAPC   C13 4709   3.039   5.135  10.751  0.8657 -0.4362  0.3117
   61SAPC  H13A 4710   3.136   5.115  10.793  2.1007  1.9862 -1.2343
   61SAPC  H13B 4711   3.044   5.122  10.644  1.2197 -0.4800  0.3319
   61SAPC  H13C 4712   3.037   5.241  10.768  2.5734 -0.2343 -0.6433
   61SAPC   C14 4713   2.791   5.131  10.771  0.8778 -0.1935 -0.1164
   61SAPC  H14A 4714   2.800   5.238  10.776  2.0712 -0.2080 -1.4218
   61SAPC  H14B 4715   2.782   5.087  10.673  2.2776  0.2681 -0.4779
   61SAPC  H14C 4716   2.702   5.098  10.824  0.7499 -1.1675 -0.9023
   61SAPC   C15 4717   2.923   5.113  10.970 -0.0162  0.3171 -0.2259
   61SAPC  H15A 4718   2.950   5.217  10.978  0.6380  0.3732 -2.4603
   61SAPC  H15B 4719   2.826   5.116  11.016  0.4068 -0.3454  0.7478
   61SAPC  H15C 4720   2.996   5.060  11.030 -0.9835  1.8776  2.5033
   61SAPC   C11 4721   2.867   4.836  10.914  0.7995  0.8015 -0.2669
   61SAPC  H11A 4722   2.757   4.852  10.926  0.8018 -0.4593  1.8968
   61SAPC  H11B 4723   2.901   4.852  11.019  0.3744 -1.4582  0.2771
   61SAPC     P 4724   2.801   4.608  10.799 -0.1562 -0.4042 -0.0274
   61SAPC   O13 4725   2.746   4.496  10.886  0.6169 -0.4995  0.5508
   61SAPC   O14 4726   2.707   4.709  10.740  0.8863 -0.3965  0.2851
   61SAPC   O12 4727   2.899   4.697  10.883  0.1638  0.0484 -0.1524
   61SAPC   O11 4728   2.883   4.546  10.685  0.4010  0.2726  0.3346
   61SAPC    C1 4729   2.972   4.598  10.594  0.0789 -0.3534  0.3787
   61SAPC    HA 4730   2.976   4.706  10.620 -2.2365 -0.3470  0.8520
   61SAPC    HB 4731   3.078   4.565  10.605  0.9189  1.4601 -1.5194
   61SAPC    C2 4732   2.924   4.584  10.442  0.2281 -0.9307  0.0397
   61SAPC    HS 4733   2.929   4.476  10.418  0.8607 -0.8628 -0.1447
   61SAPC   O21 4734   3.005   4.663  10.357 -0.7351 -0.2819 -0.0666
   61SAPC   C21 4735   3.117   4.597  10.319 -0.3344 -0.8480  0.4116
   61SAPC   O22 4736   3.147   4.482  10.349  1.0161  0.1061 -0.0777
   61SAPC   C22 4737   3.206   4.691  10.242 -0.2995 -0.0105 -0.4547
   61SAPC   H2R 4738   3.144   4.765  10.186 -0.1653  0.9244  0.5861
   61SAPC   H2S 4739   3.258   4.757  10.315 -0.4021 -1.4916  1.0228
   61SAPC    C3 4740   2.778   4.616  10.435  0.0165 -0.2551 -0.5139
   61SAPC    HX 4741   2.774   4.719  10.477  1.3207 -0.0130 -0.9289
   61SAPC    HY 4742   2.722   4.561  10.514  0.1006  3.1847  2.1908
   61SAPC   O31 4743   2.731   4.598  10.301 -0.0796 -0.1252 -0.3337
   61SAPC   C31 4744   2.605   4.632  10.282  0.2034 -0.0340 -0.1039
   61SAPC   O32 4745   2.530   4.692  10.359  0.1766  0.2570 -0.4042
   61SAPC   C32 4746   2.578   4.613  10.129  0.3875  0.0523  0.1131
   61SAPC   H2X 4747   2.651   4.678  10.077  1.3399  0.2948  1.6694
   61SAPC   H2Y 4748   2.472   4.641  10.111  0.0849 -0.1763  1.3678
   61SAPC   C23 4749   3.315   4.618  10.164  0.8974 -0.3923 -0.3375
   61SAPC   H3R 4750   3.258   4.581  10.076 -1.3534 -2.1269  1.7091
   61SAPC   H3S 4751   3.357   4.526  10.210  0.0088 -1.2080 -1.1203
   61SAPC   C24 4752   3.432   4.706  10.123 -0.7051  0.2395 -1.1180
   61SAPC   H4R 4753   3.505   4.644  10.067  0.8964  0.7049  0.3761
   61SAPC   H4S 4754   3.490   4.722  10.216  0.9541  0.4592 -2.1542
   61SAPC   C25 4755   3.406   4.830  10.047 -0.3157 -0.9768  0.2031
   61SAPC   H5R 4756   3.344   4.902  10.103 -0.3673 -0.1018 -0.9610
   61SAPC   C26 4757   3.439   4.857   9.918  0.6899  0.3105  0.5287
   61SAPC   H6R 4758   3.415   4.954   9.873  1.8281 -0.4516 -1.9064
   61SAPC   C27 4759   3.515   4.762   9.819  0.1034 -1.0192 -0.3436
   61SAPC   H7R 4760   3.583   4.682   9.856 -0.5391 -1.5325 -0.2418
   61SAPC   H7S 4761   3.580   4.829   9.759  0.6626 -1.6941 -0.4991
   61SAPC   C28 4762   3.411   4.692   9.732 -0.1074  0.4193 -0.1053
   61SAPC   H8R 4763   3.365   4.608   9.787 -1.6594  1.9807  1.1241
   61SAPC   C29 4764   3.363   4.723   9.609 -0.4569 -0.2107  0.5006
   61SAPC   H9R 4765   3.277   4.657   9.588  0.0835 -0.7036 -0.2061
   61SAPC  C210 4766   3.402   4.838   9.517  0.2557 -0.4394  0.2713
   61SAPC  H10R 4767   3.483   4.904   9.556  0.3484 -0.6805  0.4861
   61SAPC  H10S 4768   3.320   4.913   9.510  0.5295 -0.0326  1.3043
   61SAPC  C211 4769   3.424   4.778   9.381 -0.3678 -1.2038 -0.4112
   61SAPC  H11R 4770   3.490   4.690   9.382  0.8684 -0.3469  2.2043
   61SAPC  C212 4771   3.371   4.817   9.270  0.3179  0.0408  0.4595
   61SAPC  H12R 4772   3.398   4.763   9.178 -1.1820 -1.4764  0.8377
   61SAPC  C213 4773   3.274   4.935   9.236 -0.4491  0.0578 -0.1796
   61SAPC  H13R 4774   3.246   4.991   9.328  0.5439 -1.8790  1.3897
   61SAPC  H13S 4775   3.189   4.884   9.186  1.8592 -2.2545 -2.0175
   61SAPC  C214 4776   3.346   5.030   9.150 -0.5675 -0.3470 -0.4324
   61SAPC  H14R 4777   3.411   5.099   9.205  1.2893 -1.7114 -0.8020
   61SAPC  C215 4778   3.359   5.039   9.019 -0.0553  0.7900  0.2430
   61SAPC  H15R 4779   3.431   5.111   8.976 -1.5135  1.4706 -1.2042
   61SAPC  C216 4780   3.298   4.953   8.916  0.9433 -0.5040 -0.2442
   61SAPC  H16R 4781   3.309   4.851   8.958  2.4788  0.0280  0.6888
   61SAPC  H16S 4782   3.342   4.956   8.814 -0.9692  1.4363 -1.0946
   61SAPC  C217 4783   3.147   4.997   8.895  0.5931  0.5644  0.4176
   61SAPC  H17R 4784   3.139   5.097   8.848 -0.7274  0.0173 -0.5772
   61SAPC  H17S 4785   3.097   5.009   8.994 -2.4178  1.3246 -1.0767
   61SAPC  C218 4786   3.068   4.890   8.809 -0.2969  0.2130  1.0197
   61SAPC  H18R 4787   3.101   4.789   8.840 -4.1269 -2.3407 -2.2349
   61SAPC  H18S 4788   3.112   4.913   8.709 -0.0512  2.2251  1.5399
   61SAPC  C219 4789   2.920   4.913   8.811  0.8003  0.3849  0.3149
   61SAPC  H19R 4790   2.872   4.926   8.911 -2.3092 -2.8280 -0.5879
   61SAPC  H19S 4791   2.881   4.818   8.769 -0.6347  0.7149  0.8271
   61SAPC  C220 4792   2.878   5.030   8.724 -0.4302 -0.3699  0.0140
   61SAPC  H20R 4793   2.935   5.120   8.757  1.4311 -0.9473 -1.4433
   61SAPC  H20S 4794   2.769   5.046   8.735 -0.6888 -0.9044 -1.5594
   61SAPC  H20T 4795   2.882   5.000   8.617 -0.2222 -2.0192  0.4491
   61SAPC   C33 4796   2.603   4.464  10.087  0.5914 -0.2010 -0.4021
   61SAPC   H3X 4797   2.525   4.409  10.144  2.0332  0.9844  2.9332
   61SAPC   H3Y 4798   2.710   4.439  10.099  0.1951 -1.1115  1.5891
   61SAPC   C34 4799   2.585   4.449   9.936 -0.6502 -0.1301  0.6038
   61SAPC   H4X 4800   2.667   4.512   9.894 -0.3624  0.0779  1.4611
   61SAPC   H4Y 4801   2.491   4.491   9.894  0.5073  1.3752 -0.6386
   61SAPC   C35 4802   2.609   4.306   9.877 -0.3630  0.1255  0.1722
   61SAPC   H5X 4803   2.525   4.238   9.902  1.2222 -2.6637 -1.5242
   61SAPC   H5Y 4804   2.691   4.257   9.934 -0.5290  0.3987  0.6546
   61SAPC   C36 4805   2.659   4.297   9.733 -0.0085 -0.0671 -0.0204
   61SAPC   H6X 4806   2.692   4.191   9.719 -0.4916 -0.4048  1.3117
   61SAPC   H6Y 4807   2.742   4.366   9.706  0.2583 -0.5462 -0.4560
   61SAPC   C37 4808   2.550   4.318   9.627  0.2430 -0.0406  0.9418
   61SAPC   H7X 4809   2.501   4.417   9.636 -3.1081 -1.2504 -1.3923
   61SAPC   H7Y 4810   2.475   4.239   9.651 -0.4405 -0.0965 -1.1656
   61SAPC   C38 4811   2.589   4.301   9.478  0.0714  0.3216 -0.1777
   61SAPC   H8X 4812   2.629   4.203   9.443  2.8688  2.0619 -2.1380
   61SAPC   H8Y 4813   2.664   4.378   9.453 -0.3163  0.6454 -0.3600
   61SAPC   C39 4814   2.457   4.314   9.399  0.9361  1.0201  0.6022
   61SAPC   H9X 4815   2.416   4.417   9.394 -0.2672  0.6577  2.0503
   61SAPC   H9Y 4816   2.378   4.248   9.440  1.2444 -1.0214 -1.8774
   61SAPC  C310 4817   2.464   4.281   9.244 -0.0462 -0.0015  0.3471
   61SAPC  H10X 4818   2.362   4.300   9.205  0.2383 -0.5176 -0.6818
   61SAPC  H10Y 4819   2.492   4.174   9.234  0.3059  0.2954 -2.6574
   61SAPC  C311 4820   2.578   4.363   9.183  0.1382 -0.3295  0.2177
   61SAPC  H11X 4821   2.678   4.330   9.217  0.0646 -0.0749  0.6981
   61SAPC  H11Y 4822   2.558   4.467   9.219 -0.6545 -1.0415  1.9651
   61SAPC  C312 4823   2.559   4.371   9.033 -0.1806 -0.1873  0.1438
   61SAPC  H12X 4824   2.479   4.440   8.998 -0.1274 -0.0599  0.2727
   61SAPC  H12Y 4825   2.534   4.269   8.998  1.8054 -1.4763  2.2290
   61SAPC  C313 4826   2.697   4.411   8.963  0.5273 -0.0877 -0.1226
   61SAPC  H13X 4827   2.761   4.321   8.972 -1.7875 -2.1218 -2.1343
   61SAPC  H13Y 4828   2.749   4.498   9.006 -0.3190  0.7234 -0.6916
   61SAPC  C314 4829   2.679   4.433   8.805  0.1997 -0.5799 -0.2798
   61SAPC  H14X 4830   2.601   4.510   8.791  0.1703 -0.6478 -0.4910
   61SAPC  H14Y 4831   2.651   4.340   8.751  2.9584 -0.0332 -2.8919
   61SAPC  C315 4832   2.814   4.482   8.750  0.0036 -0.2462 -0.3595
   61SAPC  H15X 4833   2.884   4.397   8.761  2.0056  1.2595 -0.8616
   61SAPC  H15Y 4834   2.851   4.559   8.821 -2.1707 -0.1446  0.7425
   61SAPC  C316 4835   2.789   4.542   8.610  0.2452 -0.3908 -0.0951
   61SAPC  H16X 4836   2.709   4.619   8.617 -0.7665 -1.3699 -0.5425
   61SAPC  H16Y 4837   2.756   4.457   8.547  0.5307  0.5196 -1.5267
   61SAPC  C317 4838   2.909   4.596   8.531  0.6302  0.7456 -0.1450
   61SAPC  H17X 4839   2.991   4.521   8.524 -0.3738 -0.2198 -2.7770
   61SAPC  H17Y 4840   2.948   4.681   8.592  1.3050 -1.1167  2.2134
   61SAPC  C318 4841   2.873   4.648   8.397 -0.2756 -0.4122 -0.0123
   61SAPC  H18X 4842   2.963   4.680   8.341  0.6402 -2.6971  0.0666
   61SAPC  H18Y 4843   2.811   4.738   8.419  1.9755  1.0003  0.9183
   61SAPC  H18Z 4844   2.822   4.577   8.329  1.4099 -2.6516  0.9494
   62SAPC     N 4845   3.195   4.012  10.735 -0.3622  0.7680  0.2805
   62SAPC   C12 4846   3.059   4.026  10.675  0.9417 -0.0428 -0.3096
   62SAPC  H12A 4847   3.037   4.115  10.619 -0.6034 -1.4595 -2.0868
   62SAPC  H12B 4848   2.993   4.035  10.759 -0.6522 -0.0722 -1.5166
   62SAPC   C13 4849   3.261   4.139  10.771  0.2541 -0.5673  0.0513
   62SAPC  H13A 4850   3.193   4.196  10.833  0.5326  2.4606 -2.1841
   62SAPC  H13B 4851   3.352   4.128  10.828  0.7636  2.3384 -0.0063
   62SAPC  H13C 4852   3.274   4.205  10.686 -0.0168 -0.2657  0.2417
   62SAPC   C14 4853   3.187   3.928  10.866 -0.9213 -0.1100 -0.3148
   62SAPC  H14A 4854   3.151   3.830  10.840 -0.5191 -0.6299  0.9903
   62SAPC  H14B 4855   3.284   3.913  10.911 -0.3034 -2.2366 -2.1949
   62SAPC  H14C 4856   3.116   3.974  10.934 -0.3586  2.6024 -1.4559
   62SAPC   C15 4857   3.288   3.941  10.647 -0.2790  0.3125  0.3993
   62SAPC  H15A 4858   3.246   3.852  10.603  1.6095  0.8405 -2.8524
   62SAPC  H15B 4859   3.306   3.994  10.554  1.7643 -0.3316  0.3699
   62SAPC  H15C 4860   3.375   3.912  10.704 -1.2534 -1.6321  0.9653
   62SAPC   C11 4861   2.997   3.893  10.617  0.5583  0.3898 -0.6629
   62SAPC  H11A 4862   3.001   3.808  10.689  0.2723  2.9858  2.6765
   62SAPC  H11B 4863   3.039   3.854  10.522  0.3890  0.4325 -0.7555
   62SAPC     P 4864   2.734   3.946  10.685 -0.2197 -0.2454 -0.7427
   62SAPC   O13 4865   2.676   3.813  10.715 -0.0185  0.2693 -0.5907
   62SAPC   O14 4866   2.775   4.021  10.807 -0.0451  0.1894 -0.0695
   62SAPC   O12 4867   2.857   3.918  10.590 -0.3114  0.3810  0.8654
   62SAPC   O11 4868   2.637   4.034  10.603 -0.0005 -0.0413  0.0423
   62SAPC    C1 4869   2.676   4.170  10.572  0.5714  0.7462 -0.0428
   62SAPC    HA 4870   2.598   4.241  10.607 -0.0776 -0.3664  0.8723
   62SAPC    HB 4871   2.774   4.196  10.617  1.5663 -1.4226 -0.8480
   62SAPC    C2 4872   2.683   4.197  10.421 -0.0679 -0.7274 -0.6891
   62SAPC    HS 4873   2.691   4.306  10.408 -0.3532 -1.0212 -4.0901
   62SAPC   O21 4874   2.565   4.145  10.359  0.2627  0.0295 -0.3964
   62SAPC   C21 4875   2.463   4.223  10.383 -0.2853 -0.2663 -0.1906
   62SAPC   O22 4876   2.462   4.335  10.434 -0.0853 -0.4098 -0.1066
   62SAPC   C22 4877   2.343   4.159  10.311 -0.0727 -0.2034 -0.1917
   62SAPC   H2R 4878   2.330   4.220  10.220  0.7753  1.5096  0.7851
   62SAPC   H2S 4879   2.365   4.051  10.295  1.2067  0.1468 -0.9350
   62SAPC    C3 4880   2.809   4.125  10.361  0.1891 -0.5611 -0.0282
   62SAPC    HX 4881   2.782   4.018  10.370 -0.6919 -0.3179  0.3698
   62SAPC    HY 4882   2.895   4.152  10.426  0.3721  1.9162 -1.1665
   62SAPC   O31 4883   2.835   4.178  10.223 -0.2327  0.8820  0.2398
   62SAPC   C31 4884   2.961   4.165  10.193  0.7077 -1.0254  0.8551
   62SAPC   O32 4885   3.044   4.111  10.260 -0.3955  0.4396 -0.6690
   62SAPC   C32 4886   2.977   4.239  10.055  0.4305 -0.4633 -0.3045
   62SAPC   H2X 4887   2.909   4.326  10.051  1.3126  0.2214 -0.9675
   62SAPC   H2Y 4888   2.953   4.165   9.976  1.1311 -3.3946  2.0561
   62SAPC   C23 4889   2.209   4.153  10.401 -0.4015 -0.7458  0.7417
   62SAPC   H3R 4890   2.178   4.254  10.434  1.0567  0.7345 -2.0309
   62SAPC   H3S 4891   2.239   4.102  10.495 -2.6795  0.3267  2.1006
   62SAPC   C24 4892   2.083   4.084  10.332  0.0705 -0.5491 -0.4390
   62SAPC   H4R 4893   2.045   4.150  10.251 -2.8900  0.2777  1.4509
   62SAPC   H4S 4894   1.998   4.092  10.403  1.3213  1.4552  0.9358
   62SAPC   C25 4895   2.099   3.939  10.312 -0.3654  0.1038  0.3503
   62SAPC   H5R 4896   2.092   3.878  10.403 -0.8808  0.8231  0.8037
   62SAPC   C26 4897   2.126   3.878  10.195  1.1131 -0.9950 -0.0618
   62SAPC   H6R 4898   2.153   3.771  10.194  1.5089 -0.8943 -0.7262
   62SAPC   C27 4899   2.156   3.952  10.064  0.4447  0.2264 -0.2296
   62SAPC   H7R 4900   2.251   3.910  10.024  0.9933  1.0265  0.2109
   62SAPC   H7S 4901   2.187   4.057  10.081 -0.0523  0.0423  2.2293
   62SAPC   C28 4902   2.026   3.951   9.984 -0.3418  0.5295  0.3705
   62SAPC   H8R 4903   1.931   3.959  10.037 -0.6192 -0.8901  0.1320
   62SAPC   C29 4904   2.026   3.944   9.846 -0.2551 -0.0410 -1.1902
   62SAPC   H9R 4905   1.926   3.944   9.800 -0.6256 -1.2249 -0.4450
   62SAPC  C210 4906   2.152   3.949   9.757 -0.4338  0.1557 -0.0322
   62SAPC  H10R 4907   2.115   3.910   9.660 -3.1119 -1.1157  1.3856
   62SAPC  H10S 4908   2.224   3.870   9.786 -0.8226  0.0998  0.8204
   62SAPC  C211 4909   2.228   4.080   9.755  1.0568  0.3662  0.5669
   62SAPC  H11R 4910   2.328   4.075   9.801  1.0137  1.2674  0.7679
   62SAPC  C212 4911   2.194   4.193   9.689  0.3231 -0.3993  0.5246
   62SAPC  H12R 4912   2.260   4.281   9.682 -0.7372  0.3712 -0.1300
   62SAPC  C213 4913   2.068   4.211   9.598 -0.4597 -0.0291 -0.7255
   62SAPC  H13R 4914   2.014   4.115   9.589  0.7537 -0.9071  0.8422
   62SAPC  H13S 4915   2.108   4.240   9.498 -1.0947  1.0949 -0.6731
   62SAPC  C214 4916   1.968   4.316   9.648 -0.0943 -0.7645  0.1051
   62SAPC  H14R 4917   1.882   4.284   9.708 -1.3392  1.5458 -0.3242
   62SAPC  C215 4918   1.955   4.439   9.598 -0.2199  0.2502  0.4672
   62SAPC  H15R 4919   1.880   4.513   9.629 -1.1211 -0.0035 -1.0052
   62SAPC  C216 4920   2.042   4.498   9.497 -0.1456 -0.4316 -0.2237
   62SAPC  H16R 4921   2.149   4.469   9.500 -0.3822 -1.2431  2.1628
   62SAPC  H16S 4922   2.051   4.606   9.522  1.3783 -0.8921  1.3996
   62SAPC  C217 4923   1.981   4.480   9.357 -0.1404 -0.0743 -0.6266
   62SAPC  H17R 4924   1.881   4.526   9.352 -0.1472 -0.2380 -2.7783
   62SAPC  H17S 4925   1.988   4.372   9.329  2.7109 -0.7100  1.9823
   62SAPC  C218 4926   2.046   4.580   9.247  1.1866 -0.0003  0.0632
   62SAPC  H18R 4927   2.065   4.679   9.294 -2.1034  0.5323  0.5044
   62SAPC  H18S 4928   1.975   4.586   9.162  3.2980  2.4610 -1.6791
   62SAPC  C219 4929   2.173   4.516   9.195 -0.2411 -0.2959  0.4164
   62SAPC  H19R 4930   2.156   4.418   9.146  3.4849 -0.9757  0.2135
   62SAPC  H19S 4931   2.247   4.504   9.276 -1.0007  1.6548  1.4795
   62SAPC  C220 4932   2.218   4.615   9.085 -0.2010  0.0690  0.5340
   62SAPC  H20R 4933   2.245   4.715   9.127  0.8042 -0.4159  1.0842
   62SAPC  H20S 4934   2.136   4.637   9.014  0.1803  0.3553  0.1752
   62SAPC  H20T 4935   2.306   4.572   9.032 -0.9369 -2.3528  1.1626
   62SAPC   C33 4936   3.114   4.291  10.021  0.3474 -0.2084  0.4543
   62SAPC   H3X 4937   3.197   4.216  10.014  2.4385  2.0849 -0.7905
   62SAPC   H3Y 4938   3.142   4.356  10.107 -0.4649  2.2863 -1.0871
   62SAPC   C34 4939   3.110   4.379   9.900  0.7706  0.5969 -0.2727
   62SAPC   H4X 4940   3.202   4.441   9.893  1.2445 -0.0863 -0.1843
   62SAPC   H4Y 4941   3.026   4.451   9.891 -1.0840 -1.4486 -0.3497
   62SAPC   C35 4942   3.094   4.306   9.766 -0.0907 -0.0950  0.1005
   62SAPC   H5X 4943   2.990   4.272   9.744  0.3862 -1.3184 -0.3805
   62SAPC   H5Y 4944   3.158   4.215   9.758  1.1410  0.6754  0.9551
   62SAPC   C36 4945   3.125   4.390   9.645 -0.0759 -0.0782  0.2416
   62SAPC   H6X 4946   3.210   4.459   9.662 -0.2528  0.2721 -0.2739
   62SAPC   H6Y 4947   3.037   4.456   9.624 -0.3128 -0.2027  0.8315
   62SAPC   C37 4948   3.160   4.296   9.525  0.1552 -0.2997  0.3623
   62SAPC   H7X 4949   3.067   4.240   9.502  0.5211 -0.6459 -0.3189
   62SAPC   H7Y 4950   3.228   4.217   9.563 -0.9088  0.2312  3.7648
   62SAPC   C38 4951   3.231   4.368   9.403  0.7570 -0.1910  0.9825
   62SAPC   H8X 4952   3.248   4.289   9.327 -0.2070  0.2268  0.3206
   62SAPC   H8Y 4953   3.322   4.411   9.451  0.7959  1.0368 -0.1654
   62SAPC   C39 4954   3.145   4.477   9.344  0.0129 -0.0348  0.1661
   62SAPC   H9X 4955   3.155   4.573   9.398 -1.3681  0.3081 -0.1473
   62SAPC   H9Y 4956   3.041   4.450   9.371  0.4495 -2.2740 -0.1404
   62SAPC  C310 4957   3.184   4.518   9.199  0.5054  0.0436 -0.0277
   62SAPC  H10X 4958   3.293   4.539   9.189  0.3462  1.5874  1.0607
   62SAPC  H10Y 4959   3.125   4.611   9.189 -2.5031 -1.6942  0.5031
   62SAPC  C311 4960   3.136   4.421   9.094  0.3898  0.4221  0.2367
   62SAPC  H11X 4961   3.035   4.380   9.117  0.5276 -0.0789 -0.0296
   62SAPC  H11Y 4962   3.212   4.340   9.095  0.3842  0.4125  1.0550
   62SAPC  C312 4963   3.124   4.474   8.948 -0.1356  0.0978 -0.7085
   62SAPC  H12X 4964   3.055   4.560   8.960 -1.1324 -0.8733  0.9093
   62SAPC  H12Y 4965   3.064   4.403   8.888 -2.3052  0.5462  0.8112
   62SAPC  C313 4966   3.259   4.511   8.888  0.6797 -0.5089 -0.3468
   62SAPC  H13X 4967   3.332   4.428   8.895  0.6995 -0.3801  1.6707
   62SAPC  H13Y 4968   3.302   4.591   8.952 -2.1840 -0.3280  1.5591
   62SAPC  C314 4969   3.246   4.548   8.746  0.2737 -0.3168  0.2284
   62SAPC  H14X 4970   3.178   4.635   8.743 -0.4224 -0.6463  3.2431
   62SAPC  H14Y 4971   3.203   4.467   8.683 -0.9806  1.9400 -1.9916
   62SAPC  C315 4972   3.382   4.593   8.691 -0.3943 -0.1276 -0.3034
   62SAPC  H15X 4973   3.437   4.517   8.632  0.9227  0.4728  0.1045
   62SAPC  H15Y 4974   3.443   4.625   8.778 -1.6004 -1.1614  0.9622
   62SAPC  C316 4975   3.379   4.717   8.594  0.3035 -0.5464 -0.5720
   62SAPC  H16X 4976   3.484   4.753   8.601  0.3015 -0.8186  1.5680
   62SAPC  H16Y 4977   3.319   4.801   8.634 -1.5814 -1.2936 -1.6922
   62SAPC  C317 4978   3.329   4.688   8.456 -0.0352  0.5415  0.0698
   62SAPC  H17X 4979   3.269   4.595   8.464  0.4711  0.2691  0.7479
   62SAPC  H17Y 4980   3.409   4.667   8.382  0.0754  1.0726  0.0308
   62SAPC  C318 4981   3.238   4.801   8.396  0.3875 -0.7010 -0.9068
   62SAPC  H18X 4982   3.141   4.824   8.444 -0.2875 -1.2018 -2.0089
   62SAPC  H18Y 4983   3.200   4.772   8.295 -1.2143 -0.0846 -0.5108
   62SAPC  H18Z 4984   3.299   4.893   8.383 -0.2506 -0.2891 -1.0008
   63SAPC     N 4985   4.201   5.064   6.405 -0.0022  0.9033  0.0303
   63SAPC   C12 4986   4.338   5.015   6.451 -0.3754 -0.1575  0.3162
   63SAPC  H12A 4987   4.323   4.938   6.525 -1.6591  1.0863  1.3950
   63SAPC  H12B 4988   4.393   5.096   6.496 -0.8209  0.5962 -0.4654
   63SAPC   C13 4989   4.139   5.146   6.518 -0.1405  0.0186  0.5352
   63SAPC  H13A 4990   4.143   5.086   6.608  0.5622 -0.0910  0.4298
   63SAPC  H13B 4991   4.202   5.233   6.529  1.7675 -1.0970 -1.0979
   63SAPC  H13C 4992   4.038   5.168   6.485  0.3022  1.9368  0.3066
   63SAPC   C14 4993   4.207   5.154   6.282 -0.6972  0.1295 -0.3554
   63SAPC  H14A 4994   4.276   5.236   6.293  0.7508 -1.2447  1.4425
   63SAPC  H14B 4995   4.241   5.104   6.193  2.3287  0.4875  0.4912
   63SAPC  H14C 4996   4.115   5.208   6.267 -0.2866  0.3177 -2.5187
   63SAPC   C15 4997   4.117   4.949   6.375 -0.2503 -0.3040 -0.8389
   63SAPC  H15A 4998   4.171   4.865   6.335 -0.3495 -2.0300  2.3727
   63SAPC  H15B 4999   4.086   4.913   6.472 -2.6849  0.8036 -1.1150
   63SAPC  H15C 5000   4.027   4.966   6.316  0.1841 -1.8395 -2.0100
   63SAPC   C11 5001   4.440   4.967   6.336 -0.1291 -0.3426  0.0218
   63SAPC  H11A 5002   4.382   4.908   6.262 -0.8355 -1.1503  1.1833
   63SAPC  H11B 5003   4.515   4.901   6.384  0.7398 -1.0296 -2.1927
   63SAPC     P 5004   4.608   5.156   6.352  0.1590 -0.0239 -0.2076
   63SAPC   O13 5005   4.729   5.182   6.270  0.4347  0.2669  0.2544
   63SAPC   O14 5006   4.547   5.282   6.392 -0.3523 -0.2836 -0.1494
   63SAPC   O12 5007   4.509   5.071   6.273 -0.5504  0.2808  0.3795
   63SAPC   O11 5008   4.646   5.074   6.481  0.1143 -0.2625  0.1852
   63SAPC    C1 5009   4.786   5.037   6.504 -0.1339  0.2031 -0.0774
   63SAPC    HA 5010   4.843   5.005   6.415  0.7934 -1.8202  1.1668
   63SAPC    HB 5011   4.834   5.126   6.551 -1.9533  1.9940 -1.4582
   63SAPC    C2 5012   4.801   4.925   6.606  1.1650  0.1135  0.4262
   63SAPC    HS 5013   4.759   4.835   6.556  3.2845  0.1646 -1.5594
   63SAPC   O21 5014   4.729   4.952   6.724 -0.3725  0.0879 -0.4171
   63SAPC   C21 5015   4.699   4.846   6.794 -0.4469  0.1960  0.4820
   63SAPC   O22 5016   4.727   4.733   6.772  0.2507  0.6697 -0.6682
   63SAPC   C22 5017   4.611   4.893   6.906  0.4380  0.9580 -0.3165
   63SAPC   H2R 5018   4.590   5.002   6.901 -0.4247  0.7737 -0.8148
   63SAPC   H2S 5019   4.515   4.842   6.885  1.3876 -0.1324 -2.2757
   63SAPC    C3 5020   4.948   4.882   6.632  0.1242 -0.6558 -0.4918
   63SAPC    HX 5021   4.992   4.881   6.531 -0.5402 -0.2955 -0.7911
   63SAPC    HY 5022   4.955   4.779   6.674  0.3840 -0.7259 -0.7043
   63SAPC   O31 5023   5.016   4.976   6.728  0.2647 -0.3632  0.4250
   63SAPC   C31 5024   5.103   5.066   6.670  0.5630  0.6016  0.4309
   63SAPC   O32 5025   5.105   5.086   6.548 -0.0432  0.2364 -0.0153
   63SAPC   C32 5026   5.165   5.158   6.784 -0.1307  0.0612 -0.8060
   63SAPC   H2X 5027   5.123   5.261   6.770  0.5173  0.9023  2.4983
   63SAPC   H2Y 5028   5.274   5.163   6.767 -0.3779  1.8834 -2.1876
   63SAPC   C23 5029   4.678   4.861   7.035  0.0353 -0.4526 -0.9146
   63SAPC   H3R 5030   4.725   4.761   7.034  0.8627 -0.0864 -0.2805
   63SAPC   H3S 5031   4.608   4.851   7.121  1.8980 -0.1086  0.7054
   63SAPC   C24 5032   4.791   4.959   7.081 -0.2920 -0.0809 -0.3301
   63SAPC   H4R 5033   4.845   5.004   6.995  0.8630 -0.5463  0.1366
   63SAPC   H4S 5034   4.873   4.893   7.115 -0.2855 -1.0017 -1.9913
   63SAPC   C25 5035   4.744   5.063   7.176 -0.2161  0.3453  0.0336
   63SAPC   H5R 5036   4.644   5.099   7.145 -0.6048  0.4367  1.3442
   63SAPC   C26 5037   4.802   5.105   7.290 -0.0069 -0.1043  0.0243
   63SAPC   H6R 5038   4.743   5.164   7.362 -2.3245 -0.3239 -1.5856
   63SAPC   C27 5039   4.937   5.065   7.344 -0.1068  1.4158 -0.8027
   63SAPC   H7R 5040   4.996   5.154   7.375  0.7896 -0.6434  4.7323
   63SAPC   H7S 5041   4.986   5.014   7.258 -1.1825  1.6846 -1.5878
   63SAPC   C28 5042   4.938   4.968   7.462 -0.1674  0.4616  0.1594
   63SAPC   H8R 5043   4.951   4.862   7.437 -1.4815 -0.0067  1.3409
   63SAPC   C29 5044   4.932   4.991   7.594 -0.2973 -0.3460 -0.1966
   63SAPC   H9R 5045   4.911   4.902   7.656 -2.8245  1.0934  1.2210
   63SAPC  C210 5046   4.913   5.126   7.655  0.2063 -0.9492  0.0234
   63SAPC  H10R 5047   4.813   5.160   7.620  0.9557 -0.0657 -1.3275
   63SAPC  H10S 5048   4.997   5.184   7.612 -0.6543 -0.0627 -0.5070
   63SAPC  C211 5049   4.930   5.120   7.805  0.6960  0.1558  0.3122
   63SAPC  H11R 5050   5.024   5.166   7.839  1.7584 -0.2358 -1.9161
   63SAPC  C212 5051   4.851   5.068   7.897  0.1493  0.3942  0.1842
   63SAPC  H12R 5052   4.876   5.071   8.004  1.9607 -1.1883 -0.1442
   63SAPC  C213 5053   4.715   4.998   7.881 -0.3505 -0.3631 -0.0023
   63SAPC  H13R 5054   4.681   5.020   7.778  0.0867  0.6633  0.0563
   63SAPC  H13S 5055   4.645   5.063   7.938  1.1068  0.9497  0.3568
   63SAPC  C214 5056   4.720   4.856   7.925  0.4261  0.1340  0.1715
   63SAPC  H14R 5057   4.761   4.782   7.856  0.8775 -0.4271  1.0192
   63SAPC  C215 5058   4.673   4.809   8.044 -0.1826  0.1019 -0.5836
   63SAPC  H15R 5059   4.694   4.703   8.065  1.0656  0.6417  1.0798
   63SAPC  C216 5060   4.604   4.890   8.149  0.0158  0.1067 -0.3657
   63SAPC  H16R 5061   4.499   4.856   8.154  0.5751 -2.3535 -2.7341
   63SAPC  H16S 5062   4.602   4.998   8.121 -0.9658  0.5321  1.2521
   63SAPC  C217 5063   4.662   4.882   8.295 -0.4840 -0.1423 -0.4441
   63SAPC  H17R 5064   4.602   4.952   8.358  0.9523  1.0728 -0.3760
   63SAPC  H17S 5065   4.766   4.918   8.284  0.6861 -2.6221  1.7143
   63SAPC  C218 5066   4.665   4.740   8.351  0.5255  0.1818 -0.2711
   63SAPC  H18R 5067   4.716   4.672   8.280  1.6801 -0.2816  0.9628
   63SAPC  H18S 5068   4.558   4.708   8.354 -0.0890  1.8651 -2.0157
   63SAPC  C219 5069   4.718   4.742   8.490 -0.1775  0.6060 -0.2396
   63SAPC  H19R 5070   4.698   4.648   8.545 -2.6493  2.1207  1.6347
   63SAPC  H19S 5071   4.671   4.817   8.557 -0.1498  1.0519 -0.7128
   63SAPC  C220 5072   4.868   4.765   8.498 -0.3898  0.1529  0.1612
   63SAPC  H20R 5073   4.938   4.688   8.460  0.4049  0.0458  1.7324
   63SAPC  H20S 5074   4.895   4.767   8.606 -0.3700 -0.9416  0.1917
   63SAPC  H20T 5075   4.902   4.860   8.453  2.0480  0.2428  1.9978
   63SAPC   C33 5076   5.130   5.121   6.937 -0.4897 -0.0707  0.3447
   63SAPC   H3X 5077   5.156   5.014   6.952  0.7335  0.0970 -0.4828
   63SAPC   H3Y 5078   5.020   5.134   6.945 -0.6385 -0.3381 -0.9918
   63SAPC   C34 5079   5.212   5.183   7.046  0.4726  0.1431  0.2262
   63SAPC   H4X 5080   5.320   5.169   7.028  0.9623  0.8643  2.2399
   63SAPC   H4Y 5081   5.190   5.138   7.146  0.7071 -0.7973 -0.1379
   63SAPC   C35 5082   5.195   5.337   7.049 -0.5583  0.0207 -0.1806
   63SAPC   H5X 5083   5.109   5.350   7.118  0.1889 -2.0473  1.2395
   63SAPC   H5Y 5084   5.188   5.384   6.949 -0.3828 -0.4523 -0.4167
   63SAPC   C36 5085   5.322   5.399   7.113  0.1331 -0.3919  0.8056
   63SAPC   H6X 5086   5.319   5.510   7.115  0.7581 -0.3684  0.6427
   63SAPC   H6Y 5087   5.409   5.371   7.050 -0.1771 -0.6490  0.4897
   63SAPC   C37 5088   5.352   5.347   7.254 -0.1022  0.2574  0.5035
   63SAPC   H7X 5089   5.452   5.387   7.281 -0.1066  1.3298 -0.8956
   63SAPC   H7Y 5090   5.367   5.237   7.253 -1.9681 -0.0358 -1.3900
   63SAPC   C38 5091   5.251   5.396   7.359 -0.0413  0.5153  0.0585
   63SAPC   H8X 5092   5.172   5.321   7.380  0.7198  0.3832  2.9627
   63SAPC   H8Y 5093   5.193   5.477   7.309  1.9256  1.1613 -1.3209
   63SAPC   C39 5094   5.318   5.435   7.490  0.0592  0.5477 -0.2104
   63SAPC   H9X 5095   5.397   5.509   7.462 -1.5723  1.3539 -3.1981
   63SAPC   H9Y 5096   5.350   5.344   7.544 -0.6582  0.8505  0.7440
   63SAPC  C310 5097   5.226   5.520   7.589 -0.5825 -0.4249  0.3370
   63SAPC  H10X 5098   5.143   5.456   7.624 -0.9995 -0.3154 -0.4309
   63SAPC  H10Y 5099   5.184   5.603   7.528 -0.9005 -0.7575  0.1049
   63SAPC  C311 5100   5.289   5.596   7.703  0.0334  0.1066  0.5150
   63SAPC  H11X 5101   5.213   5.670   7.735  0.9694  1.4643 -0.2936
   63SAPC  H11Y 5102   5.382   5.648   7.673  0.8854 -1.1505  0.8681
   63SAPC  C312 5103   5.337   5.513   7.823  0.4740  0.3531  0.1682
   63SAPC  H12X 5104   5.378   5.585   7.897 -0.6588  2.4583 -1.1176
   63SAPC  H12Y 5105   5.417   5.442   7.795  0.8738 -0.1058  2.3297
   63SAPC  C313 5106   5.226   5.427   7.901  0.0854 -0.8332 -0.1034
   63SAPC  H13X 5107   5.202   5.345   7.830  1.2022  0.0963 -1.6201
   63SAPC  H13Y 5108   5.143   5.500   7.907  1.9053  1.3113  0.3079
   63SAPC  C314 5109   5.267   5.383   8.044  0.0062 -0.4455  0.1068
   63SAPC  H14X 5110   5.374   5.354   8.039  0.7503  1.5550  2.5189
   63SAPC  H14Y 5111   5.197   5.301   8.072 -2.3794  1.9041  1.5091
   63SAPC  C315 5112   5.256   5.490   8.150 -0.9821  0.1323  0.4089
   63SAPC  H15X 5113   5.301   5.587   8.120 -1.6040  0.8959  1.8458
   63SAPC  H15Y 5114   5.310   5.451   8.239 -0.4237 -0.9957 -0.4083
   63SAPC  C316 5115   5.113   5.532   8.190  0.5176 -0.1356  0.3595
   63SAPC  H16X 5116   5.071   5.429   8.199  0.2691  0.0795  1.9051
   63SAPC  H16Y 5117   5.079   5.593   8.103  1.6334  0.1118  0.0803
   63SAPC  C317 5118   5.107   5.620   8.311  0.6858  0.0638  1.0320
   63SAPC  H17X 5119   5.141   5.724   8.294  0.1485 -0.0047 -0.5681
   63SAPC  H17Y 5120   5.177   5.578   8.386 -0.2424 -0.5324  1.5967
   63SAPC  C318 5121   4.965   5.618   8.377  0.4139 -0.5580  0.2123
   63SAPC  H18X 5122   4.921   5.516   8.372 -0.7580 -0.1129  0.9441
   63SAPC  H18Y 5123   4.900   5.674   8.307  2.5720 -1.0649 -2.3679
   63SAPC  H18Z 5124   4.967   5.652   8.482  2.1522 -1.0531  0.3622
   64SAPC     N 5125   0.814   4.177   5.917 -0.4036 -0.1555 -0.6895
   64SAPC   C12 5126   0.919   4.288   5.896  0.4707  0.1344 -0.2009
   64SAPC  H12A 5127   0.875   4.386   5.906  0.9487  0.5938 -2.2010
   64SAPC  H12B 5128   0.950   4.288   5.793 -2.6444  2.0996 -1.2837
   64SAPC   C13 5129   0.770   4.176   6.058  0.0960  0.1364 -0.0210
   64SAPC  H13A 5130   0.856   4.173   6.124  0.1320  0.8336 -0.0336
   64SAPC  H13B 5131   0.712   4.263   6.084 -0.8019 -0.8807  1.5420
   64SAPC  H13C 5132   0.710   4.086   6.064 -2.3508  1.7780  3.2198
   64SAPC   C14 5133   0.704   4.183   5.822  0.0847 -0.5100  0.1877
   64SAPC  H14A 5134   0.622   4.244   5.858  1.0714  0.1635  1.3257
   64SAPC  H14B 5135   0.733   4.220   5.724  1.5290  0.5398  0.9777
   64SAPC  H14C 5136   0.661   4.084   5.814  0.0700 -0.4771 -0.1606
   64SAPC   C15 5137   0.886   4.046   5.888 -0.3880 -0.7612  0.1261
   64SAPC  H15A 5138   0.888   4.015   5.784  0.7181  0.2863 -0.1879
   64SAPC  H15B 5139   0.987   4.049   5.926  0.7476 -0.5918 -2.6021
   64SAPC  H15C 5140   0.824   3.964   5.923  0.6217 -1.7206 -0.2570
   64SAPC   C11 5141   1.042   4.300   5.982  0.0463  0.0509 -0.0119
   64SAPC  H11A 5142   1.090   4.201   6.002 -2.1625 -1.4091 -1.3994
   64SAPC  H11B 5143   1.011   4.316   6.087  0.3640  0.3792  0.0319
   64SAPC     P 5144   1.099   4.554   5.949  0.0118  0.0393 -0.0454
   64SAPC   O13 5145   1.166   4.621   5.837 -0.1529 -0.3135 -0.2762
   64SAPC   O14 5146   0.955   4.588   5.959 -0.3906  0.2454  0.5344
   64SAPC   O12 5147   1.128   4.400   5.932  0.2678 -0.3870 -0.0146
   64SAPC   O11 5148   1.166   4.597   6.086  0.2295 -0.1642 -0.4567
   64SAPC    C1 5149   1.298   4.574   6.118 -0.0023 -0.2446  0.7337
   64SAPC    HA 5150   1.346   4.533   6.027 -2.3193  2.2544 -1.8174
   64SAPC    HB 5151   1.349   4.670   6.142  0.8204 -0.2322 -0.9152
   64SAPC    C2 5152   1.324   4.484   6.243 -0.3620  0.9099 -0.0290
   64SAPC    HS 5153   1.283   4.386   6.212  2.0818 -0.6473  1.3337
   64SAPC   O21 5154   1.264   4.543   6.353 -0.0116  0.0111  0.1688
   64SAPC   C21 5155   1.147   4.487   6.387 -0.0041  0.3851  0.6065
   64SAPC   O22 5156   1.110   4.380   6.350  0.1784  0.4004  0.1171
   64SAPC   C22 5157   1.078   4.564   6.498  0.3452  0.0740 -0.1856
   64SAPC   H2R 5158   1.144   4.641   6.544 -1.5635  0.9925  1.1167
   64SAPC   H2S 5159   0.996   4.623   6.452  0.5190  0.1949 -0.3460
   64SAPC    C3 5160   1.471   4.450   6.283 -0.2051 -0.2668 -0.0742
   64SAPC    HX 5161   1.522   4.547   6.300  0.9475 -0.8574 -0.0437
   64SAPC    HY 5162   1.520   4.398   6.198 -0.7850 -1.1959  0.1395
   64SAPC   O31 5163   1.482   4.352   6.389  0.4482 -0.1912 -0.4800
   64SAPC   C31 5164   1.537   4.396   6.503 -0.3062  0.1743 -0.6461
   64SAPC   O32 5165   1.586   4.501   6.528 -0.3868 -0.5980  0.3203
   64SAPC   C32 5166   1.510   4.292   6.610 -0.2535 -0.3646 -0.2437
   64SAPC   H2X 5167   1.603   4.238   6.638 -0.3512 -0.5638 -0.2993
   64SAPC   H2Y 5168   1.427   4.226   6.576  0.3834 -0.4482 -1.7501
   64SAPC   C23 5169   0.995   4.487   6.606  0.3831  0.9744 -0.7139
   64SAPC   H3R 5170   0.927   4.421   6.549 -0.5579 -0.3276  1.7643
   64SAPC   H3S 5171   0.935   4.565   6.658  1.9209  1.9269 -0.2880
   64SAPC   C24 5172   1.077   4.418   6.709 -0.6777  0.1950  0.2167
   64SAPC   H4R 5173   1.112   4.495   6.782 -0.5229  1.5422 -1.2215
   64SAPC   H4S 5174   1.162   4.372   6.655 -0.4009 -0.4904  1.1986
   64SAPC   C25 5175   0.998   4.304   6.767 -0.7990  0.1691  0.0226
   64SAPC   H5R 5176   0.971   4.224   6.696  2.7263 -0.6265 -0.6014
   64SAPC   C26 5177   0.953   4.297   6.898 -0.0754 -0.4040  0.3014
   64SAPC   H6R 5178   0.891   4.213   6.931 -1.2503  0.6662  0.8748
   64SAPC   C27 5179   0.954   4.404   6.999 -0.4230 -0.0562  0.1514
   64SAPC   H7R 5180   0.985   4.507   6.972  0.0889  1.6556  5.8999
   64SAPC   H7S 5181   1.023   4.368   7.078  0.1960 -1.5370 -1.0064
   64SAPC   C28 5182   0.820   4.427   7.063 -0.3562  0.6426  0.9612
   64SAPC   H8R 5183   0.745   4.447   6.986 -1.7510 -0.5955  1.9421
   64SAPC   C29 5184   0.780   4.417   7.187  0.3724 -0.1397 -0.2400
   64SAPC   H9R 5185   0.677   4.445   7.214 -0.8351 -3.1251 -1.4061
   64SAPC  C210 5186   0.865   4.379   7.305 -1.1013  0.5728 -0.2649
   64SAPC  H10R 5187   0.969   4.361   7.270 -0.8762 -0.7811  1.0176
   64SAPC  H10S 5188   0.821   4.285   7.345  0.1746  0.6085  1.3172
   64SAPC  C211 5189   0.867   4.494   7.406  0.7034 -0.0139  0.1305
   64SAPC  H11R 5190   0.941   4.574   7.390  0.0471  0.1576 -2.4980
   64SAPC  C212 5191   0.808   4.494   7.523  1.4431 -0.3604 -0.2571
   64SAPC  H12R 5192   0.805   4.583   7.587 -0.8806  0.5309 -1.5077
   64SAPC  C213 5193   0.736   4.373   7.582  0.4105 -0.1380 -0.2529
   64SAPC  H13R 5194   0.685   4.303   7.512 -1.3344  0.9280 -0.1166
   64SAPC  H13S 5195   0.658   4.389   7.660  1.5934  1.4432  0.6651
   64SAPC  C214 5196   0.844   4.292   7.649  0.0055 -0.7121 -0.8287
   64SAPC  H14R 5197   0.935   4.284   7.588  1.5873  0.9721  1.1219
   64SAPC  C215 5198   0.832   4.221   7.760 -0.5604 -0.4245 -0.1445
   64SAPC  H15R 5199   0.929   4.181   7.793  1.4172  4.0946  0.2274
   64SAPC  C216 5200   0.718   4.194   7.850 -0.3072  0.0900  0.4673
   64SAPC  H16R 5201   0.672   4.099   7.818  1.1172 -0.6646  0.5926
   64SAPC  H16S 5202   0.643   4.276   7.838 -0.2087  0.2397  0.8520
   64SAPC  C217 5203   0.752   4.185   8.004 -0.6335 -0.2137  0.5054
   64SAPC  H17R 5204   0.812   4.269   8.045  2.0784 -1.8489  0.1421
   64SAPC  H17S 5205   0.815   4.094   8.015 -1.3070 -0.9756 -1.4687
   64SAPC  C218 5206   0.632   4.176   8.094  0.1440 -0.2767 -0.2938
   64SAPC  H18R 5207   0.667   4.153   8.197 -1.0160 -0.5454  0.0569
   64SAPC  H18S 5208   0.570   4.087   8.071  1.6056 -1.6720  0.8876
   64SAPC  C219 5209   0.535   4.297   8.094  0.6137 -0.1726 -0.1251
   64SAPC  H19R 5210   0.435   4.282   8.047 -1.0723  0.3807  2.9509
   64SAPC  H19S 5211   0.582   4.376   8.033  0.1919 -0.9324 -1.4754
   64SAPC  C220 5212   0.518   4.352   8.235  0.0712  0.2816  0.9595
   64SAPC  H20R 5213   0.619   4.376   8.275  0.1973  1.3193  0.0509
   64SAPC  H20S 5214   0.462   4.286   8.305 -2.0692  0.8882 -0.1054
   64SAPC  H20T 5215   0.466   4.450   8.247 -2.0380 -0.2009 -2.7201
   64SAPC   C33 5216   1.460   4.368   6.736 -0.2810  0.1464 -0.5408
   64SAPC   H3X 5217   1.379   4.432   6.694  1.0519  0.6469 -2.5028
   64SAPC   H3Y 5218   1.533   4.444   6.771  0.7949  0.1156 -2.5521
   64SAPC   C34 5219   1.405   4.273   6.844 -0.4071  0.1669  0.2316
   64SAPC   H4X 5220   1.490   4.205   6.868 -0.0541 -0.3925 -2.3128
   64SAPC   H4Y 5221   1.323   4.203   6.817  0.6772 -0.8271 -0.6069
   64SAPC   C35 5222   1.364   4.341   6.974 -0.3899  0.0091  0.4129
   64SAPC   H5X 5223   1.255   4.353   6.961 -0.4626 -0.2240  0.7967
   64SAPC   H5Y 5224   1.411   4.442   6.974 -0.3148 -0.0046 -0.9037
   64SAPC   C36 5225   1.407   4.263   7.102 -0.7707  0.1231  0.4754
   64SAPC   H6X 5226   1.514   4.235   7.107  0.0671  2.7515 -0.8169
   64SAPC   H6Y 5227   1.339   4.175   7.104 -3.1234  1.8429  0.6104
   64SAPC   C37 5228   1.368   4.360   7.223  0.4331  0.0301 -0.5127
   64SAPC   H7X 5229   1.271   4.410   7.203  0.9568  0.8764 -1.0860
   64SAPC   H7Y 5230   1.449   4.434   7.243  1.0561 -0.8193  0.1247
   64SAPC   C38 5231   1.341   4.276   7.348 -0.8910  0.3110  0.4236
   64SAPC   H8X 5232   1.427   4.206   7.356 -1.6043 -0.3503  3.7450
   64SAPC   H8Y 5233   1.257   4.204   7.332  0.2543 -1.0848  0.4881
   64SAPC   C39 5234   1.329   4.351   7.483 -0.0985 -0.8112 -0.5312
   64SAPC   H9X 5235   1.225   4.388   7.481 -0.4449 -1.6865  0.4333
   64SAPC   H9Y 5236   1.403   4.434   7.484  1.8974 -2.4866  0.2201
   64SAPC  C310 5237   1.348   4.280   7.616 -0.0709 -0.5140 -0.4275
   64SAPC  H10X 5238   1.448   4.233   7.624 -1.0162 -2.4130  1.7956
   64SAPC  H10Y 5239   1.275   4.196   7.615  0.8790 -1.4264  1.3143
   64SAPC  C311 5240   1.313   4.366   7.740  1.0016 -0.1454 -0.1632
   64SAPC  H11X 5241   1.203   4.372   7.749  0.9846  0.8464 -0.9341
   64SAPC  H11Y 5242   1.347   4.470   7.717  4.4569 -1.5095 -2.0250
   64SAPC  C312 5243   1.381   4.331   7.877 -0.0090 -0.3840 -0.1300
   64SAPC  H12X 5244   1.330   4.237   7.906  1.8981 -1.3267  0.3299
   64SAPC  H12Y 5245   1.346   4.412   7.944  0.5769 -0.1897 -0.0538
   64SAPC  C313 5246   1.539   4.309   7.881  0.2405  0.0371 -0.1954
   64SAPC  H13X 5247   1.591   4.395   7.835 -1.6227  2.0154  1.1549
   64SAPC  H13Y 5248   1.560   4.219   7.820 -2.5138 -1.0383  0.2923
   64SAPC  C314 5249   1.583   4.276   8.027 -0.2348  0.4271  0.2786
   64SAPC  H14X 5250   1.679   4.221   8.024 -0.3627  0.2543 -1.2093
   64SAPC  H14Y 5251   1.509   4.214   8.083 -0.1305  0.3580  0.3391
   64SAPC  C315 5252   1.586   4.400   8.107 -0.4322  0.0924 -0.4110
   64SAPC  H15X 5253   1.483   4.440   8.112 -0.4334 -0.0062  0.6524
   64SAPC  H15Y 5254   1.643   4.485   8.064 -2.5089  1.3692 -0.7921
   64SAPC  C316 5255   1.632   4.370   8.250 -0.2689 -0.3262  0.1564
   64SAPC  H16X 5256   1.704   4.286   8.257  0.0611  0.1307  3.2238
   64SAPC  H16Y 5257   1.541   4.325   8.295 -0.4793 -0.4346 -0.3680
   64SAPC  C317 5258   1.663   4.494   8.329 -0.4535 -0.1936 -0.4717
   64SAPC  H17X 5259   1.573   4.560   8.330 -0.4304 -0.1074  1.6727
   64SAPC  H17Y 5260   1.753   4.539   8.282 -0.5924  0.8540  0.2310
   64SAPC  C318 5261   1.682   4.463   8.479 -0.3535  0.1214 -0.1456
   64SAPC  H18X 5262   1.771   4.397   8.483  0.3873  1.1222  2.9273
   64SAPC  H18Y 5263   1.587   4.421   8.518 -0.8329 -0.3174 -1.6991
   64SAPC  H18Z 5264   1.712   4.554   8.535  0.6638  0.7318 -1.6097
   65SAPC     N 5265   1.255   6.227   5.975  0.2646  0.0361 -0.3334
   65SAPC   C12 5266   1.310   6.346   6.047 -0.6125 -0.3711  0.2871
   65SAPC  H12A 5267   1.335   6.411   5.965  0.7133 -0.8572  0.2811
   65SAPC  H12B 5268   1.402   6.328   6.102 -0.5771  1.0076  0.7240
   65SAPC   C13 5269   1.368   6.145   5.936  0.1008 -0.3709 -0.5932
   65SAPC  H13A 5270   1.433   6.189   5.861  0.9638 -2.1290 -0.9267
   65SAPC  H13B 5271   1.421   6.110   6.023 -2.4253  0.9324  1.6204
   65SAPC  H13C 5272   1.324   6.067   5.876 -0.4702  1.1301 -2.2203
   65SAPC   C14 5273   1.170   6.152   6.083  0.2345  0.0114  0.2466
   65SAPC  H14A 5274   1.121   6.226   6.145  1.0745  1.4077 -0.7148
   65SAPC  H14B 5275   1.096   6.086   6.041 -0.8233  0.9238  0.6092
   65SAPC  H14C 5276   1.244   6.096   6.138  0.2536  0.5980  0.8261
   65SAPC   C15 5277   1.163   6.246   5.864  0.7220  0.2483  0.7883
   65SAPC  H15A 5278   1.215   6.292   5.781 -1.2112 -0.4518 -0.8935
   65SAPC  H15B 5279   1.135   6.149   5.826  3.0460 -0.6980  1.2902
   65SAPC  H15C 5280   1.078   6.305   5.897  0.0301  0.1052 -0.6654
   65SAPC   C11 5281   1.236   6.442   6.144  0.5333 -0.7362  0.3963
   65SAPC  H11A 5282   1.287   6.539   6.162 -0.3087 -0.4057  1.0981
   65SAPC  H11B 5283   1.229   6.380   6.236 -1.8678  0.5983  1.1995
   65SAPC     P 5284   0.998   6.547   6.177 -0.1549  0.0683  0.2339
   65SAPC   O13 5285   1.053   6.680   6.218 -0.2136  1.2682 -0.2618
   65SAPC   O14 5286   0.874   6.547   6.098 -0.1400 -0.3558 -0.4169
   65SAPC   O12 5287   1.108   6.465   6.094 -0.4067 -0.3218  0.1914
   65SAPC   O11 5288   0.964   6.460   6.302 -0.4507  0.7491 -0.4499
   65SAPC    C1 5289   0.873   6.346   6.290  0.5215 -0.3986  0.6165
   65SAPC    HA 5290   0.777   6.376   6.242  2.6613  1.3807 -3.0457
   65SAPC    HB 5291   0.904   6.271   6.214  1.1634  0.7712 -0.3208
   65SAPC    C2 5292   0.813   6.288   6.426 -0.2577  0.1952 -0.1271
   65SAPC    HS 5293   0.707   6.262   6.407 -0.6071  2.3074 -1.3927
   65SAPC   O21 5294   0.820   6.402   6.519  0.2483  0.2233 -0.4390
   65SAPC   C21 5295   0.730   6.496   6.498 -1.2073  0.3352 -0.9702
   65SAPC   O22 5296   0.643   6.493   6.419  0.0071 -0.8098  0.3866
   65SAPC   C22 5297   0.762   6.614   6.588  0.6463  0.0942  0.6379
   65SAPC   H2R 5298   0.840   6.671   6.533 -1.9967  1.6983 -1.7868
   65SAPC   H2S 5299   0.671   6.679   6.588  1.5799  1.4725 -0.6021
   65SAPC    C3 5300   0.891   6.159   6.485 -0.7039  0.2133  0.5788
   65SAPC    HX 5301   0.997   6.184   6.464  0.2878 -2.7978  1.4380
   65SAPC    HY 5302   0.879   6.063   6.431 -0.5053  0.4720  0.0621
   65SAPC   O31 5303   0.861   6.133   6.622 -0.3535 -1.0323 -0.6108
   65SAPC   C31 5304   0.940   6.188   6.718  0.4155 -0.6447 -0.2538
   65SAPC   O32 5305   1.047   6.236   6.703 -0.2557 -0.2321  0.0151
   65SAPC   C32 5306   0.866   6.181   6.854 -0.2376  0.2962 -0.8854
   65SAPC   H2X 5307   0.766   6.137   6.832 -0.4762  0.2549  0.2418
   65SAPC   H2Y 5308   0.840   6.283   6.890 -0.7856  0.0587 -0.5983
   65SAPC   C23 5309   0.801   6.558   6.728 -0.7538 -0.1873 -0.1745
   65SAPC   H3R 5310   0.895   6.500   6.724 -1.5479 -1.4376 -1.3067
   65SAPC   H3S 5311   0.723   6.483   6.754 -0.6789  0.2286  1.3529
   65SAPC   C24 5312   0.797   6.663   6.835 -0.3437 -0.4475 -0.8974
   65SAPC   H4R 5313   0.864   6.745   6.801 -1.3528 -0.1266 -2.1799
   65SAPC   H4S 5314   0.843   6.624   6.928 -0.7301 -0.4101 -0.6893
   65SAPC   C25 5315   0.659   6.716   6.851 -0.2100 -0.9490  0.5354
   65SAPC   H5R 5316   0.615   6.777   6.771  0.1184 -2.2265 -0.6342
   65SAPC   C26 5317   0.595   6.718   6.967  0.4878 -0.2773 -0.3082
   65SAPC   H6R 5318   0.501   6.772   6.950  1.2934  0.7748 -1.6783
   65SAPC   C27 5319   0.638   6.665   7.098  0.0122  0.0104  0.9043
   65SAPC   H7R 5320   0.726   6.727   7.127  0.3004  0.0902 -0.1261
   65SAPC   H7S 5321   0.663   6.559   7.076 -0.3177 -0.6065  3.1776
   65SAPC   C28 5322   0.540   6.681   7.205  1.1092  0.0109 -0.0769
   65SAPC   H8R 5323   0.433   6.682   7.180  0.8079 -3.1153  0.6276
   65SAPC   C29 5324   0.564   6.682   7.341  0.2734  0.4020  0.3192
   65SAPC   H9R 5325   0.496   6.710   7.422 -0.2473 -0.1937  0.0977
   65SAPC  C210 5326   0.712   6.689   7.395 -0.2486  0.3795 -0.4135
   65SAPC  H10R 5327   0.786   6.665   7.315  0.1159 -2.0978  0.5557
   65SAPC  H10S 5328   0.731   6.607   7.468 -1.0274  0.7212  0.1759
   65SAPC  C211 5329   0.736   6.828   7.450 -0.4740  0.0699 -0.5688
   65SAPC  H11R 5330   0.742   6.908   7.375  1.9253  0.5845  0.0931
   65SAPC  C212 5331   0.755   6.854   7.580  0.3112  0.4941 -0.3191
   65SAPC  H12R 5332   0.765   6.958   7.613  1.7169  0.3759 -0.3430
   65SAPC  C213 5333   0.754   6.755   7.696  0.3808 -0.1450  0.5033
   65SAPC  H13R 5334   0.810   6.664   7.667  2.0789  0.9206  0.2807
   65SAPC  H13S 5335   0.649   6.723   7.707  0.0289  0.3758 -1.0110
   65SAPC  C214 5336   0.814   6.797   7.827  0.2545  0.2106  0.3046
   65SAPC  H14R 5337   0.914   6.841   7.814 -0.3168  0.9841 -1.7344
   65SAPC  C215 5338   0.761   6.787   7.950 -0.4419 -0.5120  0.5115
   65SAPC  H15R 5339   0.816   6.824   8.038 -0.2753  1.8612 -0.5153
   65SAPC  C216 5340   0.623   6.736   7.977 -0.1405  0.5301 -1.0218
   65SAPC  H16R 5341   0.577   6.681   7.893 -1.8975 -0.2208  0.3685
   65SAPC  H16S 5342   0.557   6.821   8.004 -3.5120 -1.8415 -1.2138
   65SAPC  C217 5343   0.621   6.631   8.092 -0.0868  0.4222 -0.5117
   65SAPC  H17R 5344   0.688   6.543   8.080 -1.3372 -0.9375  1.6860
   65SAPC  H17S 5345   0.515   6.595   8.091 -0.4375  1.4219 -2.0074
   65SAPC  C218 5346   0.666   6.681   8.230  0.3950 -0.5472  0.3955
   65SAPC  H18R 5347   0.610   6.771   8.263 -0.5117 -1.7140  2.2320
   65SAPC  H18S 5348   0.775   6.703   8.229  0.2410  0.3187  1.1895
   65SAPC  C219 5349   0.670   6.580   8.344  0.1795  0.6088 -0.0409
   65SAPC  H19R 5350   0.745   6.501   8.323  0.3721  0.7553  0.0894
   65SAPC  H19S 5351   0.567   6.541   8.351 -0.0949  0.5831 -3.1562
   65SAPC  C220 5352   0.703   6.642   8.479 -0.5025  0.1831 -0.5749
   65SAPC  H20R 5353   0.683   6.572   8.563  1.0878  1.2630  0.7673
   65SAPC  H20S 5354   0.646   6.735   8.498 -2.2586 -1.1588  1.0180
   65SAPC  H20T 5355   0.810   6.673   8.477 -0.6046  0.6641 -3.3938
   65SAPC   C33 5356   0.931   6.101   6.970 -0.5693 -0.3797  0.2505
   65SAPC   H3X 5357   0.986   6.017   6.924  1.5819  0.2724  1.5076
   65SAPC   H3Y 5358   0.850   6.065   7.037  0.0867  0.4793  1.5445
   65SAPC   C34 5359   1.043   6.190   7.033  0.2275 -0.4631  0.1425
   65SAPC   H4X 5360   1.109   6.235   6.956 -1.2623  0.6644 -0.5263
   65SAPC   H4Y 5361   1.102   6.118   7.093  1.7503  0.6219 -0.0021
   65SAPC   C35 5362   0.996   6.288   7.139 -0.4510 -0.0452  0.2166
   65SAPC   H5X 5363   0.921   6.248   7.210 -0.8442  0.5103  0.1251
   65SAPC   H5Y 5364   0.953   6.379   7.092 -2.2344  0.3328  2.3990
   65SAPC   C36 5365   1.118   6.343   7.226 -0.6134  0.2746 -0.0935
   65SAPC   H6X 5366   1.199   6.380   7.160  0.9669  2.0532  2.6723
   65SAPC   H6Y 5367   1.171   6.262   7.280  0.3671  0.5344 -0.6340
   65SAPC   C37 5368   1.079   6.463   7.311 -0.3900 -0.1388  0.2978
   65SAPC   H7X 5369   0.995   6.517   7.262 -0.4420 -2.3139 -2.2554
   65SAPC   H7Y 5370   1.167   6.532   7.307  0.4523 -1.1553  0.7592
   65SAPC   C38 5371   1.047   6.410   7.455 -0.2702  0.2482  0.4411
   65SAPC   H8X 5372   1.115   6.328   7.487  0.0623  1.4930  3.2214
   65SAPC   H8Y 5373   0.945   6.368   7.471  0.1404 -1.2297 -0.6214
   65SAPC   C39 5374   1.066   6.517   7.559 -0.4777 -0.5082  0.2080
   65SAPC   H9X 5375   1.007   6.610   7.541 -1.7005 -0.7636  2.5094
   65SAPC   H9Y 5376   1.174   6.541   7.558 -0.0650 -2.2168 -0.7139
   65SAPC  C310 5377   1.019   6.483   7.705  0.4991  0.0207 -0.6422
   65SAPC  H10X 5378   1.042   6.376   7.724 -2.2449 -0.4472  0.3814
   65SAPC  H10Y 5379   0.911   6.505   7.699  0.6004  0.2119 -2.4532
   65SAPC  C311 5380   1.090   6.560   7.816 -0.3777  0.7568 -0.2653
   65SAPC  H11X 5381   1.063   6.666   7.794 -0.6292  0.2770 -2.5470
   65SAPC  H11Y 5382   1.199   6.544   7.803 -0.1084  1.2333  1.1580
   65SAPC  C312 5383   1.062   6.521   7.962  0.3125 -1.1364 -0.0511
   65SAPC  H12X 5384   1.118   6.435   8.004  2.9034  0.7400  0.5997
   65SAPC  H12Y 5385   0.954   6.513   7.986  0.8445 -3.7557  2.0011
   65SAPC  C313 5386   1.109   6.638   8.049 -0.5743 -0.0387  0.6481
   65SAPC  H13X 5387   1.076   6.731   7.999 -2.1354 -2.0257 -2.3160
   65SAPC  H13Y 5388   1.220   6.629   8.041 -0.8268 -2.3237 -3.6507
   65SAPC  C314 5389   1.066   6.627   8.197  0.4463  0.2071  0.2383
   65SAPC  H14X 5390   1.075   6.521   8.228 -1.1299  0.5611  2.1129
   65SAPC  H14Y 5391   0.956   6.641   8.202  0.4706 -0.1342  2.2551
   65SAPC  C315 5392   1.144   6.730   8.282 -0.0747  0.1150 -0.4074
   65SAPC  H15X 5393   1.110   6.833   8.255 -0.7991  0.1142  0.4307
   65SAPC  H15Y 5394   1.254   6.719   8.281 -0.1566 -0.6556 -1.2446
   65SAPC  C316 5395   1.108   6.708   8.433 -0.0250 -0.4544  0.3469
   65SAPC  H16X 5396   1.143   6.609   8.467 -0.7924  0.3691  3.9997
   65SAPC  H16Y 5397   0.998   6.719   8.448 -0.0669  1.0007 -0.7831
   65SAPC  C317 5398   1.174   6.809   8.517 -0.5504 -1.5122 -0.5274
   65SAPC  H17X 5399   1.168   6.904   8.459  1.2551 -1.7478 -1.1737
   65SAPC  H17Y 5400   1.283   6.788   8.516 -0.2117  0.1327 -1.4623
   65SAPC  C318 5401   1.131   6.824   8.660  0.6492  0.0067  0.0181
   65SAPC  H18X 5402   1.024   6.810   8.683  0.7650  0.2116  0.6867
   65SAPC  H18Y 5403   1.158   6.925   8.695  2.5621 -0.4878  0.0810
   65SAPC  H18Z 5404   1.182   6.750   8.725  1.4968  0.9645  0.4620
   66SAPC     N 5405   4.377   6.114   5.538  0.2733 -0.5200  0.0934
   66SAPC   C12 5406   4.443   6.224   5.610  0.6931 -0.5051 -0.0622
   66SAPC  H12A 5407   4.400   6.321   5.588 -0.1357 -1.2823 -2.1929
   66SAPC  H12B 5408   4.543   6.248   5.577  0.4961  2.6035  1.2931
   66SAPC   C13 5409   4.233   6.103   5.560 -0.0119  0.3691 -0.1535
   66SAPC  H13A 5410   4.189   6.194   5.521 -0.2939  0.7439  0.9992
   66SAPC  H13B 5411   4.190   6.016   5.513 -1.0939  1.6037 -1.5244
   66SAPC  H13C 5412   4.218   6.092   5.667  0.7353 -1.5621 -0.2183
   66SAPC   C14 5413   4.386   6.140   5.393  0.8649 -0.1352  0.6595
   66SAPC  H14A 5414   4.367   6.242   5.364 -0.7787 -0.9787 -1.5324
   66SAPC  H14B 5415   4.486   6.119   5.357 -0.3587 -0.7036 -2.7224
   66SAPC  H14C 5416   4.315   6.083   5.335  0.9538  2.4563 -2.2336
   66SAPC   C15 5417   4.437   5.982   5.562  0.0783 -0.4650 -0.3284
   66SAPC  H15A 5418   4.417   5.955   5.665 -1.4214  1.8828  0.0608
   66SAPC  H15B 5419   4.392   5.912   5.493  2.5546 -0.9474 -1.5959
   66SAPC  H15C 5420   4.543   5.974   5.540  0.3732  0.7432  0.5656
   66SAPC   C11 5421   4.434   6.213   5.764  0.1342  0.0662 -0.6614
   66SAPC  H11A 5422   4.501   6.286   5.815  0.3512 -0.3324 -0.3714
   66SAPC  H11B 5423   4.483   6.116   5.784  2.5056  0.9733 -1.6974
   66SAPC     P 5424   4.225   6.332   5.897 -0.4245 -0.6106 -0.0312
   66SAPC   O13 5425   4.190   6.433   5.790  0.4725 -0.3000  0.0746
   66SAPC   O14 5426   4.112   6.280   5.975 -0.8236 -0.4967 -0.2320
   66SAPC   O12 5427   4.297   6.212   5.815 -0.7049  0.6932 -0.2859
   66SAPC   O11 5428   4.325   6.411   5.995 -0.0547 -0.2205  0.0019
   66SAPC    C1 5429   4.373   6.344   6.112 -0.4611 -0.4195  0.3193
   66SAPC    HA 5430   4.373   6.234   6.096  0.5503 -0.5018  0.8509
   66SAPC    HB 5431   4.472   6.390   6.129 -0.6909 -0.2503  1.2601
   66SAPC    C2 5432   4.290   6.373   6.241 -0.0841  0.3917 -0.1413
   66SAPC    HS 5433   4.180   6.358   6.237 -0.6840  3.1412  2.0471
   66SAPC   O21 5434   4.329   6.505   6.286 -0.1598 -0.1383  0.0204
   66SAPC   C21 5435   4.237   6.586   6.320 -0.3418 -0.3110 -0.5144
   66SAPC   O22 5436   4.116   6.581   6.303 -0.6049  0.4489  0.0541
   66SAPC   C22 5437   4.306   6.707   6.387 -0.6695  0.1303 -0.4514
   66SAPC   H2R 5438   4.391   6.719   6.316 -1.0639  0.3952 -0.8815
   66SAPC   H2S 5439   4.246   6.800   6.380 -0.1091  0.4102 -2.2570
   66SAPC    C3 5440   4.329   6.273   6.349 -0.3478 -0.2319 -0.4738
   66SAPC    HX 5441   4.440   6.277   6.347 -0.2817 -1.5717 -0.9990
   66SAPC    HY 5442   4.300   6.172   6.311  0.5374 -0.4213 -0.6573
   66SAPC   O31 5443   4.274   6.300   6.479  0.7427 -0.8308  0.4439
   66SAPC   C31 5444   4.321   6.223   6.570  0.1421 -0.3580  0.1228
   66SAPC   O32 5445   4.421   6.161   6.562 -0.2248  0.2694  0.1799
   66SAPC   C32 5446   4.251   6.234   6.702 -0.6530 -0.2098  0.6466
   66SAPC   H2X 5447   4.164   6.165   6.698 -0.1806 -0.7643 -1.0459
   66SAPC   H2Y 5448   4.206   6.335   6.705 -0.1924 -0.0070  0.7735
   66SAPC   C23 5449   4.341   6.674   6.530 -0.3472  0.4090  0.1113
   66SAPC   H3R 5450   4.441   6.708   6.563  0.6138 -1.3255 -0.8718
   66SAPC   H3S 5451   4.336   6.564   6.542 -0.5496  0.3889 -0.1457
   66SAPC   C24 5452   4.234   6.738   6.629 -0.0974  0.3345 -0.1454
   66SAPC   H4R 5453   4.229   6.844   6.596 -1.4454  0.4621  0.4043
   66SAPC   H4S 5454   4.280   6.732   6.729 -0.1484  1.2416 -0.0542
   66SAPC   C25 5455   4.097   6.679   6.616  0.3800 -0.1477  0.2530
   66SAPC   H5R 5456   4.055   6.694   6.516 -0.0373  0.5624  0.5250
   66SAPC   C26 5457   4.027   6.620   6.710  0.5409  0.2572 -0.4310
   66SAPC   H6R 5458   3.922   6.598   6.685  0.2245  0.0438  1.0065
   66SAPC   C27 5459   4.058   6.601   6.852 -0.3766  0.4550 -0.4779
   66SAPC   H7R 5460   4.140   6.671   6.881 -0.0561  0.3266 -1.0738
   66SAPC   H7S 5461   4.087   6.494   6.863 -0.9543  0.4341  1.1972
   66SAPC   C28 5462   3.943   6.640   6.946 -0.7441  0.7103  0.7344
   66SAPC   H8R 5463   3.864   6.706   6.906 -1.0508  1.2443  2.1385
   66SAPC   C29 5464   3.929   6.599   7.069  0.0095  0.1156 -0.4550
   66SAPC   H9R 5465   3.844   6.634   7.129  1.5462  0.0439  1.8996
   66SAPC  C210 5466   4.015   6.500   7.146  0.5054 -0.3677  0.0242
   66SAPC  H10R 5467   4.091   6.457   7.077 -0.8404 -1.4030 -0.8651
   66SAPC  H10S 5468   3.954   6.414   7.178 -0.3926  0.8564  1.7514
   66SAPC  C211 5469   4.086   6.570   7.261  0.7059  0.0827 -0.1311
   66SAPC  H11R 5470   4.170   6.630   7.224  2.4493 -1.9680  0.3331
   66SAPC  C212 5471   4.057   6.563   7.392  0.4414  0.1991 -0.2891
   66SAPC  H12R 5472   4.120   6.631   7.452 -0.7016  2.1500 -1.2010
   66SAPC  C213 5473   3.944   6.488   7.467 -0.6725 -0.3720 -0.0694
   66SAPC  H13R 5474   3.896   6.411   7.403 -3.1931  0.2377  0.9426
   66SAPC  H13S 5475   3.868   6.569   7.479 -0.5566 -0.1280 -0.9229
   66SAPC  C214 5476   3.984   6.414   7.599 -0.7572  0.7166  0.4480
   66SAPC  H14R 5477   3.997   6.305   7.598 -2.8240  0.3942  2.0087
   66SAPC  C215 5478   3.980   6.460   7.727  0.8100 -0.9066  0.3738
   66SAPC  H15R 5479   4.017   6.393   7.805  1.0822 -2.9136 -1.3921
   66SAPC  C216 5480   3.929   6.589   7.775 -0.4924 -0.4368  0.2753
   66SAPC  H16R 5481   3.952   6.664   7.697  3.3977 -1.2384  0.4376
   66SAPC  H16S 5482   3.988   6.619   7.865  1.4808 -1.6603 -0.5419
   66SAPC  C217 5483   3.780   6.591   7.813 -0.3897 -0.1619  0.0970
   66SAPC  H17R 5484   3.713   6.585   7.725  1.6976  2.5361 -1.8371
   66SAPC  H17S 5485   3.772   6.696   7.847  2.8166  0.3755 -0.5034
   66SAPC  C218 5486   3.740   6.493   7.924  0.0999 -0.9855  0.0127
   66SAPC  H18R 5487   3.809   6.504   8.010 -0.5058 -1.2235  0.5390
   66SAPC  H18S 5488   3.751   6.391   7.880 -1.0664 -0.8993 -0.5307
   66SAPC  C219 5489   3.597   6.513   7.973 -0.4375  0.2398  0.1013
   66SAPC  H19R 5490   3.532   6.532   7.884 -1.5390  0.2240  0.8769
   66SAPC  H19S 5491   3.586   6.600   8.042 -0.2013  0.0080  0.4335
   66SAPC  C220 5492   3.551   6.382   8.041 -0.0990  0.4883 -0.0964
   66SAPC  H20R 5493   3.605   6.364   8.136  1.8438  0.0038 -1.2360
   66SAPC  H20S 5494   3.546   6.288   7.983 -1.0186  0.6810 -0.3511
   66SAPC  H20T 5495   3.450   6.408   8.081 -0.0853  0.7360 -0.2179
   66SAPC   C33 5496   4.336   6.217   6.829 -0.2213 -0.6495 -0.1981
   66SAPC   H3X 5497   4.403   6.305   6.835 -0.9675  0.0953 -2.0180
   66SAPC   H3Y 5498   4.397   6.124   6.825  1.2343  0.2961 -0.9462
   66SAPC   C34 5499   4.263   6.235   6.961  0.2086  0.5339 -0.2186
   66SAPC   H4X 5500   4.165   6.183   6.951  0.5797  0.2281 -2.7648
   66SAPC   H4Y 5501   4.239   6.343   6.974  0.2819  0.5849 -0.5167
   66SAPC   C35 5502   4.345   6.190   7.078 -0.6597  0.9030 -0.8770
   66SAPC   H5X 5503   4.425   6.266   7.093  1.6875 -1.5085 -0.3490
   66SAPC   H5Y 5504   4.391   6.090   7.065  1.2016  0.9413  3.5694
   66SAPC   C36 5505   4.253   6.193   7.205  0.1473 -0.1943 -0.2205
   66SAPC   H6X 5506   4.181   6.110   7.186  1.4303 -1.2871 -0.4156
   66SAPC   H6Y 5507   4.194   6.287   7.210 -1.0529 -0.6872 -2.9651
   66SAPC   C37 5508   4.332   6.159   7.323 -0.6218 -0.0603  0.2133
   66SAPC   H7X 5509   4.417   6.228   7.344 -0.1509 -0.0551 -1.5096
   66SAPC   H7Y 5510   4.387   6.064   7.302 -0.9395 -0.1574 -0.2046
   66SAPC   C38 5511   4.251   6.149   7.459 -0.0262  0.5652  0.2289
   66SAPC   H8X 5512   4.177   6.069   7.437 -1.1787  1.9429 -1.1510
   66SAPC   H8Y 5513   4.196   6.244   7.475 -0.0595  0.2923  1.8045
   66SAPC   C39 5514   4.329   6.103   7.582 -0.1406  0.0996 -0.1910
   66SAPC   H9X 5515   4.372   6.194   7.627  0.2655 -0.2566  0.1451
   66SAPC   H9Y 5516   4.405   6.030   7.547 -0.3938 -0.6484  0.7856
   66SAPC  C310 5517   4.234   6.055   7.689  0.5714  0.0787  0.0518
   66SAPC  H10X 5518   4.156   5.994   7.639 -1.9978  2.6314  0.7275
   66SAPC  H10Y 5519   4.176   6.138   7.733  1.5054  1.7425 -1.7164
   66SAPC  C311 5520   4.308   5.981   7.795 -0.0825 -0.1034 -0.1100
   66SAPC  H11X 5521   4.367   5.908   7.736 -0.1445 -0.5545  0.3821
   66SAPC  H11Y 5522   4.245   5.912   7.855  1.2113  0.5475  2.1060
   66SAPC  C312 5523   4.388   6.063   7.898  0.1550 -0.0797 -0.2925
   66SAPC  H12X 5524   4.325   6.126   7.964  2.2962  0.6141  1.2061
   66SAPC  H12Y 5525   4.456   6.131   7.843 -0.4257  0.2869 -0.5611
   66SAPC  C313 5526   4.490   5.981   7.979 -0.8322 -0.9635 -0.2780
   66SAPC  H13X 5527   4.547   5.917   7.908 -2.0085 -0.0765 -2.1054
   66SAPC  H13Y 5528   4.442   5.916   8.056  0.6189  1.7689  3.1950
   66SAPC  C314 5529   4.594   6.061   8.059  0.3157  0.1299 -0.2297
   66SAPC  H14X 5530   4.545   6.116   8.143  2.1985 -0.6589  1.4689
   66SAPC  H14Y 5531   4.632   6.140   7.990  0.6066 -1.1194 -1.5420
   66SAPC  C315 5532   4.717   5.978   8.118  0.9376 -0.1745  0.1599
   66SAPC  H15X 5533   4.766   5.923   8.035 -1.8079  0.1500 -1.8317
   66SAPC  H15Y 5534   4.673   5.901   8.184  1.5565 -0.4001  0.3168
   66SAPC  C316 5535   4.821   6.061   8.190  0.3177 -0.1419  0.2956
   66SAPC  H16X 5536   4.774   6.117   8.275  1.1330  2.0009 -0.5807
   66SAPC  H16Y 5537   4.848   6.138   8.115 -2.0647 -1.5449 -2.1656
   66SAPC  C317 5538   4.949   5.990   8.233 -0.5272 -0.3066 -0.4272
   66SAPC  H17X 5539   4.992   5.927   8.152  2.6580  3.1762 -1.7661
   66SAPC  H17Y 5540   4.922   5.922   8.317  2.4342  0.1349  1.0432
   66SAPC  C318 5541   5.065   6.074   8.290  0.0772  0.1098 -0.7173
   66SAPC  H18X 5542   5.142   6.009   8.337 -1.4253 -3.7184 -3.1229
   66SAPC  H18Y 5543   5.026   6.156   8.354 -2.1024 -0.3518 -1.3914
   66SAPC  H18Z 5544   5.109   6.124   8.201  0.2354 -1.0729 -1.3177
   67SAPC     N 5545   0.086   2.442   6.102 -0.2501  0.0014 -0.2908
   67SAPC   C12 5546   0.034   2.371   6.226  0.3332  0.7192 -0.3575
   67SAPC  H12A 5547  -0.071   2.359   6.205  0.7799 -0.3836 -2.1416
   67SAPC  H12B 5548   0.049   2.449   6.300 -0.0415  1.8874 -1.4633
   67SAPC   C13 5549   0.020   2.569   6.063  0.3041 -0.3376 -0.1674
   67SAPC  H13A 5550   0.035   2.635   6.147  0.9637  0.2540 -0.7238
   67SAPC  H13B 5551   0.069   2.601   5.971  1.9029  1.8549  1.3311
   67SAPC  H13C 5552  -0.087   2.564   6.049  0.4388 -1.0854 -1.0503
   67SAPC   C14 5553   0.223   2.493   6.141 -0.4639  0.4328  0.7352
   67SAPC  H14A 5554   0.276   2.409   6.184 -0.0292 -0.2091 -0.9522
   67SAPC  H14B 5555   0.279   2.515   6.051 -0.9927  0.3662  0.3855
   67SAPC  H14C 5556   0.222   2.571   6.215  1.6054  0.3333  0.9236
   67SAPC   C15 5557   0.091   2.345   5.983 -0.6199  0.3432 -0.4743
   67SAPC  H15A 5558   0.150   2.258   6.008 -1.9296 -0.6059 -0.5748
   67SAPC  H15B 5559  -0.004   2.308   5.948 -1.4194  1.2380  0.6961
   67SAPC  H15C 5560   0.132   2.383   5.890  0.5164 -1.5258 -0.8104
   67SAPC   C11 5561   0.100   2.241   6.262 -0.5723 -0.1496 -0.0388
   67SAPC  H11A 5562   0.209   2.257   6.276 -0.1625 -1.6881 -1.2646
   67SAPC  H11B 5563   0.092   2.168   6.179  0.8951  0.8454 -1.1216
   67SAPC     P 5564   0.075   2.212   6.521 -0.2552 -0.0091 -0.4707
   67SAPC   O13 5565  -0.035   2.185   6.618 -0.0447 -0.3467 -0.1671
   67SAPC   O14 5566   0.200   2.129   6.539 -0.1994 -0.1788 -0.2076
   67SAPC   O12 5567   0.030   2.194   6.371 -0.5391  0.1250 -0.3837
   67SAPC   O11 5568   0.111   2.367   6.536 -0.2397  0.0995  0.5318
   67SAPC    C1 5569   0.020   2.469   6.573  0.2717  0.4062 -0.4527
   67SAPC    HA 5570   0.030   2.547   6.496  0.8493  1.8547  1.0264
   67SAPC    HB 5571  -0.081   2.436   6.607  2.3296 -2.2840  4.0459
   67SAPC    C2 5572   0.086   2.543   6.693  0.0614  0.2119 -0.1962
   67SAPC    HS 5573   0.183   2.583   6.658 -1.5515  1.6882 -3.3745
   67SAPC   O21 5574   0.083   2.460   6.813 -0.6664  0.7938  0.2683
   67SAPC   C21 5575   0.195   2.400   6.837  0.2299  0.2605 -0.8008
   67SAPC   O22 5576   0.292   2.392   6.763  0.6374  0.7390 -0.3522
   67SAPC   C22 5577   0.178   2.321   6.969  0.2196  0.1269  0.3699
   67SAPC   H2R 5578   0.189   2.398   7.049 -0.2061 -0.4051  0.9539
   67SAPC   H2S 5579   0.074   2.283   6.978 -0.2604  1.1908 -0.4494
   67SAPC    C3 5580  -0.001   2.665   6.736 -0.3035  0.3827  0.0267
   67SAPC    HX 5581  -0.103   2.637   6.771  0.2627 -2.8267 -0.5514
   67SAPC    HY 5582  -0.025   2.719   6.642  0.7276  1.2850  0.2630
   67SAPC   O31 5583   0.064   2.747   6.838  0.2279  0.3852  0.1493
   67SAPC   C31 5584   0.026   2.876   6.839  0.3067 -0.2476  0.1239
   67SAPC   O32 5585  -0.063   2.925   6.773  0.4919 -0.0726  0.4746
   67SAPC   C32 5586   0.115   2.946   6.950  0.0864 -0.1105  0.8517
   67SAPC   H2X 5587   0.104   3.055   6.928  0.2535 -0.1609  0.5179
   67SAPC   H2Y 5588   0.222   2.924   6.932  0.5927  1.9343  1.1267
   67SAPC   C23 5589   0.285   2.208   6.990  0.0882  0.2809  0.2959
   67SAPC   H3R 5590   0.386   2.250   6.972 -0.0826  0.6892  0.2792
   67SAPC   H3S 5591   0.280   2.125   6.915  1.3229 -1.0223  1.5920
   67SAPC   C24 5592   0.271   2.141   7.129  0.1673 -0.2971 -0.6453
   67SAPC   H4R 5593   0.291   2.214   7.210 -1.8614  0.4578 -0.7816
   67SAPC   H4S 5594   0.339   2.053   7.134 -0.4945 -0.7588  0.5283
   67SAPC   C25 5595   0.134   2.083   7.162 -0.5820  0.1030 -1.0206
   67SAPC   H5R 5596   0.036   2.111   7.120  0.0587  1.6818 -1.5033
   67SAPC   C26 5597   0.122   1.983   7.256 -0.2289  0.1396  0.1630
   67SAPC   H6R 5598   0.022   1.937   7.260 -0.3772  0.4554  0.1196
   67SAPC   C27 5599   0.233   1.911   7.332 -0.4283 -0.5557 -0.3137
   67SAPC   H7R 5600   0.251   1.980   7.418 -1.4891 -0.1413 -0.4019
   67SAPC   H7S 5601   0.333   1.916   7.284 -1.2148 -0.4764 -2.0168
   67SAPC   C28 5602   0.208   1.766   7.371  0.7082  0.1642  0.5284
   67SAPC   H8R 5603   0.213   1.691   7.291 -3.2097  0.1599  0.0928
   67SAPC   C29 5604   0.178   1.724   7.493  0.1595  0.8489  0.8949
   67SAPC   H9R 5605   0.162   1.615   7.500  2.6730  0.2549 -1.0239
   67SAPC  C210 5606   0.188   1.805   7.616  0.6225 -0.3536 -0.0156
   67SAPC  H10R 5607   0.083   1.813   7.651 -0.0539  1.1781 -2.1994
   67SAPC  H10S 5608   0.217   1.912   7.610 -0.5845 -0.1180 -3.5790
   67SAPC  C211 5609   0.284   1.745   7.713 -0.2302 -0.3945 -0.4397
   67SAPC  H11R 5610   0.383   1.739   7.664 -1.5954  1.3453 -3.7336
   67SAPC  C212 5611   0.275   1.727   7.848 -0.0761 -0.8934 -0.0637
   67SAPC  H12R 5612   0.364   1.681   7.892 -0.9696 -0.0639  2.8610
   67SAPC  C213 5613   0.153   1.763   7.933  0.3677  0.5326 -0.9731
   67SAPC  H13R 5614   0.078   1.686   7.904 -0.6340  1.4828 -0.9676
   67SAPC  H13S 5615   0.116   1.864   7.903 -0.2725  0.2937 -1.0207
   67SAPC  C214 5616   0.178   1.753   8.085 -0.8737 -0.4383  0.0504
   67SAPC  H14R 5617   0.138   1.667   8.140 -2.1803 -0.1244 -0.3592
   67SAPC  C215 5618   0.265   1.832   8.152 -0.8336  0.4262 -0.1610
   67SAPC  H15R 5619   0.273   1.816   8.260  0.5549 -1.8635 -0.5482
   67SAPC  C216 5620   0.354   1.942   8.091 -0.4020  0.2606 -0.3939
   67SAPC  H16R 5621   0.325   2.041   8.133  0.6095  0.3571  0.1024
   67SAPC  H16S 5622   0.342   1.951   7.981  0.7878 -0.9199 -0.6376
   67SAPC  C217 5623   0.504   1.914   8.113  0.5745 -0.4436  0.3216
   67SAPC  H17R 5624   0.540   1.816   8.078  0.5993 -0.8113  1.3417
   67SAPC  H17S 5625   0.509   1.922   8.224  1.3795  0.4791  0.2378
   67SAPC  C218 5626   0.595   2.028   8.050  0.1109  0.1370 -0.3849
   67SAPC  H18R 5627   0.558   2.122   8.097  0.4973 -0.0427  0.2993
   67SAPC  H18S 5628   0.585   2.028   7.940  1.7029  1.8079 -0.5736
   67SAPC  C219 5629   0.746   2.020   8.090  0.3313 -0.1099 -0.5424
   67SAPC  H19R 5630   0.797   2.103   8.037  0.5493 -0.1802 -0.4428
   67SAPC  H19S 5631   0.791   1.927   8.049 -1.9534 -0.6840 -1.9201
   67SAPC  C220 5632   0.770   2.036   8.244  0.6604 -0.2498  1.1550
   67SAPC  H20R 5633   0.709   2.121   8.281  0.8711  0.0513  0.8210
   67SAPC  H20S 5634   0.876   2.067   8.263  0.2795  0.8227  1.6289
   67SAPC  H20T 5635   0.744   1.941   8.295 -0.3876  0.6471  2.3763
   67SAPC   C33 5636   0.067   2.907   7.085 -0.5158  0.5745 -0.0857
   67SAPC   H3X 5637   0.083   2.797   7.090  2.4962  0.9667  0.3782
   67SAPC   H3Y 5638  -0.043   2.918   7.101 -0.3470  0.2722  1.4231
   67SAPC   C34 5639   0.147   2.970   7.200 -0.3813 -0.4569 -0.0645
   67SAPC   H4X 5640   0.138   3.081   7.197  2.4122 -0.1257  0.9332
   67SAPC   H4Y 5641   0.255   2.960   7.176 -0.1221  1.4683  0.1051
   67SAPC   C35 5642   0.102   2.931   7.337  0.1937  0.0041  0.0015
   67SAPC   H5X 5643   0.176   2.861   7.382  0.0962  0.9330  1.6968
   67SAPC   H5Y 5644  -0.001   2.888   7.340 -1.1435  2.8658 -1.1169
   67SAPC   C36 5645   0.097   3.046   7.432 -0.5803  0.5162 -0.5246
   67SAPC   H6X 5646   0.019   3.113   7.389 -1.8475 -1.2703 -1.1507
   67SAPC   H6Y 5647   0.198   3.091   7.425  0.2684 -0.9036  1.4453
   67SAPC   C37 5648   0.064   3.014   7.580 -0.2660 -0.4283  0.1515
   67SAPC   H7X 5649   0.142   2.959   7.637 -3.4728 -1.6881  3.7359
   67SAPC   H7Y 5650  -0.035   2.966   7.590  0.6530 -2.1832  1.4286
   67SAPC   C38 5651   0.029   3.139   7.661  0.3665 -0.2313  0.3547
   67SAPC   H8X 5652  -0.065   3.175   7.615  1.6889 -1.5258 -3.7366
   67SAPC   H8Y 5653   0.113   3.210   7.648  1.1194 -1.3386 -1.0775
   67SAPC   C39 5654   0.022   3.114   7.814 -0.3345  0.1221 -0.0920
   67SAPC   H9X 5655   0.122   3.082   7.851 -0.1949  1.1435  0.4591
   67SAPC   H9Y 5656  -0.054   3.033   7.815 -1.9784  1.5894  0.5216
   67SAPC  C310 5657  -0.029   3.232   7.905 -0.4701 -0.6659 -0.4764
   67SAPC  H10X 5658  -0.111   3.285   7.853 -0.4626 -1.1140 -0.9617
   67SAPC  H10Y 5659   0.054   3.302   7.927 -0.9245 -1.0175  3.1134
   67SAPC  C311 5660  -0.064   3.181   8.049  0.2047  0.5021  0.5068
   67SAPC  H11X 5661   0.023   3.147   8.108  1.1018  0.6011 -0.7282
   67SAPC  H11Y 5662  -0.130   3.094   8.028 -0.3146  1.2174 -0.9799
   67SAPC  C312 5663  -0.141   3.284   8.132 -0.0816  0.5925 -0.2165
   67SAPC  H12X 5664  -0.234   3.302   8.073 -0.7587 -2.1767 -0.1616
   67SAPC  H12Y 5665  -0.077   3.374   8.131 -1.7379  1.8355  0.9534
   67SAPC  C313 5666  -0.174   3.238   8.273 -0.0113  0.1785  0.2029
   67SAPC  H13X 5667  -0.089   3.178   8.312 -0.8970 -0.7567  0.7433
   67SAPC  H13Y 5668  -0.261   3.170   8.262 -0.5348  0.7689  0.6395
   67SAPC  C314 5669  -0.203   3.363   8.362 -0.4306 -0.2454  0.0707
   67SAPC  H14X 5670  -0.312   3.384   8.358 -0.5227 -0.8265 -0.7691
   67SAPC  H14Y 5671  -0.147   3.456   8.339  0.5125  0.0068  2.9785
   67SAPC  C315 5672  -0.163   3.330   8.509  0.3930  0.3192 -0.6193
   67SAPC  H15X 5673  -0.053   3.335   8.502  0.7189 -0.4259  2.3281
   67SAPC  H15Y 5674  -0.195   3.228   8.539  0.2857  0.9345  1.5673
   67SAPC  C316 5675  -0.209   3.423   8.616 -0.1553 -0.2079 -0.1276
   67SAPC  H16X 5676  -0.307   3.394   8.658  0.7863 -2.5319  0.6013
   67SAPC  H16Y 5677  -0.221   3.525   8.572  1.6818 -0.4316 -1.2576
   67SAPC  C317 5678  -0.111   3.441   8.737 -0.8044  0.0976 -0.3703
   67SAPC  H17X 5679  -0.011   3.462   8.694 -1.2126  0.7106 -1.0343
   67SAPC  H17Y 5680  -0.091   3.347   8.793 -1.5819 -1.0743 -1.9943
   67SAPC  C318 5681  -0.156   3.547   8.839  0.4808 -0.8407  0.3815
   67SAPC  H18X 5682  -0.266   3.551   8.850  0.0370 -3.0294 -2.3216
   67SAPC  H18Y 5683  -0.108   3.643   8.807 -0.5668 -0.6155 -0.5638
   67SAPC  H18Z 5684  -0.119   3.523   8.941 -1.7422 -2.4938  0.8520
   68SAPC     N 5685   4.072   1.063   6.070 -0.0115 -0.4579  0.3004
   68SAPC   C12 5686   4.030   0.914   6.051 -0.7583 -0.0516  0.1110
   68SAPC  H12A 5687   4.070   0.878   5.958 -4.9231 -0.8526 -1.5916
   68SAPC  H12B 5688   3.922   0.910   6.042 -0.7466 -2.1116  0.3387
   68SAPC   C13 5689   4.211   1.089   6.019  0.4986 -0.5548  0.5603
   68SAPC  H13A 5690   4.282   1.021   6.064 -0.3410 -1.5504  0.4115
   68SAPC  H13B 5691   4.224   1.075   5.912  0.7574 -0.6808  0.6076
   68SAPC  H13C 5692   4.232   1.194   6.027 -2.5180  0.1861  0.0594
   68SAPC   C14 5693   3.966   1.153   6.007 -0.2457 -0.0058 -0.1523
   68SAPC  H14A 5694   3.992   1.253   6.038 -0.1357  0.2638 -1.0671
   68SAPC  H14B 5695   3.974   1.157   5.899 -1.6723  0.9479 -0.2481
   68SAPC  H14C 5696   3.867   1.118   6.033 -0.0523 -0.5172 -0.1017
   68SAPC   C15 5697   4.074   1.095   6.216  0.0429  0.0720 -0.4481
   68SAPC  H15A 5698   4.096   1.197   6.243  0.8343 -0.3565  0.5877
   68SAPC  H15B 5699   3.994   1.042   6.266  0.2325  1.6656  1.6814
   68SAPC  H15C 5700   4.156   1.035   6.254  1.4236  1.6138 -0.8734
   68SAPC   C11 5701   4.066   0.803   6.159  0.0621  0.8466 -0.3026
   68SAPC  H11A 5702   4.040   0.708   6.107 -1.0153  1.9315 -1.8381
   68SAPC  H11B 5703   3.990   0.817   6.239  0.7670  3.5275 -0.0206
   68SAPC     P 5704   4.331   0.772   6.125  0.3759  0.3802  0.0724
   68SAPC   O13 5705   4.287   0.712   5.998  0.4101 -0.7986  0.4941
   68SAPC   O14 5706   4.423   0.887   6.120 -0.2369 -0.2581 -0.5492
   68SAPC   O12 5707   4.201   0.807   6.216 -0.3435  0.4635 -0.0356
   68SAPC   O11 5708   4.406   0.655   6.207 -0.3922 -0.0848 -0.1732
   68SAPC    C1 5709   4.331   0.545   6.247  0.0373  0.4154  0.0180
   68SAPC    HA 5710   4.239   0.531   6.186 -0.2891  1.2018  0.3139
   68SAPC    HB 5711   4.382   0.451   6.218  1.9563  1.0211  1.2906
   68SAPC    C2 5712   4.282   0.540   6.394  0.1620  0.0145 -0.2567
   68SAPC    HS 5713   4.191   0.604   6.398  1.5304  1.9933  0.7691
   68SAPC   O21 5714   4.370   0.606   6.486  0.6946 -0.7168 -0.7790
   68SAPC   C21 5715   4.486   0.540   6.514  0.5441  1.0537  0.1640
   68SAPC   O22 5716   4.531   0.454   6.439 -0.3209  0.0940 -0.1963
   68SAPC   C22 5717   4.551   0.598   6.635 -0.5809  0.5132 -0.6678
   68SAPC   H2R 5718   4.604   0.689   6.600  0.0107  0.8290  0.9548
   68SAPC   H2S 5719   4.467   0.625   6.703 -1.1065  0.2423 -1.2027
   68SAPC    C3 5720   4.235   0.398   6.443 -0.7239 -0.0597  0.3093
   68SAPC    HX 5721   4.322   0.331   6.424 -0.8366 -0.2111  0.3280
   68SAPC    HY 5722   4.149   0.375   6.377 -0.7700  1.9363 -0.4000
   68SAPC   O31 5723   4.193   0.393   6.586  0.0605  0.3929  0.1725
   68SAPC   C31 5724   4.079   0.325   6.612 -1.1195  0.5912 -0.0487
   68SAPC   O32 5725   4.019   0.260   6.529  0.6208  0.3234  0.6292
   68SAPC   C32 5726   4.058   0.315   6.770  0.4849 -0.2257 -0.1084
   68SAPC   H2X 5727   4.019   0.418   6.787 -1.0088 -0.5424 -1.3659
   68SAPC   H2Y 5728   4.153   0.301   6.826 -0.6508  0.3746  2.0910
   68SAPC   C23 5729   4.659   0.510   6.707  0.0721 -0.3252  1.0918
   68SAPC   H3R 5730   4.719   0.590   6.754  0.0813  0.1468  0.2938
   68SAPC   H3S 5731   4.720   0.460   6.628  1.2210 -0.8533  2.2560
   68SAPC   C24 5732   4.591   0.409   6.795 -0.1427 -0.7389  0.2227
   68SAPC   H4R 5733   4.511   0.464   6.849  1.3340  2.4609 -0.6157
   68SAPC   H4S 5734   4.665   0.385   6.874 -2.4524  1.1389  3.1525
   68SAPC   C25 5735   4.541   0.289   6.718 -0.0317 -0.1704 -0.0802
   68SAPC   H5R 5736   4.532   0.301   6.609  0.7660 -1.4946 -0.3263
   68SAPC   C26 5737   4.516   0.171   6.773  0.1766  0.1129 -0.7046
   68SAPC   H6R 5738   4.481   0.086   6.712  0.9708 -1.3618  0.7923
   68SAPC   C27 5739   4.534   0.120   6.918  0.1852 -0.3553  0.2856
   68SAPC   H7R 5740   4.610   0.185   6.967  0.9632 -0.4581 -0.7580
   68SAPC   H7S 5741   4.583   0.021   6.909  0.2133 -0.6391  2.8836
   68SAPC   C28 5742   4.404   0.122   6.988 -0.0673  0.0485 -0.6749
   68SAPC   H8R 5743   4.322   0.064   6.942  0.3397 -0.2305 -1.0678
   68SAPC   C29 5744   4.379   0.197   7.092  0.6460  0.0604 -0.1437
   68SAPC   H9R 5745   4.278   0.191   7.135  0.9370 -1.1188  0.4024
   68SAPC  C210 5746   4.467   0.300   7.159 -0.0284  0.2133  1.1909
   68SAPC  H10R 5747   4.494   0.366   7.074 -1.2513 -1.5254 -0.6357
   68SAPC  H10S 5748   4.557   0.245   7.194  0.6040 -0.6241 -1.5092
   68SAPC  C211 5749   4.399   0.371   7.267  0.0785 -0.1174  0.7257
   68SAPC  H11R 5750   4.354   0.466   7.234 -1.0179 -0.7633  0.3340
   68SAPC  C212 5751   4.403   0.329   7.391  0.7288 -0.8101  0.0183
   68SAPC  H12R 5752   4.331   0.381   7.456  1.2224  1.4002 -1.1034
   68SAPC  C213 5753   4.465   0.201   7.447 -0.1562 -0.1003  0.1417
   68SAPC  H13R 5754   4.536   0.220   7.530 -0.3351 -1.3309  0.6048
   68SAPC  H13S 5755   4.509   0.134   7.370  1.4718  0.1020  0.8532
   68SAPC  C214 5756   4.361   0.125   7.522  0.1524  0.0551  0.3351
   68SAPC  H14R 5757   4.291   0.075   7.454 -0.0921 -0.4162  0.9135
   68SAPC  C215 5758   4.356   0.113   7.655  0.2173  0.3665  0.3892
   68SAPC  H15R 5759   4.281   0.045   7.697  2.7269 -2.0357  1.3209
   68SAPC  C216 5760   4.451   0.174   7.759  0.1277  0.1786 -0.6938
   68SAPC  H16R 5761   4.403   0.190   7.859 -0.4241  0.3365 -0.9802
   68SAPC  H16S 5762   4.486   0.276   7.733 -2.1631  0.9718 -0.9113
   68SAPC  C217 5763   4.575   0.089   7.786  0.0575  0.6619 -0.0709
   68SAPC  H17R 5764   4.622   0.066   7.688 -1.7853  1.5346 -1.2207
   68SAPC  H17S 5765   4.540  -0.007   7.829 -0.1128 -0.0278 -1.6746
   68SAPC  C218 5766   4.676   0.152   7.886 -0.2061  0.0760  0.6724
   68SAPC  H18R 5767   4.687   0.262   7.883 -0.6064  0.1037 -0.0216
   68SAPC  H18S 5768   4.778   0.114   7.865  0.0479  1.4403 -0.6743
   68SAPC  C219 5769   4.649   0.103   8.030  0.5399  0.1331 -0.0813
   68SAPC  H19R 5770   4.667  -0.007   8.035  1.4094  0.2705  0.0204
   68SAPC  H19S 5771   4.543   0.124   8.054  1.4763  1.6173  3.2819
   68SAPC  C220 5772   4.739   0.174   8.125  0.1311  0.0527 -0.7064
   68SAPC  H20R 5773   4.847   0.160   8.108  0.1554 -1.5704  0.5168
   68SAPC  H20S 5774   4.711   0.133   8.225 -0.6133  0.2224 -0.8340
   68SAPC  H20T 5775   4.718   0.283   8.127 -0.7138 -0.1080  0.1526
   68SAPC   C33 5776   3.941   0.220   6.797 -0.0455  0.2880 -0.1671
   68SAPC   H3X 5777   3.930   0.148   6.713 -1.7017  2.1291 -1.6372
   68SAPC   H3Y 5778   3.848   0.281   6.793 -0.1096  0.4058  2.0155
   68SAPC   C34 5779   3.963   0.155   6.934  0.7243  0.7164 -1.2520
   68SAPC   H4X 5780   4.051   0.088   6.928  0.1766 -0.1005 -0.3925
   68SAPC   H4Y 5781   3.876   0.087   6.950  1.0655  0.8393  1.4613
   68SAPC   C35 5782   3.968   0.239   7.063  0.0087 -0.9014  0.3817
   68SAPC   H5X 5783   3.881   0.308   7.058 -0.5163 -1.6015 -0.5148
   68SAPC   H5Y 5784   4.057   0.304   7.076  0.5244 -1.8698  2.0616
   68SAPC   C36 5785   3.959   0.158   7.196  0.4345  1.0680 -0.1217
   68SAPC   H6X 5786   4.033   0.077   7.176  0.7329  1.7298 -1.8667
   68SAPC   H6Y 5787   3.867   0.095   7.208  2.1288 -1.2240  1.8452
   68SAPC   C37 5788   3.990   0.238   7.321  0.9938 -0.3888  0.1823
   68SAPC   H7X 5789   3.926   0.328   7.330  2.1475  1.0462 -3.7974
   68SAPC   H7Y 5790   4.095   0.273   7.313  0.1008  2.5573  0.2337
   68SAPC   C38 5791   3.963   0.154   7.441 -0.5245  0.4986  0.6704
   68SAPC   H8X 5792   4.027   0.064   7.443 -0.4717  0.5411  1.6508
   68SAPC   H8Y 5793   3.862   0.111   7.456 -0.9672  1.3678  0.2801
   68SAPC   C39 5794   3.996   0.234   7.571 -0.4642 -0.3179  0.3611
   68SAPC   H9X 5795   3.938   0.328   7.558 -1.8769 -1.2594 -0.3071
   68SAPC   H9Y 5796   4.107   0.244   7.565 -0.5264 -0.0012 -0.3140
   68SAPC  C310 5797   3.967   0.176   7.708 -0.6878  0.3195 -0.1946
   68SAPC  H10X 5798   4.017   0.077   7.701 -2.2501 -0.3803 -2.1858
   68SAPC  H10Y 5799   3.860   0.155   7.726 -0.4642  0.0289  0.8949
   68SAPC  C311 5800   4.021   0.250   7.828  0.7678 -0.2641 -0.5065
   68SAPC  H11X 5801   3.961   0.343   7.835  0.0622 -0.7086 -0.6019
   68SAPC  H11Y 5802   4.130   0.271   7.815  1.4046 -0.7953  2.9517
   68SAPC  C312 5803   3.999   0.173   7.958 -0.7278  0.1784 -0.0701
   68SAPC  H12X 5804   3.924   0.093   7.943  0.6236 -1.3091  0.7892
   68SAPC  H12Y 5805   3.954   0.239   8.035 -0.3827 -0.5095  0.7417
   68SAPC  C313 5806   4.140   0.121   8.004  0.5310  0.6392  0.0680
   68SAPC  H13X 5807   4.193   0.207   8.049  1.3358 -0.9753  2.4040
   68SAPC  H13Y 5808   4.208   0.109   7.917  0.4716  1.6342 -0.1344
   68SAPC  C314 5809   4.139  -0.007   8.084 -0.1263  0.3734 -0.9094
   68SAPC  H14X 5810   4.245  -0.035   8.101 -0.6307 -0.3504  1.3712
   68SAPC  H14Y 5811   4.098  -0.100   8.039 -0.2658  0.0592 -0.1434
   68SAPC  C315 5812   4.076   0.024   8.224  0.7923  0.4341 -0.2518
   68SAPC  H15X 5813   3.967   0.044   8.220  0.3527 -1.7325 -0.2702
   68SAPC  H15Y 5814   4.138   0.106   8.267  0.0901  0.5879  0.4993
   68SAPC  C316 5815   4.079  -0.086   8.332 -0.0169 -0.3160 -0.3800
   68SAPC  H16X 5816   4.055  -0.034   8.427 -4.2264 -1.8849 -0.4043
   68SAPC  H16Y 5817   4.182  -0.127   8.342 -0.5535 -1.2306  1.9757
   68SAPC  C317 5818   3.970  -0.197   8.304  0.4063 -0.2042  0.5292
   68SAPC  H17X 5819   3.985  -0.227   8.199  1.2264 -1.1051  0.8968
   68SAPC  H17Y 5820   3.870  -0.150   8.316  0.9220  0.7507  1.3084
   68SAPC  C318 5821   3.969  -0.328   8.392  0.2925 -0.8500 -0.0440
   68SAPC  H18X 5822   4.067  -0.379   8.397 -0.1427 -1.5910  1.2323
   68SAPC  H18Y 5823   3.887  -0.398   8.366 -1.3605  0.2496  1.8802
   68SAPC  H18Z 5824   3.941  -0.314   8.498 -1.4115 -0.3914 -0.5079
   69SLPC     N 5825   4.603   4.587  11.276  0.0911 -0.6659  0.0837
   69SLPC   C13 5826   4.453   4.576  11.244 -0.5618  0.3373 -0.3362
   69SLPC  H13A 5827   4.390   4.640  11.304 -2.6598 -2.3191  0.5246
   69SLPC  H13B 5828   4.428   4.592  11.141  0.8576  3.7916 -0.2690
   69SLPC  H13C 5829   4.424   4.479  11.282  0.1721  0.4402  0.5178
   69SLPC   C14 5830   4.616   4.579  11.419  0.3842 -0.8347  0.5222
   69SLPC  H14A 5831   4.721   4.558  11.432  0.4886 -0.6357  0.0319
   69SLPC  H14B 5832   4.604   4.676  11.467  0.9579 -0.9038  0.8157
   69SLPC  H14C 5833   4.546   4.507  11.458 -0.5279 -1.5566 -2.2165
   69SLPC   C15 5834   4.650   4.724  11.226 -0.0101 -0.3455 -0.3834
   69SLPC  H15A 5835   4.580   4.797  11.265 -1.0143 -1.3497 -0.2357
   69SLPC  H15B 5836   4.754   4.741  11.251 -0.3011 -0.8585  1.3372
   69SLPC  H15C 5837   4.663   4.717  11.119 -0.0001  0.9452 -0.4818
   69SLPC   C12 5838   4.676   4.464  11.219  0.0859  0.0258 -0.6952
   69SLPC  H12A 5839   4.625   4.373  11.244 -2.4297  1.7371  0.9466
   69SLPC  H12B 5840   4.773   4.456  11.265  0.6786  2.4845 -1.3613
   69SLPC   C11 5841   4.702   4.473  11.072 -0.5235  0.2088  0.0621
   69SLPC  H11A 5842   4.734   4.572  11.035  1.2719 -0.6187 -0.6949
   69SLPC  H11B 5843   4.607   4.449  11.019 -0.1082  0.9909 -1.0731
   69SLPC     P 5844   4.870   4.352  10.904  0.3986 -0.2024  0.2982
   69SLPC   O13 5845   4.927   4.482  10.864  0.6383 -0.1028  0.4196
   69SLPC   O14 5846   4.966   4.241  10.914 -0.0909 -0.5490 -0.0847
   69SLPC   O12 5847   4.803   4.376  11.045 -0.0394 -0.5114 -0.3256
   69SLPC   O11 5848   4.741   4.314  10.817 -0.3130  1.1689 -0.4631
   69SLPC    C1 5849   4.749   4.240  10.689  0.1286 -0.2005  0.0189
   69SLPC    HA 5850   4.815   4.150  10.685 -1.7156 -1.5742 -1.3543
   69SLPC    HB 5851   4.646   4.213  10.658  0.0250 -0.1345  0.3002
   69SLPC    C2 5852   4.790   4.325  10.564 -0.0810  0.0132 -0.5205
   69SLPC    HS 5853   4.888   4.375  10.581  0.6926 -1.3554 -0.7735
   69SLPC   O21 5854   4.686   4.421  10.541  0.2565 -0.5777 -0.2607
   69SLPC   C21 5855   4.731   4.527  10.471  0.7247 -0.4415 -1.0103
   69SLPC   O22 5856   4.843   4.572  10.471  0.4653 -0.3521 -0.4015
   69SLPC   C22 5857   4.615   4.592  10.411 -0.0239  0.4363  0.1859
   69SLPC   H2R 5858   4.520   4.553  10.454  0.3354 -2.0243 -1.0518
   69SLPC   H2S 5859   4.625   4.701  10.430 -1.2749  0.7430 -0.7658
   69SLPC    C3 5860   4.803   4.238  10.432  0.2763  0.3838 -0.7691
   69SLPC    HX 5861   4.709   4.190  10.398 -0.8211  1.2705  0.9007
   69SLPC    HY 5862   4.870   4.152  10.455 -2.1811 -1.9026 -1.6170
   69SLPC   O31 5863   4.849   4.322  10.323  0.0895  0.2815 -0.8382
   69SLPC   C31 5864   4.872   4.241  10.213 -0.3965  0.8955  0.1532
   69SLPC   O32 5865   4.881   4.124  10.216 -0.2754  0.3098 -0.1884
   69SLPC   C32 5866   4.891   4.321  10.092  0.1221 -0.3099  0.0101
   69SLPC   H2X 5867   4.955   4.410  10.110 -0.3439 -0.3846  2.3394
   69SLPC   H2Y 5868   4.790   4.362  10.071 -0.2513 -1.1070  0.2086
   69SLPC   C23 5869   4.597   4.566  10.256 -0.4650 -0.5394  0.3191
   69SLPC   H3R 5870   4.635   4.466  10.225  0.3027  0.2153 -1.3217
   69SLPC   H3S 5871   4.661   4.635  10.198 -0.1339 -1.8292 -0.9130
   69SLPC   C24 5872   4.453   4.578  10.209  0.8144 -0.2895  0.2909
   69SLPC   H4R 5873   4.408   4.679  10.224  1.6968  0.1064  0.3466
   69SLPC   H4S 5874   4.393   4.510  10.274  0.1847  1.3023  1.4363
   69SLPC   C25 5875   4.443   4.546  10.060  0.7374  0.1559 -0.0577
   69SLPC   H5R 5876   4.344   4.567  10.015  0.4527  0.3001  0.6201
   69SLPC   H5S 5877   4.451   4.435  10.063  1.2531  0.1981  0.3873
   69SLPC   C26 5878   4.551   4.599   9.962 -0.6438 -0.0799 -0.0011
   69SLPC   H6R 5879   4.644   4.545   9.991 -1.0728 -1.3410 -0.9116
   69SLPC   H6S 5880   4.577   4.707   9.973  0.8509 -0.3948 -0.1689
   69SLPC   C27 5881   4.513   4.562   9.820 -0.6078 -0.1535 -0.2712
   69SLPC   H7R 5882   4.440   4.636   9.780  0.6295  0.3898 -1.6220
   69SLPC   H7S 5883   4.453   4.469   9.818 -0.5837 -0.2131  0.7949
   69SLPC   C28 5884   4.630   4.560   9.715 -0.1763 -0.6925  0.0426
   69SLPC   H8R 5885   4.707   4.488   9.752  0.8837  0.7638  0.7766
   69SLPC   H8S 5886   4.677   4.660   9.711 -0.4664 -0.5142  0.8868
   69SLPC   C29 5887   4.558   4.526   9.583 -0.5642 -0.2922  0.9287
   69SLPC   H9R 5888   4.486   4.443   9.580  1.9235 -2.5595 -1.6346
   69SLPC  C210 5889   4.589   4.582   9.461  0.1362  0.0953 -0.2931
   69SLPC  H10R 5890   4.535   4.545   9.373  1.4021  1.9002 -1.9033
   69SLPC  C211 5891   4.702   4.688   9.433 -0.3205  0.5244 -0.0185
   69SLPC  H11R 5892   4.725   4.680   9.325 -0.8326  1.9502 -0.2631
   69SLPC  H11S 5893   4.794   4.659   9.487 -2.2611  0.0051  3.2979
   69SLPC  C212 5894   4.651   4.825   9.458  0.3825  1.0613 -0.0190
   69SLPC  H12R 5895   4.646   4.853   9.565 -0.1516 -1.3608  0.6600
   69SLPC  C213 5896   4.617   4.906   9.364  0.8082  0.1672  0.2363
   69SLPC  H13R 5897   4.585   5.006   9.400  1.4940 -0.0141  1.4263
   69SLPC  C214 5898   4.624   4.878   9.217  0.1577  0.7490  0.4036
   69SLPC  H14R 5899   4.540   4.811   9.187  0.2594  1.8600 -2.7118
   69SLPC  H14S 5900   4.718   4.825   9.192 -0.1890  0.4843 -0.3663
   69SLPC  C215 5901   4.628   5.007   9.132 -0.8519  0.2420 -0.9276
   69SLPC  H15R 5902   4.714   5.070   9.163  0.3842 -1.1595 -1.3844
   69SLPC  H15S 5903   4.534   5.065   9.141 -1.3635 -0.7544  0.4029
   69SLPC  C216 5904   4.664   4.987   8.987 -0.4906 -0.3911 -0.2787
   69SLPC  H16R 5905   4.587   4.923   8.939 -0.1589 -1.6880  0.8514
   69SLPC  H16S 5906   4.758   4.932   8.966  0.5079  1.5305 -1.1344
   69SLPC  C217 5907   4.681   5.113   8.903 -0.7828 -0.4669 -0.1512
   69SLPC  H17R 5908   4.780   5.156   8.929 -0.8876  0.7467 -1.6209
   69SLPC  H17S 5909   4.601   5.185   8.932 -0.5557 -0.5434  0.7133
   69SLPC  C218 5910   4.684   5.090   8.754 -0.0100 -0.7048 -0.7330
   69SLPC  H18R 5911   4.755   5.015   8.714  1.8885  0.1074  0.9645
   69SLPC  H18S 5912   4.716   5.187   8.710 -2.9672  2.3071  3.0373
   69SLPC  H18T 5913   4.582   5.058   8.722 -0.7291  1.1630 -0.4307
   69SLPC   C33 5914   4.940   4.231   9.974 -0.0962 -0.4232  0.2691
   69SLPC   H3X 5915   4.866   4.148   9.970 -0.2767 -0.3330  1.3317
   69SLPC   H3Y 5916   5.043   4.193   9.988  0.5905 -0.0748 -3.1695
   69SLPC   C34 5917   4.937   4.301   9.838  0.1709  0.4729 -0.0332
   69SLPC   H4X 5918   5.000   4.393   9.847  2.8365 -0.7654 -3.6976
   69SLPC   H4Y 5919   4.833   4.322   9.805 -0.6172 -2.4706  0.3485
   69SLPC   C35 5920   4.998   4.212   9.720 -0.1983 -0.0063 -0.0373
   69SLPC   H5X 5921   4.947   4.114   9.731 -0.7041  0.4480  2.4753
   69SLPC   H5Y 5922   5.105   4.192   9.741 -0.5309 -2.2132 -0.2299
   69SLPC   C36 5923   4.956   4.278   9.586  0.3407  0.3410 -0.4432
   69SLPC   H6X 5924   5.030   4.243   9.510  0.7041 -1.0636  0.5180
   69SLPC   H6Y 5925   4.961   4.388   9.595  0.7704  0.2761  0.2127
   69SLPC   C37 5926   4.817   4.230   9.550 -0.1972  0.2104  0.2555
   69SLPC   H7X 5927   4.746   4.265   9.628  0.5042  2.4997 -0.0784
   69SLPC   H7Y 5928   4.827   4.119   9.551  0.4483  0.2667  0.1967
   69SLPC   C38 5929   4.770   4.277   9.413  0.3806 -0.0930 -0.3067
   69SLPC   H8X 5930   4.738   4.383   9.404 -0.3863 -0.1638  1.2793
   69SLPC   H8Y 5931   4.674   4.220   9.409  0.6084 -0.5596  0.6766
   69SLPC   C39 5932   4.864   4.238   9.305 -0.7193  0.1929 -0.3838
   69SLPC   H9X 5933   4.945   4.168   9.334 -0.7002 -0.5139 -2.0289
   69SLPC   H9Y 5934   4.928   4.326   9.282  0.0163 -0.0505  0.6667
   69SLPC  C310 5935   4.792   4.196   9.180 -0.4349 -0.4896 -0.2400
   69SLPC  H10X 5936   4.753   4.094   9.194  0.1026 -0.2876  3.7323
   69SLPC  H10Y 5937   4.867   4.199   9.097 -0.8058  0.2345 -0.5609
   69SLPC  C311 5938   4.677   4.288   9.139  0.4534 -0.2557 -0.5007
   69SLPC  H11X 5939   4.598   4.287   9.217  0.4682  2.2455 -0.3765
   69SLPC  H11Y 5940   4.623   4.239   9.055 -1.8919 -0.8230  1.2259
   69SLPC  C312 5941   4.716   4.436   9.114  0.3481  0.2688  1.0134
   69SLPC  H12X 5942   4.802   4.464   9.177  1.0400  1.6331 -0.4539
   69SLPC  H12Y 5943   4.626   4.493   9.146 -1.3708 -1.3495 -0.6436
   69SLPC  C313 5944   4.750   4.463   8.967 -0.1323  0.0303 -0.3969
   69SLPC  H13X 5945   4.824   4.392   8.923 -0.4984 -0.8200  0.3409
   69SLPC  H13Y 5946   4.798   4.563   8.973 -0.4813  0.1098  3.0675
   69SLPC  C314 5947   4.627   4.469   8.872  0.3111 -0.3699  0.2226
   69SLPC  H14X 5948   4.561   4.381   8.891 -3.6212  2.6725  2.0374
   69SLPC  H14Y 5949   4.655   4.461   8.765  0.1485  1.6842 -0.0090
   69SLPC  C315 5950   4.544   4.596   8.886  0.2579 -0.2751 -0.5735
   69SLPC  H15X 5951   4.601   4.692   8.885 -2.1185  1.2813  1.9915
   69SLPC  H15Y 5952   4.498   4.600   8.987 -1.6476 -0.5767 -1.3923
   69SLPC  C316 5953   4.433   4.602   8.780  0.7588 -0.0439 -0.1121
   69SLPC  H16X 5954   4.377   4.507   8.788  0.4189  0.0844 -0.8692
   69SLPC  H16Y 5955   4.487   4.614   8.684  0.4611  0.7776 -0.1853
   69SLPC  C317 5956   4.332   4.718   8.805 -0.3017 -0.8568 -0.5495
   69SLPC  H17X 5957   4.392   4.808   8.833 -1.8012 -0.3975  1.4324
   69SLPC  H17Y 5958   4.273   4.697   8.897  0.4970 -0.0905  0.1645
   69SLPC  C318 5959   4.228   4.747   8.693 -1.1172 -0.1759  0.1800
   69SLPC  H18X 5960   4.178   4.841   8.723 -1.5938  0.0699 -1.3439
   69SLPC  H18Y 5961   4.150   4.668   8.687 -0.4540 -0.7495 -1.5286
   69SLPC  H18Z 5962   4.277   4.762   8.594 -4.5287 -0.1280 -1.6237
   70SLPC     N 5963   6.547   2.342  10.842 -0.0885 -0.2401 -0.1058
   70SLPC   C13 5964   6.482   2.250  10.935 -0.3191 -0.1261 -0.2126
   70SLPC  H13A 5965   6.376   2.240  10.914 -0.5524 -2.6188  1.7270
   70SLPC  H13B 5966   6.523   2.151  10.931  2.5595  0.8967  1.3907
   70SLPC  H13C 5967   6.495   2.292  11.034  1.9092 -0.5251 -0.2864
   70SLPC   C14 5968   6.676   2.376  10.898 -0.4573 -0.6692 -0.6145
   70SLPC  H14A 5969   6.719   2.459  10.844  0.2272 -0.2014  0.6097
   70SLPC  H14B 5970   6.668   2.408  11.001 -0.2198 -0.2365 -0.7289
   70SLPC  H14C 5971   6.732   2.285  10.889 -0.8358 -1.0571  0.6533
   70SLPC   C15 5972   6.469   2.470  10.823  0.3293 -0.5960 -0.0155
   70SLPC  H15A 5973   6.521   2.535  10.755 -0.0229 -1.0551 -0.7330
   70SLPC  H15B 5974   6.368   2.460  10.787  0.1183  1.4574 -0.0897
   70SLPC  H15C 5975   6.455   2.514  10.921 -1.6670  0.6069 -0.7859
   70SLPC   C12 5976   6.563   2.273  10.705 -0.3706  0.5907 -1.2864
   70SLPC  H12A 5977   6.626   2.186  10.716  1.0006  1.6894 -0.0902
   70SLPC  H12B 5978   6.621   2.346  10.651  1.7878  0.4807  0.7149
   70SLPC   C11 5979   6.427   2.244  10.644  0.4749  0.0838 -0.5338
   70SLPC  H11A 5980   6.446   2.218  10.538  2.8553  0.8252 -0.3452
   70SLPC  H11B 5981   6.363   2.335  10.655 -1.8098 -1.4786 -0.1802
   70SLPC     P 5982   6.236   2.069  10.662 -0.1360 -0.0393  0.1159
   70SLPC   O13 5983   6.211   1.947  10.735  0.3250  0.3652 -0.0153
   70SLPC   O14 5984   6.137   2.179  10.678  0.3541  0.3014 -0.1167
   70SLPC   O12 5985   6.376   2.131  10.701  0.7886 -0.5369  0.2180
   70SLPC   O11 5986   6.258   2.035  10.511 -0.0384 -0.1250 -0.1009
   70SLPC    C1 5987   6.246   1.912  10.446 -1.4407 -0.4275 -0.1443
   70SLPC    HA 5988   6.344   1.864  10.422 -1.2150 -0.0109 -0.0713
   70SLPC    HB 5989   6.193   1.831  10.500  0.5352 -0.7934  1.3486
   70SLPC    C2 5990   6.171   1.938  10.312  0.1300  0.4332 -0.4176
   70SLPC    HS 5991   6.165   1.844  10.254 -0.0356  0.7554 -0.9244
   70SLPC   O21 5992   6.228   2.048  10.236 -0.0532  0.3353  0.4852
   70SLPC   C21 5993   6.348   2.033  10.191  0.8090  0.5876 -0.2893
   70SLPC   O22 5994   6.423   1.937  10.188 -0.1841  0.6136 -0.3648
   70SLPC   C22 5995   6.389   2.170  10.134 -0.0180  0.1931  0.7023
   70SLPC   H2R 5996   6.427   2.232  10.218  1.7237  1.0048 -0.6097
   70SLPC   H2S 5997   6.467   2.146  10.059 -1.3319 -2.8461  0.1741
   70SLPC    C3 5998   6.031   1.986  10.334  0.4704  0.6535  1.0684
   70SLPC    HX 5999   6.038   2.092  10.367  0.4534  1.1295 -0.3721
   70SLPC    HY 6000   5.983   1.926  10.414 -0.0719 -0.3974 -0.0071
   70SLPC   O31 6001   5.957   1.986  10.209 -0.3863  0.2277  0.0548
   70SLPC   C31 6002   5.857   2.078  10.197 -0.3289 -0.6900 -0.0716
   70SLPC   O32 6003   5.831   2.165  10.281 -0.3427  0.0253  0.7272
   70SLPC   C32 6004   5.797   2.059  10.054 -0.2019  0.2890 -0.3542
   70SLPC   H2X 6005   5.751   1.957  10.057 -0.3103  0.2272 -2.4049
   70SLPC   H2Y 6006   5.872   2.079   9.975 -3.9498  0.2697 -4.3161
   70SLPC   C23 6007   6.277   2.247  10.064 -0.1448  0.6261  0.6948
   70SLPC   H3R 6008   6.321   2.348  10.046  1.3085  0.0992  1.1896
   70SLPC   H3S 6009   6.182   2.259  10.121 -1.7445  2.3743 -2.1116
   70SLPC   C24 6010   6.238   2.165   9.937  0.1691 -0.2820 -0.4162
   70SLPC   H4R 6011   6.164   2.088   9.969 -0.2758  0.3096  0.0133
   70SLPC   H4S 6012   6.330   2.120   9.896  0.4940 -0.5723  0.6012
   70SLPC   C25 6013   6.178   2.252   9.825 -0.3276  0.0430  0.2165
   70SLPC   H5R 6014   6.246   2.339   9.813  0.7287 -1.0693 -2.8617
   70SLPC   H5S 6015   6.088   2.303   9.868  0.3138  0.0284  1.6496
   70SLPC   C26 6016   6.129   2.192   9.686  0.4073 -0.4624  0.3394
   70SLPC   H6R 6017   6.046   2.258   9.651  0.6578 -0.1551  0.3191
   70SLPC   H6S 6018   6.095   2.087   9.692  3.5412 -1.5305  1.2461
   70SLPC   C27 6019   6.255   2.210   9.590  0.3133  0.0103 -0.4280
   70SLPC   H7R 6020   6.322   2.123   9.600 -0.5706 -0.6382  0.0410
   70SLPC   H7S 6021   6.303   2.305   9.622  2.0070 -0.3697 -1.7001
   70SLPC   C28 6022   6.224   2.207   9.442 -0.1977 -0.2258 -0.4911
   70SLPC   H8R 6023   6.155   2.290   9.417 -1.6063 -1.6213 -1.4349
   70SLPC   H8S 6024   6.159   2.118   9.425 -1.2704  0.4261  0.0648
   70SLPC   C29 6025   6.348   2.213   9.350  0.6873  0.2551 -0.4124
   70SLPC   H9R 6026   6.439   2.167   9.390 -0.0759  1.4102  3.0483
   70SLPC  C210 6027   6.350   2.272   9.229  0.5606  0.4487 -0.4703
   70SLPC  H10R 6028   6.443   2.256   9.173  0.8632 -1.8665  0.5695
   70SLPC  C211 6029   6.223   2.325   9.165 -0.3523  0.6576  0.1946
   70SLPC  H11R 6030   6.158   2.372   9.242 -1.6690  0.7624 -0.9412
   70SLPC  H11S 6031   6.160   2.239   9.135  0.8627  0.0026 -0.5447
   70SLPC  C212 6032   6.246   2.403   9.037  0.3225 -0.8021 -0.1901
   70SLPC  H12R 6033   6.240   2.348   8.942  0.3679 -1.0560 -0.0447
   70SLPC  C213 6034   6.276   2.537   9.027  0.2846 -0.4482  0.2194
   70SLPC  H13R 6035   6.290   2.578   8.926 -1.5195  0.0065  0.1250
   70SLPC  C214 6036   6.286   2.630   9.146 -0.6340 -0.1413 -0.0215
   70SLPC  H14R 6037   6.269   2.578   9.243 -0.4788 -0.0111  0.0757
   70SLPC  H14S 6038   6.208   2.708   9.138 -0.2876  0.1130 -0.9352
   70SLPC  C215 6039   6.421   2.699   9.127  0.5419  0.3788 -0.2779
   70SLPC  H15R 6040   6.497   2.618   9.131  1.1997  0.9553 -0.7209
   70SLPC  H15S 6041   6.436   2.772   9.210 -1.0830  1.1597 -0.6269
   70SLPC  C216 6042   6.443   2.778   9.004  0.5419  0.5357  0.3936
   70SLPC  H16R 6043   6.353   2.830   8.965  0.1410  1.4515  2.4394
   70SLPC  H16S 6044   6.477   2.712   8.921 -0.0109 -0.1744  0.7231
   70SLPC  C217 6045   6.556   2.876   9.026 -0.4480 -0.0569  0.3448
   70SLPC  H17R 6046   6.651   2.823   9.047  1.0001  2.1392 -0.2681
   70SLPC  H17S 6047   6.539   2.938   9.116 -2.6448 -1.2931  0.8388
   70SLPC  C218 6048   6.587   2.966   8.901  0.0724 -0.8200  0.4734
   70SLPC  H18R 6049   6.664   3.042   8.927 -1.2167 -0.4415  3.5962
   70SLPC  H18S 6050   6.500   3.026   8.867  0.3865 -0.5329  0.1618
   70SLPC  H18T 6051   6.620   2.903   8.815  0.5850  0.1944 -0.0971
   70SLPC   C33 6052   5.672   2.144  10.029  0.1262 -0.1770 -0.2443
   70SLPC   H3X 6053   5.702   2.251  10.035 -0.3119 -0.0954  0.7178
   70SLPC   H3Y 6054   5.592   2.113  10.100  0.3911 -0.9580 -0.2798
   70SLPC   C34 6055   5.604   2.095   9.898  0.8185 -0.3791 -0.0741
   70SLPC   H4X 6056   5.502   2.135   9.884  2.1677  2.7803 -1.8539
   70SLPC   H4Y 6057   5.579   1.987   9.906  1.5391 -0.5345  0.1445
   70SLPC   C35 6058   5.683   2.124   9.767 -0.4325 -0.6223 -0.1779
   70SLPC   H5X 6059   5.788   2.089   9.769 -0.0133  0.3641 -2.2142
   70SLPC   H5Y 6060   5.698   2.233   9.756  0.4468 -0.8252 -1.1006
   70SLPC   C36 6061   5.599   2.067   9.654 -1.0970  0.4489  0.7426
   70SLPC   H6X 6062   5.491   2.059   9.682 -0.7075 -0.1341  2.2092
   70SLPC   H6Y 6063   5.636   1.967   9.625  0.1086  1.0849  0.0083
   70SLPC   C37 6064   5.621   2.155   9.535  0.3736 -0.1281  0.1619
   70SLPC   H7X 6065   5.729   2.141   9.512  0.2019 -0.7676 -0.2900
   70SLPC   H7Y 6066   5.597   2.261   9.558 -0.7784 -0.3620  0.1105
   70SLPC   C38 6067   5.531   2.118   9.413 -0.3957  0.2113  0.1302
   70SLPC   H8X 6068   5.429   2.152   9.438 -0.3065  2.2702 -1.9495
   70SLPC   H8Y 6069   5.529   2.011   9.382  0.6946  0.9589 -2.8509
   70SLPC   C39 6070   5.582   2.183   9.281  0.0135 -0.7980  0.0951
   70SLPC   H9X 6071   5.660   2.118   9.236 -0.9535 -1.6920 -0.3528
   70SLPC   H9Y 6072   5.635   2.276   9.309 -0.5220 -0.3615 -0.3252
   70SLPC  C310 6073   5.464   2.201   9.181  0.3772  0.0730 -0.1629
   70SLPC  H10X 6074   5.390   2.260   9.239  1.6445  0.9081  0.6456
   70SLPC  H10Y 6075   5.429   2.098   9.157  2.2720 -0.2695 -1.7222
   70SLPC  C311 6076   5.482   2.275   9.053 -0.2159  0.7321  0.0984
   70SLPC  H11X 6077   5.517   2.379   9.067  2.4898  0.0141 -0.8174
   70SLPC  H11Y 6078   5.385   2.262   9.000  0.3916 -0.4205 -0.7837
   70SLPC  C312 6079   5.584   2.208   8.957 -0.5230 -0.3151  0.8541
   70SLPC  H12X 6080   5.569   2.098   8.948 -1.7422 -0.1514  0.7135
   70SLPC  H12Y 6081   5.691   2.221   8.983 -0.5362 -2.0763  1.9462
   70SLPC  C313 6082   5.570   2.255   8.811  0.5718  0.1772 -0.5803
   70SLPC  H13X 6083   5.588   2.364   8.805 -0.4969  0.3481 -0.8339
   70SLPC  H13Y 6084   5.465   2.236   8.778  0.1219  0.2355  0.7595
   70SLPC  C314 6085   5.662   2.184   8.710 -0.0121  0.2948 -0.8437
   70SLPC  H14X 6086   5.654   2.076   8.736 -1.4587  0.8553  1.3033
   70SLPC  H14Y 6087   5.769   2.211   8.717 -0.2292  0.7813  0.8877
   70SLPC  C315 6088   5.613   2.209   8.565 -0.2836  0.0426  0.4575
   70SLPC  H15X 6089   5.615   2.313   8.526  0.7588 -0.6254 -1.4188
   70SLPC  H15Y 6090   5.506   2.183   8.552  0.2397 -1.8373 -0.4822
   70SLPC  C316 6091   5.687   2.130   8.455 -0.2722 -0.1023  0.5219
   70SLPC  H16X 6092   5.712   2.027   8.491  1.1854 -0.3748 -1.1280
   70SLPC  H16Y 6093   5.789   2.171   8.440  0.6059 -2.6482 -1.2086
   70SLPC  C317 6094   5.594   2.095   8.342 -0.4452  0.2187 -0.1145
   70SLPC  H17X 6095   5.558   2.187   8.290 -0.6046 -0.2821 -0.9057
   70SLPC  H17Y 6096   5.511   2.049   8.400 -0.2630  3.1806  2.8643
   70SLPC  C318 6097   5.653   1.998   8.250 -0.3530 -0.1536  0.2583
   70SLPC  H18X 6098   5.574   1.950   8.188 -0.2744  1.5450 -1.2247
   70SLPC  H18Y 6099   5.694   1.915   8.311  0.2225 -0.0279  0.0402
   70SLPC  H18Z 6100   5.735   2.053   8.200  0.3854 -0.5961  0.9606
   71SLPC     N 6101   5.881   1.252  10.634  0.7130 -0.3525 -1.1914
   71SLPC   C13 6102   5.974   1.147  10.686 -0.0157 -0.3118  0.9433
   71SLPC  H13A 6103   5.987   1.070  10.612  1.3546 -0.6091  1.4713
   71SLPC  H13B 6104   6.073   1.187  10.702 -0.7332  1.9279  0.2386
   71SLPC  H13C 6105   5.937   1.097  10.774 -1.9548 -2.9181 -1.1857
   71SLPC   C14 6106   5.901   1.260  10.482 -0.3381 -0.3325  0.3159
   71SLPC  H14A 6107   5.909   1.162  10.438 -0.7720  0.5792 -1.9422
   71SLPC  H14B 6108   5.828   1.325  10.436 -0.5628  1.1527  2.5685
   71SLPC  H14C 6109   6.000   1.294  10.458  0.0401 -2.3888 -1.2443
   71SLPC   C15 6110   5.919   1.383  10.704 -0.1118 -0.5398  0.5458
   71SLPC  H15A 6111   5.900   1.385  10.810  0.3332  0.6374  0.6287
   71SLPC  H15B 6112   6.024   1.408  10.695 -0.4333  0.5161 -0.6158
   71SLPC  H15C 6113   5.857   1.469  10.679  0.2535  0.0065  1.4477
   71SLPC   C12 6114   5.738   1.221  10.671  0.6169  0.5625 -0.1012
   71SLPC  H12A 6115   5.730   1.212  10.778  1.0958 -0.2361 -0.1265
   71SLPC  H12B 6116   5.708   1.123  10.637  0.2370 -0.0544  1.8882
   71SLPC   C11 6117   5.624   1.317  10.645 -0.9956 -0.2709 -0.5922
   71SLPC  H11A 6118   5.601   1.324  10.537  1.4804 -0.6134 -1.2038
   71SLPC  H11B 6119   5.648   1.425  10.662 -0.8971  0.0958 -2.7090
   71SLPC     P 6120   5.407   1.172  10.674 -0.5406  0.4739 -0.0845
   71SLPC   O13 6121   5.483   1.049  10.643 -0.1583 -0.2132  0.5286
   71SLPC   O14 6122   5.302   1.167  10.779 -0.4907  0.1383 -0.2567
   71SLPC   O12 6123   5.511   1.281  10.733 -0.3177  0.5690 -0.5962
   71SLPC   O11 6124   5.352   1.234  10.541  0.3222  0.3634 -0.6599
   71SLPC    C1 6125   5.210   1.269  10.526 -0.3349  1.2446 -0.5529
   71SLPC    HA 6126   5.159   1.263  10.624  1.2852  0.3880  0.2762
   71SLPC    HB 6127   5.193   1.370  10.482  2.4620  2.1626  0.2978
   71SLPC    C2 6128   5.151   1.159  10.439 -0.6019 -0.6761  0.1270
   71SLPC    HS 6129   5.173   1.061  10.487 -0.9323 -1.4397 -1.2408
   71SLPC   O21 6130   5.192   1.176  10.297  0.6733  0.0238 -0.5814
   71SLPC   C21 6131   5.239   1.058  10.248  0.4316 -0.0190  0.4633
   71SLPC   O22 6132   5.256   0.959  10.313 -0.3472 -0.2767  0.6090
   71SLPC   C22 6133   5.285   1.088  10.104 -0.5577  0.3829  0.2498
   71SLPC   H2R 6134   5.211   1.145  10.045 -0.8828 -1.4351 -1.1956
   71SLPC   H2S 6135   5.361   1.163  10.132 -0.9611  1.2275 -0.8635
   71SLPC    C3 6136   4.992   1.162  10.445  0.2672  0.1382  0.8260
   71SLPC    HX 6137   4.969   1.263  10.405 -0.3114  0.1746  1.2511
   71SLPC    HY 6138   4.958   1.156  10.551 -1.5740 -0.0546  0.2420
   71SLPC   O31 6139   4.935   1.061  10.358 -0.7384 -0.0771 -0.2296
   71SLPC   C31 6140   4.814   1.083  10.320  0.3582  0.0198 -0.5867
   71SLPC   O32 6141   4.741   1.176  10.353 -0.2391 -0.4243 -0.3909
   71SLPC   C32 6142   4.763   0.967  10.232  0.5905  0.0584  0.4630
   71SLPC   H2X 6143   4.665   0.936  10.274 -0.0955  2.5221  0.8566
   71SLPC   H2Y 6144   4.838   0.884  10.228 -0.8075 -1.2882  1.2236
   71SLPC   C23 6145   5.355   0.967  10.044 -0.3541 -0.0649  1.1908
   71SLPC   H3R 6146   5.278   0.899  10.001  1.5397 -0.9978 -0.9191
   71SLPC   H3S 6147   5.403   0.901  10.120 -1.2312 -2.9763 -0.5824
   71SLPC   C24 6148   5.466   1.004   9.946  0.0453  0.5492  0.0282
   71SLPC   H4R 6149   5.545   1.043  10.014  0.9364  0.8856 -1.1582
   71SLPC   H4S 6150   5.440   1.086   9.875 -0.7157  0.9144  0.7101
   71SLPC   C25 6151   5.527   0.881   9.881 -0.1863 -0.5917 -0.8992
   71SLPC   H5R 6152   5.545   0.802   9.957 -0.1446 -0.5025 -0.8155
   71SLPC   H5S 6153   5.625   0.898   9.832  0.2205 -0.3326 -0.0302
   71SLPC   C26 6154   5.437   0.825   9.767  0.0525  0.9698  0.2872
   71SLPC   H6R 6155   5.342   0.802   9.821 -0.0304 -0.2877 -0.3541
   71SLPC   H6S 6156   5.474   0.729   9.726 -2.3557  0.2811 -0.4295
   71SLPC   C27 6157   5.417   0.908   9.641  0.6663 -0.4153 -0.6763
   71SLPC   H7R 6158   5.359   1.000   9.663  1.0972  0.7154 -3.7757
   71SLPC   H7S 6159   5.347   0.853   9.575  1.7019 -0.8992 -1.3908
   71SLPC   C28 6160   5.539   0.933   9.557  0.3033  0.0122  0.3982
   71SLPC   H8R 6161   5.568   0.834   9.516 -0.3247  0.3560 -0.9403
   71SLPC   H8S 6162   5.612   0.985   9.622  0.0935  1.3023 -0.3694
   71SLPC   C29 6163   5.500   1.020   9.437  0.2077 -0.5831 -0.5124
   71SLPC   H9R 6164   5.452   1.114   9.470  1.4786 -0.0246 -0.1442
   71SLPC  C210 6165   5.522   0.994   9.310  0.2328 -0.4381 -0.0320
   71SLPC  H10R 6166   5.487   1.059   9.229 -0.7992 -3.2474 -2.0038
   71SLPC  C211 6167   5.596   0.871   9.254  0.0084  0.9333  0.3268
   71SLPC  H11R 6168   5.586   0.865   9.144 -0.2453 -0.5421  0.4062
   71SLPC  H11S 6169   5.544   0.776   9.278 -0.7281  0.7259 -1.8462
   71SLPC  C212 6170   5.746   0.860   9.285  0.0749  0.1538 -0.1860
   71SLPC  H12R 6171   5.797   0.957   9.286 -0.8225  0.7261  3.2552
   71SLPC  C213 6172   5.818   0.744   9.302  0.5968  0.2484 -0.3435
   71SLPC  H13R 6173   5.923   0.767   9.321  0.6694  0.1519 -0.6220
   71SLPC  C214 6174   5.769   0.596   9.301  0.4435  0.0846  0.0888
   71SLPC  H14R 6175   5.844   0.539   9.242  1.1222  1.4231 -0.3914
   71SLPC  H14S 6176   5.673   0.591   9.246 -0.5290 -1.4727  1.8287
   71SLPC  C215 6177   5.751   0.553   9.446 -0.7723 -0.1156 -0.0460
   71SLPC  H15R 6178   5.710   0.450   9.439  2.6396 -1.4970 -3.1430
   71SLPC  H15S 6179   5.685   0.618   9.507  1.4974  1.9590  0.3348
   71SLPC  C216 6180   5.880   0.544   9.520 -0.3306  0.1961 -0.0118
   71SLPC  H16R 6181   5.925   0.645   9.529 -1.8271  0.9384 -0.4668
   71SLPC  H16S 6182   5.949   0.480   9.462 -1.1417 -0.2551 -0.4995
   71SLPC  C217 6183   5.868   0.483   9.654  0.4723 -0.5857  0.3368
   71SLPC  H17R 6184   5.959   0.490   9.716  0.2004 -1.0658  0.8062
   71SLPC  H17S 6185   5.845   0.374   9.643 -1.7644  0.0655 -2.7102
   71SLPC  C218 6186   5.752   0.542   9.734  0.0357 -0.1395 -0.4494
   71SLPC  H18R 6187   5.653   0.526   9.684  0.7591  1.1172 -2.4086
   71SLPC  H18S 6188   5.763   0.652   9.742 -1.0480 -0.0325 -0.2361
   71SLPC  H18T 6189   5.755   0.499   9.836  0.0354  0.7816 -0.0539
   71SLPC   C33 6190   4.746   1.010  10.085 -0.1154  0.6875  0.3589
   71SLPC   H3X 6191   4.664   1.084  10.079 -0.9878 -0.3520 -2.1824
   71SLPC   H3Y 6192   4.703   0.920  10.036  1.2038  0.7598 -0.9895
   71SLPC   C34 6193   4.875   1.056  10.013  0.1590 -0.3528 -0.2980
   71SLPC   H4X 6194   4.942   0.972   9.984 -1.6316 -1.2402 -2.2261
   71SLPC   H4Y 6195   4.932   1.130  10.073 -2.8590  1.6089  0.3867
   71SLPC   C35 6196   4.841   1.132   9.885  0.2129 -0.1609  0.2034
   71SLPC   H5X 6197   4.794   1.231   9.906 -1.9568 -1.3258  1.2341
   71SLPC   H5Y 6198   4.776   1.072   9.817  1.9088 -2.9148  0.8588
   71SLPC   C36 6199   4.974   1.148   9.808 -0.3135 -0.1725 -0.4853
   71SLPC   H6X 6200   5.022   1.048   9.798  1.4545  0.4973  0.8225
   71SLPC   H6Y 6201   5.049   1.202   9.870 -1.6771 -1.4552  2.4755
   71SLPC   C37 6202   4.975   1.220   9.672  0.1059  0.3274  0.1541
   71SLPC   H7X 6203   4.979   1.328   9.696 -0.4256  0.7713 -1.5784
   71SLPC   H7Y 6204   4.885   1.185   9.617 -0.4080 -1.0417  1.7765
   71SLPC   C38 6205   5.092   1.179   9.584 -0.6677 -0.5228  0.4442
   71SLPC   H8X 6206   5.112   1.070   9.591  1.4088 -0.2883 -1.0670
   71SLPC   H8Y 6207   5.183   1.228   9.624 -0.9797  2.1824 -1.8335
   71SLPC   C39 6208   5.072   1.224   9.437 -0.0687 -0.3326  0.2229
   71SLPC   H9X 6209   5.047   1.333   9.434 -1.0173 -0.5446 -0.1951
   71SLPC   H9Y 6210   4.983   1.174   9.392 -0.2243 -0.5061  0.7133
   71SLPC  C310 6211   5.196   1.216   9.349  0.4683  0.3891 -0.9371
   71SLPC  H10X 6212   5.230   1.110   9.357  0.5191  0.4403 -0.4206
   71SLPC  H10Y 6213   5.275   1.282   9.391 -0.9221  1.1356  0.5860
   71SLPC  C311 6214   5.165   1.252   9.207  0.6284  0.0361 -0.9320
   71SLPC  H11X 6215   5.115   1.350   9.196 -1.0163 -0.6572  0.0794
   71SLPC  H11Y 6216   5.078   1.188   9.185 -0.9466  2.1266 -1.0477
   71SLPC  C312 6217   5.272   1.237   9.106 -0.8104 -0.1646 -0.1659
   71SLPC  H12X 6218   5.372   1.224   9.153 -1.0693 -3.4858 -0.2667
   71SLPC  H12Y 6219   5.281   1.328   9.043  1.0831 -0.5946 -0.5751
   71SLPC  C313 6220   5.270   1.110   9.014  0.3879 -0.8479 -0.4870
   71SLPC  H13X 6221   5.169   1.089   8.973  1.5025 -1.4376 -3.1106
   71SLPC  H13Y 6222   5.277   1.020   9.079 -0.8801 -2.1109 -2.0445
   71SLPC  C314 6223   5.373   1.107   8.898  0.9965 -0.5648 -0.6825
   71SLPC  H14X 6224   5.384   1.205   8.846  1.2087 -0.3934 -0.3164
   71SLPC  H14Y 6225   5.345   1.024   8.830  1.0716 -0.5886 -0.6844
   71SLPC  C315 6226   5.513   1.067   8.942 -0.0860  0.7454 -1.2103
   71SLPC  H15X 6227   5.520   0.957   8.960 -0.2772  0.7218 -1.2792
   71SLPC  H15Y 6228   5.545   1.125   9.031  0.8394 -1.3606 -0.0929
   71SLPC  C316 6229   5.616   1.072   8.821  0.1886 -0.0683  0.0056
   71SLPC  H16X 6230   5.572   1.022   8.732 -1.6234  1.3624  0.0458
   71SLPC  H16Y 6231   5.717   1.029   8.843 -0.3463 -0.6073  1.5305
   71SLPC  C317 6232   5.643   1.220   8.783  0.0322  0.0831 -0.2623
   71SLPC  H17X 6233   5.689   1.273   8.869 -2.6150 -1.5403  2.3332
   71SLPC  H17Y 6234   5.544   1.268   8.765 -0.2006 -0.3482 -0.1414
   71SLPC  C318 6235   5.716   1.232   8.656  0.0735 -0.7104  0.2872
   71SLPC  H18X 6236   5.729   1.338   8.625 -0.1886 -0.5576  0.6953
   71SLPC  H18Y 6237   5.669   1.173   8.575 -2.4078 -0.4716  1.4521
   71SLPC  H18Z 6238   5.821   1.201   8.674  1.6111  3.7020  0.2371
   72SLPC     N 6239   5.682   0.079  10.442  0.7206  0.7912 -0.4757
   72SLPC   C13 6240   5.714   0.221  10.409  0.1574 -0.3216  0.1641
   72SLPC  H13A 6241   5.740   0.240  10.306 -1.5367 -0.6626 -0.3568
   72SLPC  H13B 6242   5.630   0.287  10.428  0.6819  0.4282 -0.0823
   72SLPC  H13C 6243   5.791   0.254  10.476 -1.0979 -0.9862  2.0197
   72SLPC   C14 6244   5.660   0.071  10.593  0.1846 -0.1142  0.1346
   72SLPC  H14A 6245   5.743   0.111  10.649 -0.5073  0.6792  0.6127
   72SLPC  H14B 6246   5.571   0.126  10.620  0.0272 -1.2983  2.2231
   72SLPC  H14C 6247   5.641  -0.032  10.618  3.6556 -0.5031  1.7555
   72SLPC   C15 6248   5.798  -0.008  10.393 -0.4188 -0.0168 -0.2447
   72SLPC  H15A 6249   5.762  -0.101  10.434  0.2246 -0.4577 -0.6804
   72SLPC  H15B 6250   5.802  -0.021  10.286 -0.8492  1.1068 -0.4156
   72SLPC  H15C 6251   5.894   0.010  10.439  0.8456 -1.1437 -2.3260
   72SLPC   C12 6252   5.555   0.038  10.374 -0.5017 -0.5803 -0.4471
   72SLPC  H12A 6253   5.562   0.041  10.267  1.1376 -0.7877 -0.3816
   72SLPC  H12B 6254   5.477   0.104  10.408  0.9297  1.1982 -0.5036
   72SLPC   C11 6255   5.494  -0.100  10.414  0.4586  0.4757  0.5987
   72SLPC  H11A 6256   5.571  -0.179  10.427 -0.5799 -0.5429  0.7860
   72SLPC  H11B 6257   5.425  -0.134  10.333  1.9539 -0.0757 -0.4901
   72SLPC     P 6258   5.301  -0.005  10.562 -0.2456 -0.0869 -0.3423
   72SLPC   O13 6259   5.210  -0.061  10.667 -0.2484  0.7584 -0.0983
   72SLPC   O14 6260   5.350   0.136  10.578  0.7836  0.0420  0.3156
   72SLPC   O12 6261   5.420  -0.094  10.535  0.9754 -0.2126  0.6893
   72SLPC   O11 6262   5.238  -0.022  10.418  0.8299  0.6080 -0.2232
   72SLPC    C1 6263   5.123  -0.112  10.395  0.2654 -0.6386 -0.6223
   72SLPC    HA 6264   5.118  -0.199  10.463 -0.0576  1.3637  2.1012
   72SLPC    HB 6265   5.037  -0.048  10.426  2.1888  1.2658  1.1200
   72SLPC    C2 6266   5.114  -0.148  10.237  0.0437 -0.1115  0.6641
   72SLPC    HS 6267   5.015  -0.191  10.211 -0.0083  0.4066 -0.0303
   72SLPC   O21 6268   5.226  -0.244  10.215  0.5683 -0.0214 -0.0808
   72SLPC   C21 6269   5.200  -0.363  10.259 -0.0050 -0.1930  0.3651
   72SLPC   O22 6270   5.096  -0.403  10.313 -0.0041  0.2966  0.0763
   72SLPC   C22 6271   5.311  -0.448  10.217 -0.2549  0.0484 -0.6709
   72SLPC   H2R 6272   5.399  -0.385  10.191  0.1156 -0.5356 -0.8611
   72SLPC   H2S 6273   5.356  -0.504  10.302  1.6104 -0.5803 -2.0041
   72SLPC    C3 6274   5.134  -0.029  10.138  0.3646 -0.4972  0.2118
   72SLPC    HX 6275   5.221   0.035  10.165 -1.5554  2.0805  0.6472
   72SLPC    HY 6276   5.055   0.043  10.166 -0.6885 -1.7756  0.6014
   72SLPC   O31 6277   5.125  -0.059  10.000 -0.0165  0.0589  0.4980
   72SLPC   C31 6278   5.236  -0.082   9.936  0.1820  0.6884  0.6225
   72SLPC   O32 6279   5.349  -0.078   9.980 -0.1068 -0.4944 -0.4884
   72SLPC   C32 6280   5.206  -0.117   9.790 -0.9985  0.1146 -0.0451
   72SLPC   H2X 6281   5.129  -0.044   9.755 -0.5358  1.4061  1.5019
   72SLPC   H2Y 6282   5.159  -0.217   9.789  0.3088 -0.5184 -0.4864
   72SLPC   C23 6283   5.276  -0.541  10.104 -0.0642  0.9638  1.1129
   72SLPC   H3R 6284   5.196  -0.612  10.133  0.0875  0.8071  1.1482
   72SLPC   H3S 6285   5.356  -0.608  10.067 -1.8260 -1.4353  1.4206
   72SLPC   C24 6286   5.217  -0.459   9.978  0.1919 -0.0567 -0.4795
   72SLPC   H4R 6287   5.303  -0.412   9.926  1.3855 -0.9339  0.6142
   72SLPC   H4S 6288   5.144  -0.377   9.997  0.8011  0.3864 -0.0101
   72SLPC   C25 6289   5.159  -0.558   9.881 -0.1473  0.0150  0.4902
   72SLPC   H5R 6290   5.056  -0.589   9.911 -1.1559 -0.1171 -2.7139
   72SLPC   H5S 6291   5.222  -0.648   9.871 -0.9998 -0.7257  1.5145
   72SLPC   C26 6292   5.157  -0.500   9.738  0.7756  0.2678  0.9378
   72SLPC   H6R 6293   5.262  -0.470   9.713  0.1070  1.8083 -0.1753
   72SLPC   H6S 6294   5.091  -0.411   9.734  0.7342  0.1917 -0.3703
   72SLPC   C27 6295   5.100  -0.601   9.635  0.1382 -0.9691 -0.5273
   72SLPC   H7R 6296   5.047  -0.533   9.564  2.9567  1.0811 -0.8663
   72SLPC   H7S 6297   5.027  -0.671   9.680 -1.2566 -0.6634 -2.2261
   72SLPC   C28 6298   5.210  -0.696   9.577 -0.3015  0.2382 -0.3855
   72SLPC   H8R 6299   5.150  -0.785   9.550 -3.2219  0.9546  2.8918
   72SLPC   H8S 6300   5.278  -0.728   9.658 -0.4342  0.8060 -0.0412
   72SLPC   C29 6301   5.290  -0.644   9.455  0.3976  0.1707 -0.5847
   72SLPC   H9R 6302   5.397  -0.626   9.469  0.5141  0.0551 -1.2891
   72SLPC  C210 6303   5.238  -0.640   9.334 -0.2541 -0.6244  0.4914
   72SLPC  H10R 6304   5.298  -0.603   9.250 -1.1771 -1.7848 -0.7226
   72SLPC  C211 6305   5.097  -0.674   9.298  0.2646  0.3660  0.9392
   72SLPC  H11R 6306   5.033  -0.584   9.295  1.6956  1.4044  0.6777
   72SLPC  H11S 6307   5.045  -0.745   9.366  3.8813 -2.3691  1.2068
   72SLPC  C212 6308   5.088  -0.738   9.156 -0.0584 -0.2626 -0.2118
   72SLPC  H12R 6309   5.074  -0.847   9.158 -0.9028 -0.1568  0.2031
   72SLPC  C213 6310   5.080  -0.676   9.036  0.0341 -1.3345  0.4686
   72SLPC  H13R 6311   5.079  -0.737   8.944 -0.7109 -1.7674  0.7497
   72SLPC  C214 6312   5.081  -0.520   9.028 -0.2121 -0.5586  0.2131
   72SLPC  H14R 6313   5.025  -0.478   9.115 -2.6812 -2.8211 -0.1241
   72SLPC  H14S 6314   5.021  -0.486   8.941  1.4835 -0.0000 -0.7825
   72SLPC  C215 6315   5.215  -0.447   8.995  0.0723 -0.2034 -0.4373
   72SLPC  H15R 6316   5.283  -0.462   9.081 -3.0510  0.4995  2.3872
   72SLPC  H15S 6317   5.204  -0.336   8.995 -0.7858 -0.2760 -1.1615
   72SLPC  C216 6318   5.287  -0.496   8.865  0.0057 -0.7519 -0.0322
   72SLPC  H16R 6319   5.284  -0.607   8.861  1.0495 -0.7621 -1.0868
   72SLPC  H16S 6320   5.386  -0.447   8.872 -1.2088  1.6434  1.5753
   72SLPC  C217 6321   5.219  -0.447   8.735 -0.1161 -0.4628 -0.3425
   72SLPC  H17R 6322   5.221  -0.336   8.735 -0.1641 -0.4510 -1.3832
   72SLPC  H17S 6323   5.112  -0.477   8.732 -0.3924  0.5519 -0.9273
   72SLPC  C218 6324   5.287  -0.501   8.605 -0.7038 -0.2580 -0.2676
   72SLPC  H18R 6325   5.394  -0.471   8.603 -1.3689  2.2832 -1.1845
   72SLPC  H18S 6326   5.244  -0.460   8.511 -3.1707 -2.2585 -0.1152
   72SLPC  H18T 6327   5.286  -0.612   8.619 -0.5682  0.1351  4.3216
   72SLPC   C33 6328   5.329  -0.122   9.691 -0.0057 -0.2676  0.3989
   72SLPC   H3X 6329   5.397  -0.206   9.716 -0.3376 -0.0756  2.0105
   72SLPC   H3Y 6330   5.387  -0.028   9.698 -0.5773 -0.0035  2.0277
   72SLPC   C34 6331   5.272  -0.146   9.548 -0.0087 -0.2571 -0.4142
   72SLPC   H4X 6332   5.211  -0.060   9.512 -0.5379 -0.4965 -0.0861
   72SLPC   H4Y 6333   5.200  -0.230   9.546 -0.7340  0.3670 -1.8947
   72SLPC   C35 6334   5.382  -0.170   9.451 -0.3194  0.9476  0.1131
   72SLPC   H5X 6335   5.409  -0.278   9.456 -2.6382  0.1867 -1.8474
   72SLPC   H5Y 6336   5.481  -0.124   9.470  0.2930 -1.1359  2.5103
   72SLPC   C36 6337   5.344  -0.138   9.305 -0.6400 -0.5944  0.4106
   72SLPC   H6X 6338   5.313  -0.032   9.306  0.2791 -0.3027  2.3965
   72SLPC   H6Y 6339   5.248  -0.189   9.282 -0.0947 -0.3649 -2.7945
   72SLPC   C37 6340   5.448  -0.171   9.190  0.6359 -0.1050  0.3025
   72SLPC   H7X 6341   5.425  -0.275   9.159  0.0315  0.0664  0.1618
   72SLPC   H7Y 6342   5.555  -0.153   9.216  1.0214  2.5372 -2.4689
   72SLPC   C38 6343   5.420  -0.097   9.062  0.8132 -0.2942  0.0844
   72SLPC   H8X 6344   5.475  -0.001   9.068  1.6243 -0.8385  2.3387
   72SLPC   H8Y 6345   5.310  -0.084   9.061  0.6431 -1.4846  0.9047
   72SLPC   C39 6346   5.455  -0.168   8.928 -0.7051  0.8467 -0.5876
   72SLPC   H9X 6347   5.374  -0.240   8.905  1.3632 -1.8206 -0.0373
   72SLPC   H9Y 6348   5.551  -0.222   8.942 -1.0643 -0.3768 -2.5588
   72SLPC  C310 6349   5.481  -0.077   8.809 -0.0338  0.1159  0.1170
   72SLPC  H10X 6350   5.490  -0.140   8.718  1.7071 -0.4880  0.6751
   72SLPC  H10Y 6351   5.583  -0.033   8.804  1.2892 -2.5086  1.9976
   72SLPC  C311 6352   5.372   0.024   8.784 -0.1629 -0.2567 -0.6582
   72SLPC  H11X 6353   5.365   0.091   8.873  0.9376  1.5225 -1.8602
   72SLPC  H11Y 6354   5.274  -0.028   8.774 -0.9396  1.0621 -0.1636
   72SLPC  C312 6355   5.406   0.102   8.656 -0.2172  0.1495  0.1421
   72SLPC  H12X 6356   5.430   0.026   8.579 -3.7528 -1.3525  0.3643
   72SLPC  H12Y 6357   5.484   0.180   8.674 -1.3960  1.1017  1.3385
   72SLPC  C313 6358   5.280   0.170   8.601 -0.5996 -0.4041 -0.4542
   72SLPC  H13X 6359   5.225   0.215   8.686 -2.2516 -4.2181  0.7204
   72SLPC  H13Y 6360   5.208   0.099   8.555  0.3365  0.2812 -3.2053
   72SLPC  C314 6361   5.324   0.276   8.497 -0.4397  0.5882  0.1519
   72SLPC  H14X 6362   5.375   0.231   8.410  1.1612  1.3019  0.6904
   72SLPC  H14Y 6363   5.393   0.340   8.557  0.1946  0.1261 -0.0789
   72SLPC  C315 6364   5.201   0.351   8.446 -0.4199  0.2731  0.1263
   72SLPC  H15X 6365   5.135   0.379   8.531  1.0254 -1.2308  1.8391
   72SLPC  H15Y 6366   5.138   0.300   8.370 -0.3525  1.2801 -0.6247
   72SLPC  C316 6367   5.248   0.488   8.376 -0.1766 -0.5022  0.2524
   72SLPC  H16X 6368   5.288   0.550   8.459 -0.2424  1.0557 -0.8518
   72SLPC  H16Y 6369   5.152   0.532   8.343 -0.0999 -0.4446  0.1055
   72SLPC  C317 6370   5.338   0.481   8.259  0.4487  0.2714  0.4830
   72SLPC  H17X 6371   5.440   0.459   8.295  0.8262 -1.1970 -1.3314
   72SLPC  H17Y 6372   5.348   0.572   8.196 -2.1385 -1.4603 -2.7277
   72SLPC  C318 6373   5.323   0.372   8.155  0.3091 -0.0177 -0.8330
   72SLPC  H18X 6374   5.295   0.275   8.200  3.9089 -1.6433 -1.7238
   72SLPC  H18Y 6375   5.415   0.362   8.093  0.7565 -0.2410 -0.1479
   72SLPC  H18Z 6376   5.241   0.397   8.085 -1.3583 -2.4637  0.1193
   73SLPC     N 6377   6.444   4.468  11.139  0.0948  0.1875  0.3889
   73SLPC   C13 6378   6.463   4.386  11.264  0.1330 -0.0017  0.1955
   73SLPC  H13A 6379   6.559   4.336  11.263  0.2831  0.2692  1.1100
   73SLPC  H13B 6380   6.449   4.437  11.358  2.0401 -1.0434  1.1124
   73SLPC  H13C 6381   6.386   4.311  11.255  0.1267  0.2064 -2.1603
   73SLPC   C14 6382   6.546   4.572  11.137 -0.5954  0.4141 -0.2137
   73SLPC  H14A 6383   6.562   4.602  11.034  0.1170  0.0604 -0.2174
   73SLPC  H14B 6384   6.517   4.656  11.198  0.5728 -0.2278  1.2689
   73SLPC  H14C 6385   6.641   4.547  11.181 -0.6692  1.6068  0.6545
   73SLPC   C15 6386   6.305   4.521  11.151 -0.2937 -0.2730  0.3286
   73SLPC  H15A 6387   6.278   4.562  11.056 -1.2589 -0.5233  0.4794
   73SLPC  H15B 6388   6.250   4.430  11.170  1.4143 -1.7907 -1.5291
   73SLPC  H15C 6389   6.296   4.590  11.234  0.1519 -1.3769  1.3376
   73SLPC   C12 6390   6.454   4.390  11.007 -1.2156  0.0432  0.0785
   73SLPC  H12A 6391   6.377   4.314  11.010  1.4999 -3.0308 -1.6094
   73SLPC  H12B 6392   6.546   4.334  10.995 -1.9956 -1.4145  0.5845
   73SLPC   C11 6393   6.445   4.467  10.869  0.0631  0.2618  0.2953
   73SLPC  H11A 6394   6.351   4.526  10.858 -0.1204 -0.4488 -2.8446
   73SLPC  H11B 6395   6.445   4.391  10.788 -1.1100  0.8075 -0.2410
   73SLPC     P 6396   6.687   4.498  10.793 -0.1784  0.4409 -0.1567
   73SLPC   O13 6397   6.788   4.599  10.810 -0.1318  0.0011 -0.1543
   73SLPC   O14 6398   6.713   4.373  10.862  0.5505  0.1180  0.3785
   73SLPC   O12 6399   6.552   4.557  10.846 -0.2246 -0.2187 -0.0931
   73SLPC   O11 6400   6.679   4.466  10.634  0.0145 -0.0964 -0.3272
   73SLPC    C1 6401   6.561   4.477  10.554  0.5243  0.3524  0.2054
   73SLPC    HA 6402   6.523   4.373  10.553  0.2558  0.4487 -1.4409
   73SLPC    HB 6403   6.478   4.529  10.606  0.2279  0.7747 -0.6766
   73SLPC    C2 6404   6.597   4.530  10.414 -0.1040  0.1340  0.6255
   73SLPC    HS 6405   6.508   4.510  10.351  0.5978 -0.8405 -0.0856
   73SLPC   O21 6406   6.711   4.472  10.355 -0.1245 -0.1585  0.2869
   73SLPC   C21 6407   6.697   4.349  10.307 -0.1978  0.2367 -0.0238
   73SLPC   O22 6408   6.601   4.278  10.324  0.1044 -0.5643  0.1814
   73SLPC   C22 6409   6.809   4.315  10.210  0.5968  0.5902 -0.6121
   73SLPC   H2R 6410   6.813   4.398  10.136 -0.3459  1.7225  0.5676
   73SLPC   H2S 6411   6.906   4.309  10.264 -0.2184  0.2329  0.8268
   73SLPC    C3 6412   6.623   4.689  10.425  0.0998  0.3830  0.5120
   73SLPC    HX 6413   6.719   4.705  10.479  1.1018  2.3227 -1.6770
   73SLPC    HY 6414   6.540   4.745  10.473 -0.7218  0.9665 -1.4940
   73SLPC   O31 6415   6.646   4.746  10.293  0.1356  0.0556  0.3650
   73SLPC   C31 6416   6.542   4.743  10.207 -0.5536  0.7262  0.2281
   73SLPC   O32 6417   6.426   4.719  10.233  0.1179 -0.4278  0.3695
   73SLPC   C32 6418   6.602   4.786  10.069 -0.8285  0.3598 -0.8175
   73SLPC   H2X 6419   6.672   4.701  10.056 -0.8826  0.1989 -0.1120
   73SLPC   H2Y 6420   6.661   4.880  10.071 -0.8243  0.3614  1.1310
   73SLPC   C23 6421   6.789   4.175  10.143 -0.3052 -0.2166  1.1647
   73SLPC   H3R 6422   6.682   4.164  10.116 -0.4421 -0.3356  1.7494
   73SLPC   H3S 6423   6.821   4.108  10.226  2.6820  1.8376  1.8344
   73SLPC   C24 6424   6.872   4.162  10.017 -1.0621  0.3567  0.6161
   73SLPC   H4R 6425   6.977   4.191  10.040 -0.4780 -1.3184  0.1926
   73SLPC   H4S 6426   6.833   4.236   9.943 -4.7776 -1.4937  0.4861
   73SLPC   C25 6427   6.859   4.019   9.972  0.0984 -0.0293  0.7856
   73SLPC   H5R 6428   6.750   4.004   9.961 -0.1975  2.4061  0.0087
   73SLPC   H5S 6429   6.901   3.953  10.052  0.9963 -1.4276 -0.7861
   73SLPC   C26 6430   6.935   3.992   9.841  1.0564  0.6866 -0.2599
   73SLPC   H6R 6431   6.908   4.068   9.763  1.9243 -1.3692 -2.7097
   73SLPC   H6S 6432   6.892   3.898   9.800 -1.4176  0.9887  1.4656
   73SLPC   C27 6433   7.089   3.989   9.851 -0.1366 -0.3481 -0.3634
   73SLPC   H7R 6434   7.117   3.911   9.925 -2.0245  0.3648  1.1807
   73SLPC   H7S 6435   7.126   4.092   9.866  1.5271 -0.7701 -1.2187
   73SLPC   C28 6436   7.144   3.960   9.709  0.4990  0.3603  0.6193
   73SLPC   H8R 6437   7.107   4.042   9.644 -2.1172 -0.1543  1.3462
   73SLPC   H8S 6438   7.104   3.866   9.663  0.0190  1.1907 -0.7158
   73SLPC   C29 6439   7.293   3.967   9.714  0.1385 -0.1093 -0.7764
   73SLPC   H9R 6440   7.336   3.881   9.768 -1.5826 -0.4975  0.0218
   73SLPC  C210 6441   7.378   4.058   9.672  0.0325  0.2018  0.5801
   73SLPC  H10R 6442   7.483   4.046   9.704  0.0704 -1.6851 -0.0788
   73SLPC  C211 6443   7.342   4.181   9.583  0.9224  0.2139 -0.8135
   73SLPC  H11R 6444   7.298   4.254   9.655 -2.0098 -2.0322 -0.1108
   73SLPC  H11S 6445   7.255   4.160   9.517 -1.2318  2.4596  1.1134
   73SLPC  C212 6446   7.458   4.237   9.504  0.0048 -0.0922 -0.0842
   73SLPC  H12R 6447   7.490   4.167   9.425  2.3045 -1.6955  2.1043
   73SLPC  C213 6448   7.523   4.350   9.519 -0.7098  0.0277  0.1771
   73SLPC  H13R 6449   7.605   4.389   9.457  1.2089 -0.8177  2.0855
   73SLPC  C214 6450   7.494   4.465   9.623 -0.2761  0.0189 -0.7127
   73SLPC  H14R 6451   7.388   4.453   9.657  0.6361  1.1374  3.0392
   73SLPC  H14S 6452   7.511   4.567   9.582  0.6550  0.6655  1.1718
   73SLPC  C215 6453   7.569   4.441   9.760 -0.1528  0.3926  0.1083
   73SLPC  H15R 6454   7.679   4.439   9.748  0.0343 -0.6736  1.6479
   73SLPC  H15S 6455   7.537   4.343   9.802 -2.3271  0.7719 -0.5366
   73SLPC  C216 6456   7.552   4.550   9.863 -0.4707 -0.2892 -0.4759
   73SLPC  H16R 6457   7.610   4.517   9.951 -2.3800  2.3232  1.9354
   73SLPC  H16S 6458   7.450   4.564   9.905 -0.0982 -2.1686  1.1926
   73SLPC  C217 6459   7.606   4.687   9.817 -0.7191  0.4042  0.3554
   73SLPC  H17R 6460   7.535   4.724   9.740 -0.3630 -0.0067 -0.1743
   73SLPC  H17S 6461   7.700   4.666   9.761 -1.4528 -0.8473 -0.4529
   73SLPC  C218 6462   7.627   4.786   9.926 -0.0970 -0.2495  0.2567
   73SLPC  H18R 6463   7.532   4.816   9.974  0.6130  4.4649 -0.7916
   73SLPC  H18S 6464   7.654   4.891   9.902 -1.1781  0.4178  1.7990
   73SLPC  H18T 6465   7.700   4.745   9.999 -0.2874  2.7505  2.2929
   73SLPC   C33 6466   6.494   4.771   9.962  0.5905 -0.1003 -0.4055
   73SLPC   H3X 6467   6.406   4.834   9.986  0.1274 -1.5462  1.9919
   73SLPC   H3Y 6468   6.460   4.666   9.972  0.9042 -0.4947 -2.8352
   73SLPC   C34 6469   6.545   4.795   9.820 -0.4378  0.3408  0.2953
   73SLPC   H4X 6470   6.621   4.876   9.816 -1.0588  0.9942  1.1418
   73SLPC   H4Y 6471   6.467   4.819   9.745  0.6333  0.0435 -0.9538
   73SLPC   C35 6472   6.618   4.669   9.767  0.2503 -0.0358  0.4664
   73SLPC   H5X 6473   6.555   4.578   9.751  0.7766 -0.3088 -0.1184
   73SLPC   H5Y 6474   6.704   4.641   9.832  1.6283  1.1610 -0.7836
   73SLPC   C36 6475   6.680   4.698   9.630 -0.2615  0.0546 -0.1386
   73SLPC   H6X 6476   6.719   4.598   9.603  2.0465  0.3665  1.7308
   73SLPC   H6Y 6477   6.754   4.781   9.636 -0.5740  0.3324 -0.0415
   73SLPC   C37 6478   6.587   4.749   9.516  0.0323  0.2051 -0.5439
   73SLPC   H7X 6479   6.548   4.849   9.543  0.5848 -0.2980  2.4211
   73SLPC   H7Y 6480   6.498   4.684   9.529 -0.4939  0.6249 -1.8780
   73SLPC   C38 6481   6.640   4.755   9.373  0.2258  0.1140 -0.1674
   73SLPC   H8X 6482   6.701   4.846   9.353 -0.7547  0.6020 -1.0632
   73SLPC   H8Y 6483   6.552   4.770   9.307 -0.4332  1.1129  0.9007
   73SLPC   C39 6484   6.700   4.620   9.323  0.2817 -0.4893 -0.0550
   73SLPC   H9X 6485   6.642   4.530   9.350  0.8574 -0.4643  1.3613
   73SLPC   H9Y 6486   6.789   4.606   9.387 -1.0805 -1.9330  1.6240
   73SLPC  C310 6487   6.728   4.620   9.165 -0.2304 -0.6414  0.0420
   73SLPC  H10X 6488   6.786   4.711   9.137 -1.8847  0.2369 -0.7017
   73SLPC  H10Y 6489   6.627   4.626   9.119 -0.9659 -1.9454  1.4095
   73SLPC  C311 6490   6.807   4.496   9.132 -0.0604 -1.0772 -0.5045
   73SLPC  H11X 6491   6.760   4.420   9.198 -2.4916 -0.8171 -1.8397
   73SLPC  H11Y 6492   6.916   4.508   9.151  0.1068 -1.0792 -1.4093
   73SLPC  C312 6493   6.782   4.450   8.986  0.1595 -0.4930  0.1190
   73SLPC  H12X 6494   6.809   4.537   8.922  2.8134 -1.4114 -0.1477
   73SLPC  H12Y 6495   6.674   4.430   8.969 -0.5417  1.3614  1.9438
   73SLPC  C313 6496   6.860   4.318   8.944 -0.0811 -1.1560 -0.1895
   73SLPC  H13X 6497   6.839   4.241   9.022 -1.1938 -0.0401  0.6492
   73SLPC  H13Y 6498   6.968   4.343   8.948  0.1622 -1.7023 -2.1877
   73SLPC  C314 6499   6.822   4.284   8.798 -0.5079  0.3708 -1.0058
   73SLPC  H14X 6500   6.719   4.242   8.800 -0.3926  0.0967 -0.5174
   73SLPC  H14Y 6501   6.886   4.202   8.760 -1.4776 -1.3835  0.9350
   73SLPC  C315 6502   6.822   4.404   8.703 -0.0906  0.2220  0.1251
   73SLPC  H15X 6503   6.918   4.459   8.701 -0.2093  0.6788  3.1829
   73SLPC  H15Y 6504   6.738   4.474   8.727 -0.1412  0.1925  0.0356
   73SLPC  C316 6505   6.799   4.360   8.556 -0.9559  0.6401 -0.4585
   73SLPC  H16X 6506   6.890   4.322   8.504 -1.4548 -1.2689 -0.0127
   73SLPC  H16Y 6507   6.774   4.452   8.499 -2.5076 -0.3754 -1.4597
   73SLPC  C317 6508   6.695   4.249   8.530  0.1494 -0.3134  0.0088
   73SLPC  H17X 6509   6.704   4.173   8.610 -1.6792  1.3885  1.9735
   73SLPC  H17Y 6510   6.710   4.195   8.434 -1.1341 -1.7160  0.5614
   73SLPC  C318 6511   6.547   4.294   8.535 -0.0869 -0.1113  0.6011
   73SLPC  H18X 6512   6.532   4.385   8.473  0.5683 -0.4560 -0.0813
   73SLPC  H18Y 6513   6.516   4.321   8.638 -4.3450 -0.6087 -0.3753
   73SLPC  H18Z 6514   6.472   4.220   8.501  0.5036 -0.2727 -0.3743
   74SLPC     N 6515   0.214   6.635  10.875  1.0642 -0.2657 -0.3390
   74SLPC   C13 6516   0.266   6.520  10.941  0.0814  0.6158  0.0062
   74SLPC  H13A 6517   0.363   6.546  10.981  1.6210 -0.5566 -2.7377
   74SLPC  H13B 6518   0.205   6.478  11.020  0.5199 -0.5035 -0.2390
   74SLPC  H13C 6519   0.280   6.444  10.866 -1.8255  0.6793 -0.4729
   74SLPC   C14 6520   0.328   6.717  10.835 -0.0431 -0.1359  0.1359
   74SLPC  H14A 6521   0.410   6.725  10.905  2.0817 -1.9937 -1.9779
   74SLPC  H14B 6522   0.369   6.667  10.749  1.4044  0.2065  0.6005
   74SLPC  H14C 6523   0.308   6.816  10.796 -0.5249 -0.3336 -0.1254
   74SLPC   C15 6524   0.137   6.711  10.980  1.2231 -0.7110 -0.3721
   74SLPC  H15A 6525   0.123   6.815  10.954 -0.4433 -1.1004 -1.1857
   74SLPC  H15B 6526   0.039   6.671  11.002  0.5444  0.6820 -0.6771
   74SLPC  H15C 6527   0.188   6.705  11.075  0.3452  1.3838  0.2942
   74SLPC   C12 6528   0.116   6.604  10.757 -0.7216  0.3406  0.0639
   74SLPC  H12A 6529   0.092   6.694  10.703 -0.4095  0.5466  0.2710
   74SLPC  H12B 6530   0.022   6.578  10.805  0.1236 -0.8521  1.1461
   74SLPC   C11 6531   0.163   6.497  10.660 -0.8681  0.0544  0.5674
   74SLPC  H11A 6532   0.081   6.501  10.585  0.1193 -0.5305 -0.5924
   74SLPC  H11B 6533   0.168   6.397  10.707  0.8115 -0.1124  0.1120
   74SLPC     P 6534   0.288   6.597  10.454  0.2250  0.2348 -0.2835
   74SLPC   O13 6535   0.167   6.547  10.386  0.6339 -0.1466  0.2994
   74SLPC   O14 6536   0.311   6.738  10.452  0.1592 -0.6667 -0.1589
   74SLPC   O12 6537   0.288   6.535  10.605  0.5941  0.1519 -0.2247
   74SLPC   O11 6538   0.406   6.510  10.400  0.0528  0.1159  0.4401
   74SLPC    C1 6539   0.401   6.369  10.383 -0.7247  0.8277 -0.5758
   74SLPC    HA 6540   0.472   6.319  10.452  0.2802 -1.7650 -3.2812
   74SLPC    HB 6541   0.299   6.325  10.390 -0.6537  0.5752 -1.0557
   74SLPC    C2 6542   0.469   6.333  10.241  1.2241 -0.4006 -0.4634
   74SLPC    HS 6543   0.450   6.224  10.231 -0.9112 -0.4859  2.8634
   74SLPC   O21 6544   0.605   6.358  10.254 -0.0249 -0.4099 -0.3410
   74SLPC   C21 6545   0.685   6.285  10.195 -0.8062  0.0031  0.3213
   74SLPC   O22 6546   0.659   6.179  10.141  0.5949  0.0879  0.4087
   74SLPC   C22 6547   0.821   6.354  10.191 -0.2755 -0.6461 -0.6163
   74SLPC   H2R 6548   0.839   6.389  10.295 -1.1630  0.9279 -0.9447
   74SLPC   H2S 6549   0.889   6.279  10.146  0.7203 -1.4078  2.0257
   74SLPC    C3 6550   0.402   6.413  10.120  0.0502 -0.5497  0.8909
   74SLPC    HX 6551   0.422   6.521  10.136  1.5873 -0.3837 -1.5730
   74SLPC    HY 6552   0.294   6.406  10.142  0.2893  1.3904  3.0780
   74SLPC   O31 6553   0.446   6.367   9.991  0.4507  0.0482  0.5430
   74SLPC   C31 6554   0.391   6.254   9.945 -0.2512  0.9698 -0.3770
   74SLPC   O32 6555   0.313   6.185  10.012  0.6970 -0.0645  0.5013
   74SLPC   C32 6556   0.465   6.198   9.818 -0.2506 -0.5289  0.1751
   74SLPC   H2X 6557   0.445   6.089   9.817  2.7403 -1.1831  1.9765
   74SLPC   H2Y 6558   0.572   6.225   9.828 -0.7733  2.2002 -0.5385
   74SLPC   C23 6559   0.820   6.472  10.094  0.0274 -0.6238 -0.4636
   74SLPC   H3R 6560   0.921   6.515  10.109 -0.0769 -0.6531  0.3670
   74SLPC   H3S 6561   0.749   6.554  10.119 -1.2928 -2.1972  1.3297
   74SLPC   C24 6562   0.795   6.426   9.951  0.3112 -0.2524 -0.2625
   74SLPC   H4R 6563   0.688   6.399   9.937  0.0710  0.1939  0.6283
   74SLPC   H4S 6564   0.863   6.340   9.931 -0.9721 -1.2080 -0.7006
   74SLPC   C25 6565   0.823   6.543   9.856 -0.2915 -0.2665  0.6463
   74SLPC   H5R 6566   0.929   6.577   9.864 -0.6649  0.8823  0.9444
   74SLPC   H5S 6567   0.777   6.642   9.875  0.0670  0.2537 -0.9972
   74SLPC   C26 6568   0.785   6.500   9.715 -0.4700 -0.0496 -0.2274
   74SLPC   H6R 6569   0.676   6.518   9.709 -0.8180 -1.6777  0.8339
   74SLPC   H6S 6570   0.802   6.394   9.686 -0.5196 -0.1024 -0.0646
   74SLPC   C27 6571   0.839   6.605   9.614 -0.4906 -0.3182  0.5928
   74SLPC   H7R 6572   0.946   6.630   9.621  0.0774 -1.1024 -3.2408
   74SLPC   H7S 6573   0.793   6.703   9.638  1.6395  0.9034 -0.0875
   74SLPC   C28 6574   0.816   6.562   9.468  0.4822 -0.1599  0.3006
   74SLPC   H8R 6575   0.858   6.461   9.453 -0.9199 -0.3904 -2.8122
   74SLPC   H8S 6576   0.867   6.629   9.396 -0.3208 -0.9868 -1.0880
   74SLPC   C29 6577   0.661   6.565   9.433 -0.3534  0.7446 -0.1936
   74SLPC   H9R 6578   0.592   6.518   9.504  1.9950 -1.9138  0.5090
   74SLPC  C210 6579   0.609   6.612   9.320  0.3749 -0.2557  0.7603
   74SLPC  H10R 6580   0.501   6.599   9.311  0.3269 -0.3565  1.4219
   74SLPC  C211 6581   0.693   6.666   9.208 -0.0243 -0.8424 -0.7456
   74SLPC  H11R 6582   0.785   6.607   9.194 -0.2158 -1.1908 -0.5487
   74SLPC  H11S 6583   0.722   6.767   9.245  0.1597 -0.9681 -0.5408
   74SLPC  C212 6584   0.621   6.667   9.076  0.0103 -0.6798  0.1249
   74SLPC  H12R 6585   0.549   6.586   9.056 -1.9650  1.2405 -0.9549
   74SLPC  C213 6586   0.632   6.761   8.978 -0.0739 -0.0315  1.3854
   74SLPC  H13R 6587   0.558   6.751   8.898  1.0935  1.1565  0.0981
   74SLPC  C214 6588   0.712   6.888   8.981 -0.2077  0.1519 -0.1370
   74SLPC  H14R 6589   0.789   6.889   9.061  0.4765 -1.5283 -0.7251
   74SLPC  H14S 6590   0.641   6.966   9.015 -0.3940 -0.5690  1.1553
   74SLPC  C215 6591   0.773   6.911   8.842  0.2729 -0.5413  0.3245
   74SLPC  H15R 6592   0.838   6.825   8.813  0.1476  0.0390 -1.9189
   74SLPC  H15S 6593   0.838   7.001   8.832  1.6385 -1.6809 -2.2820
   74SLPC  C216 6594   0.663   6.915   8.733  0.0904  0.4798  0.3208
   74SLPC  H16R 6595   0.568   6.959   8.767 -1.8942 -2.3999 -1.0243
   74SLPC  H16S 6596   0.628   6.812   8.709 -1.6836  0.9985  0.5589
   74SLPC  C217 6597   0.707   6.990   8.603 -0.5772 -0.7080 -0.0890
   74SLPC  H17R 6598   0.791   6.931   8.561 -0.4966 -0.0394 -0.8978
   74SLPC  H17S 6599   0.757   7.081   8.640 -0.1333 -0.8685 -0.2840
   74SLPC  C218 6600   0.596   7.012   8.501  0.0278  0.0018  0.3346
   74SLPC  H18R 6601   0.644   7.040   8.405  0.2663  0.7277  0.6551
   74SLPC  H18S 6602   0.517   7.081   8.537  0.1376  0.3669 -0.1155
   74SLPC  H18T 6603   0.553   6.914   8.475 -1.3350  0.4684  0.7531
   74SLPC   C33 6604   0.406   6.279   9.697  0.1557 -0.0607 -0.7731
   74SLPC   H3X 6605   0.447   6.382   9.709 -3.4274  1.2294  1.7701
   74SLPC   H3Y 6606   0.299   6.286   9.724  0.5761 -2.5920  2.1313
   74SLPC   C34 6607   0.430   6.220   9.558  0.3996 -0.2854  0.4868
   74SLPC   H4X 6608   0.417   6.110   9.554 -1.1362 -0.1603  1.1877
   74SLPC   H4Y 6609   0.533   6.249   9.531 -0.2582  0.7758 -1.0355
   74SLPC   C35 6610   0.341   6.294   9.449 -0.0716 -0.7042 -0.1653
   74SLPC   H5X 6611   0.343   6.402   9.475 -1.2107 -0.1069 -2.3263
   74SLPC   H5Y 6612   0.235   6.267   9.468 -0.1003 -1.5988 -1.4242
   74SLPC   C36 6613   0.395   6.267   9.308 -1.0893 -0.0424 -0.4921
   74SLPC   H6X 6614   0.386   6.158   9.286  1.2968 -0.3763 -0.0479
   74SLPC   H6Y 6615   0.504   6.283   9.309 -0.9713 -0.7159  1.1678
   74SLPC   C37 6616   0.330   6.341   9.199  0.1460  0.2966 -0.7441
   74SLPC   H7X 6617   0.314   6.446   9.229 -0.4996  0.7578 -2.5693
   74SLPC   H7Y 6618   0.228   6.302   9.179  0.3820 -1.9012  1.7703
   74SLPC   C38 6619   0.410   6.333   9.067 -0.4932 -0.3238 -0.5542
   74SLPC   H8X 6620   0.420   6.232   9.022 -0.3455  0.4425 -2.3455
   74SLPC   H8Y 6621   0.515   6.364   9.085 -0.7028 -0.3950  0.8904
   74SLPC   C39 6622   0.357   6.420   8.963 -0.1291  0.4603  0.1586
   74SLPC   H9X 6623   0.361   6.526   8.996 -0.1674  0.3758  0.4361
   74SLPC   H9Y 6624   0.252   6.401   8.932  0.7420 -0.9177 -2.2306
   74SLPC  C310 6625   0.437   6.428   8.826 -0.6241  0.1205 -0.0622
   74SLPC  H10X 6626   0.451   6.330   8.776  0.5983  1.1131 -1.7525
   74SLPC  H10Y 6627   0.537   6.466   8.856 -1.0418  1.5144 -0.3598
   74SLPC  C311 6628   0.364   6.532   8.731 -0.2379  0.7139 -0.5991
   74SLPC  H11X 6629   0.421   6.559   8.639  1.4229 -1.8472 -0.4233
   74SLPC  H11Y 6630   0.350   6.625   8.789  0.1137 -0.3322  1.2613
   74SLPC  C312 6631   0.231   6.484   8.679 -0.1976 -0.4630  0.1933
   74SLPC  H12X 6632   0.170   6.469   8.770  0.5925 -0.5149  0.7271
   74SLPC  H12Y 6633   0.234   6.381   8.637  0.8995 -0.1793 -0.4871
   74SLPC  C313 6634   0.166   6.583   8.587  0.2367 -0.2358 -0.2959
   74SLPC  H13X 6635   0.186   6.684   8.628 -0.4586  0.0460 -0.6307
   74SLPC  H13Y 6636   0.056   6.572   8.583  0.2469 -0.9593  0.8987
   74SLPC  C314 6637   0.221   6.585   8.444 -0.6840 -0.4204  0.3599
   74SLPC  H14X 6638   0.231   6.479   8.412 -1.3040 -0.7262  1.1521
   74SLPC  H14Y 6639   0.328   6.615   8.447 -0.6326 -0.3906 -1.1150
   74SLPC  C315 6640   0.143   6.674   8.352 -0.0981 -0.1956  0.9643
   74SLPC  H15X 6641   0.136   6.779   8.389 -1.9715  1.0185 -2.3953
   74SLPC  H15Y 6642   0.049   6.621   8.325 -0.0784  0.0952  0.3098
   74SLPC  C316 6643   0.219   6.676   8.219  1.0640 -0.2804 -0.4648
   74SLPC  H16X 6644   0.232   6.575   8.174 -1.3691 -0.9431  0.1696
   74SLPC  H16Y 6645   0.317   6.728   8.223  0.8743  0.0193  1.2886
   74SLPC  C317 6646   0.143   6.751   8.102 -0.3149  0.4107 -0.4979
   74SLPC  H17X 6647   0.113   6.843   8.157  0.7973  1.0634 -0.9474
   74SLPC  H17Y 6648   0.052   6.690   8.080 -0.5588 -0.3398  2.1648
   74SLPC  C318 6649   0.233   6.802   7.991 -0.0824 -0.1923 -0.4328
   74SLPC  H18X 6650   0.267   6.708   7.942 -3.1775 -1.1250 -1.0259
   74SLPC  H18Y 6651   0.321   6.861   8.023 -1.2739  1.5911 -0.2989
   74SLPC  H18Z 6652   0.181   6.864   7.914  0.6510  1.9002  0.6934
   75SLPC     N 6653   3.191   3.324   6.585 -0.5058  0.0130  0.1073
   75SLPC   C13 6654   3.211   3.359   6.723  0.4563 -0.8358  0.1618
   75SLPC  H13A 6655   3.264   3.452   6.732 -2.6527  1.1243 -0.2539
   75SLPC  H13B 6656   3.121   3.368   6.781 -0.1946 -1.1568 -0.7689
   75SLPC  H13C 6657   3.275   3.284   6.768  0.9169 -1.4030 -1.3511
   75SLPC   C14 6658   3.131   3.189   6.582 -0.3290 -0.1475  0.5616
   75SLPC  H14A 6659   3.027   3.189   6.610 -0.3623  0.2102  0.4502
   75SLPC  H14B 6660   3.135   3.153   6.480  0.6302  0.3663  0.4040
   75SLPC  H14C 6661   3.191   3.120   6.639  0.4134  0.8392  1.0157
   75SLPC   C15 6662   3.332   3.320   6.533 -0.1891 -0.8477  0.5970
   75SLPC  H15A 6663   3.374   3.236   6.587 -1.3544 -0.8113  1.6126
   75SLPC  H15B 6664   3.349   3.316   6.426 -0.2377  0.8038  0.5010
   75SLPC  H15C 6665   3.386   3.410   6.558 -0.2750 -0.1574 -1.4892
   75SLPC   C12 6666   3.101   3.413   6.500  0.0975 -0.0547  0.3486
   75SLPC  H12A 6667   3.010   3.437   6.553  0.2489  2.3922 -0.3829
   75SLPC  H12B 6668   3.077   3.365   6.407 -4.0336  1.7308  0.2877
   75SLPC   C11 6669   3.160   3.554   6.467 -0.2911  0.0944  0.2765
   75SLPC  H11A 6670   3.253   3.540   6.408  0.7058  1.5024  1.4211
   75SLPC  H11B 6671   3.187   3.611   6.559  3.2245 -0.3541 -0.3198
   75SLPC     P 6672   2.911   3.648   6.468  0.2883  0.1297  0.2842
   75SLPC   O13 6673   2.848   3.748   6.381 -0.4934 -0.0897 -0.2766
   75SLPC   O14 6674   2.841   3.516   6.478  0.3052  0.0691  0.0891
   75SLPC   O12 6675   3.050   3.611   6.397 -0.1009 -0.9253  0.3611
   75SLPC   O11 6676   2.955   3.711   6.603 -0.3465  0.3695  0.1294
   75SLPC    C1 6677   2.941   3.647   6.727 -0.4802 -0.1550 -0.2397
   75SLPC    HA 6678   2.846   3.590   6.731 -0.3572 -0.3037  0.5891
   75SLPC    HB 6679   3.020   3.573   6.752 -1.1615 -0.4433  1.1323
   75SLPC    C2 6680   2.941   3.769   6.827 -0.6348 -0.2502 -0.5546
   75SLPC    HS 6681   3.045   3.809   6.827 -0.5964 -0.2717 -2.2967
   75SLPC   O21 6682   2.883   3.721   6.951  0.2235 -0.0066  0.3900
   75SLPC   C21 6683   2.956   3.625   7.014  0.3239 -0.6206 -0.5631
   75SLPC   O22 6684   3.068   3.594   6.992  0.0157  0.8615 -0.5451
   75SLPC   C22 6685   2.857   3.570   7.110  0.0791 -0.0670 -0.2547
   75SLPC   H2R 6686   2.791   3.644   7.161  0.5090 -1.1015  1.9292
   75SLPC   H2S 6687   2.789   3.513   7.044  0.2139  1.1983 -1.5228
   75SLPC    C3 6688   2.849   3.888   6.778  0.5231 -0.0314 -0.3935
   75SLPC    HX 6689   2.741   3.863   6.790 -0.5945  3.4254 -1.9612
   75SLPC    HY 6690   2.848   3.905   6.669 -1.6523 -1.9207 -0.7524
   75SLPC   O31 6691   2.892   4.019   6.842  0.2284 -0.4984 -0.5736
   75SLPC   C31 6692   2.798   4.097   6.878  0.4826  0.1946 -0.3577
   75SLPC   O32 6693   2.682   4.091   6.846  0.4255  0.0993 -0.1939
   75SLPC   C32 6694   2.845   4.203   6.974 -0.5220  0.6641 -0.4184
   75SLPC   H2X 6695   2.818   4.306   6.942  0.4360  0.9207 -0.4398
   75SLPC   H2Y 6696   2.950   4.199   7.010 -0.1812  2.1391 -1.1673
   75SLPC   C23 6697   2.925   3.479   7.206  0.3521  0.1707  0.3410
   75SLPC   H3R 6698   2.992   3.543   7.267 -0.7922  2.1824 -0.3842
   75SLPC   H3S 6699   2.982   3.403   7.149 -1.1066  0.0976 -1.1151
   75SLPC   C24 6700   2.841   3.399   7.299  0.4435  0.3256  0.0499
   75SLPC   H4R 6701   2.914   3.384   7.381 -0.1486 -0.1017  0.4993
   75SLPC   H4S 6702   2.823   3.301   7.251  1.3919 -0.0958  0.5371
   75SLPC   C25 6703   2.718   3.471   7.354  0.5764 -0.7841  0.2284
   75SLPC   H5R 6704   2.636   3.465   7.279  1.2231  1.5876 -0.7566
   75SLPC   H5S 6705   2.729   3.581   7.365 -1.6011 -0.4932  0.1219
   75SLPC   C26 6706   2.672   3.404   7.486  0.3223 -0.1407 -0.1469
   75SLPC   H6R 6707   2.749   3.407   7.566  0.0395  1.0496  0.1025
   75SLPC   H6S 6708   2.640   3.299   7.471  0.5387 -0.1416 -0.6264
   75SLPC   C27 6709   2.544   3.474   7.538 -0.0495 -0.0966  0.0271
   75SLPC   H7R 6710   2.469   3.451   7.458 -0.1654 -1.7268  0.5618
   75SLPC   H7S 6711   2.561   3.583   7.550  1.7817 -0.6226  3.2399
   75SLPC   C28 6712   2.495   3.418   7.674  0.2449 -0.3577  1.3328
   75SLPC   H8R 6713   2.447   3.320   7.655 -2.3449  0.8398  1.2477
   75SLPC   H8S 6714   2.408   3.480   7.705  0.0338 -1.0558  2.1472
   75SLPC   C29 6715   2.593   3.424   7.789 -0.4191 -0.6674 -0.4717
   75SLPC   H9R 6716   2.700   3.410   7.768 -0.4663 -2.0403  0.0632
   75SLPC  C210 6717   2.567   3.424   7.921  0.3866 -0.1207 -0.1730
   75SLPC  H10R 6718   2.643   3.420   8.001 -0.4462  0.0493  0.6487
   75SLPC  C211 6719   2.423   3.408   7.960 -0.1935 -0.7358 -0.3701
   75SLPC  H11R 6720   2.367   3.332   7.900 -0.4915 -0.4231 -0.4904
   75SLPC  H11S 6721   2.361   3.498   7.940 -0.5178 -0.6864  0.7720
   75SLPC  C212 6722   2.401   3.371   8.109 -0.1893 -0.0131  0.8364
   75SLPC  H12R 6723   2.456   3.279   8.137  0.2330  0.6653  2.2962
   75SLPC  C213 6724   2.339   3.434   8.209  0.1109  0.5515 -0.3522
   75SLPC  H13R 6725   2.333   3.393   8.310  2.4838 -1.6004 -0.9721
   75SLPC  C214 6726   2.269   3.567   8.205 -0.0683 -1.0374  0.4266
   75SLPC  H14R 6727   2.160   3.559   8.226 -0.3813  1.7995  0.2224
   75SLPC  H14S 6728   2.273   3.616   8.106 -2.0816  1.9222  1.6623
   75SLPC  C215 6729   2.319   3.677   8.303  0.7820  0.2306  0.2136
   75SLPC  H15R 6730   2.253   3.761   8.273 -0.0927 -0.6587 -0.3959
   75SLPC  H15S 6731   2.428   3.692   8.284  0.8695 -0.8025 -0.1229
   75SLPC  C216 6732   2.279   3.635   8.447 -0.3287 -0.0293 -0.1412
   75SLPC  H16R 6733   2.335   3.542   8.471 -1.2252  0.0885  2.8091
   75SLPC  H16S 6734   2.174   3.599   8.445 -0.7884  0.6205  4.0950
   75SLPC  C217 6735   2.292   3.746   8.552 -0.7110 -0.2338  0.0661
   75SLPC  H17R 6736   2.223   3.830   8.526  1.2204  3.3121  4.9837
   75SLPC  H17S 6737   2.398   3.778   8.546 -0.8903  0.3099 -0.3107
   75SLPC  C218 6738   2.252   3.705   8.698  0.0072 -0.0272 -0.4644
   75SLPC  H18R 6739   2.155   3.652   8.691 -0.3172  0.1502  1.9523
   75SLPC  H18S 6740   2.240   3.791   8.768  0.0170  0.1497 -0.6783
   75SLPC  H18T 6741   2.336   3.644   8.738 -0.7181 -0.1415  0.9330
   75SLPC   C33 6742   2.770   4.186   7.110 -0.4635 -0.7912 -0.0960
   75SLPC   H3X 6743   2.663   4.201   7.083 -0.5097 -2.2972 -0.8117
   75SLPC   H3Y 6744   2.788   4.085   7.153 -0.8002 -1.0563 -0.5715
   75SLPC   C34 6745   2.823   4.283   7.205  0.0664 -0.1848 -0.1071
   75SLPC   H4X 6746   2.817   4.390   7.174 -1.5868  0.2443  1.4754
   75SLPC   H4Y 6747   2.929   4.262   7.233  0.0063 -0.3724 -0.0242
   75SLPC   C35 6748   2.745   4.269   7.340 -0.2557 -0.3699  0.1037
   75SLPC   H5X 6749   2.723   4.162   7.355  1.3090 -0.6856  0.3466
   75SLPC   H5Y 6750   2.646   4.318   7.343 -0.8401 -1.4890 -0.6442
   75SLPC   C36 6751   2.832   4.330   7.457  0.0526 -0.5348  0.7398
   75SLPC   H6X 6752   2.867   4.432   7.428  0.0847  0.0456  2.6553
   75SLPC   H6Y 6753   2.915   4.257   7.463  2.3235  1.9410  1.9288
   75SLPC   C37 6754   2.752   4.337   7.594 -0.2291 -0.0753  0.4448
   75SLPC   H7X 6755   2.699   4.241   7.608 -1.6666  0.3250 -1.6698
   75SLPC   H7Y 6756   2.682   4.423   7.583 -1.0739 -0.8588 -0.5540
   75SLPC   C38 6757   2.844   4.365   7.712 -0.4992 -0.1875  0.5282
   75SLPC   H8X 6758   2.906   4.456   7.698  0.2734 -0.9005 -0.9395
   75SLPC   H8Y 6759   2.915   4.282   7.735  0.0676  0.0265 -0.3992
   75SLPC   C39 6760   2.755   4.396   7.832  0.3300 -0.9457 -0.7128
   75SLPC   H9X 6761   2.674   4.470   7.811  0.3816 -0.6814 -0.0085
   75SLPC   H9Y 6762   2.824   4.453   7.898  0.3554  0.2847 -1.7676
   75SLPC  C310 6763   2.695   4.280   7.911  0.5413  0.0966 -0.2770
   75SLPC  H10X 6764   2.736   4.190   7.860  0.0175 -0.5053  0.3496
   75SLPC  H10Y 6765   2.586   4.264   7.897  0.6931 -0.7369 -0.5588
   75SLPC  C311 6766   2.737   4.292   8.057 -0.3684  0.0170  0.7332
   75SLPC  H11X 6767   2.717   4.396   8.091 -1.0457  0.9252 -2.1853
   75SLPC  H11Y 6768   2.847   4.281   8.069 -0.3611  0.2782  0.9163
   75SLPC  C312 6769   2.654   4.199   8.144  0.2667  0.4214 -0.6139
   75SLPC  H12X 6770   2.695   4.096   8.149 -1.0106 -0.1204 -0.9616
   75SLPC  H12Y 6771   2.553   4.187   8.098  0.1947  0.5918 -0.5037
   75SLPC  C313 6772   2.633   4.256   8.286 -0.2406 -0.6697 -0.0909
   75SLPC  H13X 6773   2.603   4.361   8.271  3.1069  0.4871  0.4404
   75SLPC  H13Y 6774   2.731   4.271   8.336 -0.4120  0.5006 -0.0975
   75SLPC  C314 6775   2.523   4.189   8.368 -0.3028  1.0982  0.0075
   75SLPC  H14X 6776   2.557   4.084   8.382  0.2016  1.1305 -0.9608
   75SLPC  H14Y 6777   2.427   4.167   8.316  0.6988 -2.1494 -0.7111
   75SLPC  C315 6778   2.496   4.245   8.508  0.2735 -0.2443 -0.2923
   75SLPC  H15X 6779   2.452   4.347   8.501  1.4994  0.3287 -0.1062
   75SLPC  H15Y 6780   2.588   4.270   8.566 -0.4359  1.0040  0.3312
   75SLPC  C316 6781   2.416   4.142   8.592  0.4422 -0.4011 -0.5682
   75SLPC  H16X 6782   2.465   4.043   8.580 -0.2739 -0.5967 -1.9874
   75SLPC  H16Y 6783   2.315   4.134   8.547  0.9648 -0.3987 -1.7810
   75SLPC  C317 6784   2.405   4.165   8.743  0.3084 -0.1188  0.5718
   75SLPC  H17X 6785   2.498   4.143   8.799  1.5063  2.0490 -0.4184
   75SLPC  H17Y 6786   2.331   4.090   8.775 -0.1468 -0.0527 -0.2786
   75SLPC  C318 6787   2.353   4.307   8.771  0.0021 -0.5492  0.3183
   75SLPC  H18X 6788   2.306   4.308   8.871 -0.9688 -3.7277 -0.0226
   75SLPC  H18Y 6789   2.276   4.325   8.694  1.9187 -0.9603 -1.8086
   75SLPC  H18Z 6790   2.431   4.380   8.738  0.2207 -1.3434 -0.9976
   76SLPC     N 6791   4.773   0.676   6.193  0.3843  0.1297 -0.1540
   76SLPC   C13 6792   4.698   0.767   6.281 -0.1820 -0.4039 -0.9575
   76SLPC  H13A 6793   4.591   0.752   6.288 -0.0071 -1.1348  0.6700
   76SLPC  H13B 6794   4.731   0.748   6.382 -0.5470 -0.3380 -0.8215
   76SLPC  H13C 6795   4.716   0.867   6.246 -1.1744  0.1898  0.1317
   76SLPC   C14 6796   4.726   0.691   6.057  0.4103 -0.4691 -0.1628
   76SLPC  H14A 6797   4.746   0.790   6.018  3.3483  0.4512  3.1803
   76SLPC  H14B 6798   4.768   0.629   5.980 -0.1741  2.7923 -3.3893
   76SLPC  H14C 6799   4.619   0.679   6.045  0.2225  1.5098 -0.7703
   76SLPC   C15 6800   4.761   0.532   6.240  0.0290 -0.7440  0.9076
   76SLPC  H15A 6801   4.656   0.507   6.243  0.0252 -1.5300 -2.0151
   76SLPC  H15B 6802   4.810   0.473   6.163 -2.0920 -0.4514 -0.7819
   76SLPC  H15C 6803   4.798   0.521   6.341 -0.1928  2.4962  1.4451
   76SLPC   C12 6804   4.924   0.722   6.196 -0.7619 -0.9006 -0.5968
   76SLPC  H12A 6805   4.978   0.648   6.140  0.6268  0.9105 -1.7492
   76SLPC  H12B 6806   4.970   0.710   6.293  2.0754 -1.0613 -1.8585
   76SLPC   C11 6807   4.968   0.867   6.147 -0.3919  0.6987  0.0391
   76SLPC  H11A 6808   4.963   0.856   6.037  3.0476  0.4038 -0.2024
   76SLPC  H11B 6809   5.075   0.885   6.170 -0.4650  1.2336 -0.0256
   76SLPC     P 6810   4.903   1.115   6.171  0.0431  0.3939 -0.0178
   76SLPC   O13 6811   4.981   1.116   6.045 -0.1617  0.1605  0.7713
   76SLPC   O14 6812   4.777   1.183   6.158 -0.4704  0.2849 -0.4694
   76SLPC   O12 6813   4.879   0.968   6.203  0.4014  0.3203 -0.0742
   76SLPC   O11 6814   4.979   1.169   6.298 -0.2882  0.1848  0.0530
   76SLPC    C1 6815   5.091   1.096   6.351 -0.2662  0.1655 -0.7247
   76SLPC    HA 6816   5.159   1.044   6.280  0.5045 -0.8910  0.7277
   76SLPC    HB 6817   5.157   1.158   6.415 -1.7835 -0.4025  1.5043
   76SLPC    C2 6818   5.044   0.993   6.463  0.2362 -0.2541  0.4904
   76SLPC    HS 6819   4.991   0.915   6.403  0.7961  0.3834 -0.8789
   76SLPC   O21 6820   4.952   1.064   6.543 -0.2611 -0.2654 -0.1224
   76SLPC   C21 6821   4.841   1.001   6.564  0.2133 -0.0833  0.0823
   76SLPC   O22 6822   4.817   0.881   6.556  0.5947  0.8933 -0.4554
   76SLPC   C22 6823   4.729   1.108   6.588 -0.2096 -0.1355 -0.0509
   76SLPC   H2R 6824   4.768   1.174   6.669  0.2671  0.1320 -0.4889
   76SLPC   H2S 6825   4.723   1.156   6.489 -1.5468  0.2752  0.2152
   76SLPC    C3 6826   5.150   0.925   6.549 -0.2292 -0.1847 -0.3241
   76SLPC    HX 6827   5.213   0.998   6.604 -0.8096  0.2330 -0.1962
   76SLPC    HY 6828   5.225   0.886   6.478 -1.9062 -0.5926 -1.9482
   76SLPC   O31 6829   5.114   0.813   6.625  0.3007  0.2432 -0.0168
   76SLPC   C31 6830   5.095   0.693   6.553 -0.2025 -0.8485 -0.7945
   76SLPC   O32 6831   5.120   0.677   6.439  0.3357  0.2457  0.9786
   76SLPC   C32 6832   5.031   0.597   6.653  0.0081  0.0961  0.1043
   76SLPC   H2X 6833   5.085   0.502   6.634  0.1878 -0.0326  1.2097
   76SLPC   H2Y 6834   4.923   0.577   6.637 -0.1320  0.0027  1.0795
   76SLPC   C23 6835   4.588   1.059   6.615  0.4493 -0.5517 -0.1666
   76SLPC   H3R 6836   4.569   0.953   6.585 -0.1580  0.2283 -2.7929
   76SLPC   H3S 6837   4.511   1.126   6.571  0.6736 -0.8494 -1.0372
   76SLPC   C24 6838   4.555   1.042   6.764 -0.7281 -0.6550 -0.8029
   76SLPC   H4R 6839   4.446   1.018   6.758 -1.0238  0.8473 -2.5659
   76SLPC   H4S 6840   4.552   1.137   6.822 -3.0462 -0.8364 -0.5238
   76SLPC   C25 6841   4.630   0.926   6.841 -0.8606 -0.0554 -0.1743
   76SLPC   H5R 6842   4.738   0.952   6.835 -0.9518  0.1239 -1.1652
   76SLPC   H5S 6843   4.605   0.831   6.789 -1.1114 -0.3549  0.4833
   76SLPC   C26 6844   4.595   0.919   6.991  0.4071 -0.8323 -0.0726
   76SLPC   H6R 6845   4.627   0.826   7.041 -1.8304 -2.1782 -0.9694
   76SLPC   H6S 6846   4.484   0.925   7.004  0.1325 -3.1648 -0.8293
   76SLPC   C27 6847   4.666   1.031   7.080 -0.2805  0.7577  0.1410
   76SLPC   H7R 6848   4.632   1.131   7.045  0.9645  0.6678 -1.4453
   76SLPC   H7S 6849   4.769   1.014   7.043 -0.6485 -1.7359  0.0884
   76SLPC   C28 6850   4.663   1.018   7.236  0.0005 -0.6299  0.0976
   76SLPC   H8R 6851   4.562   0.978   7.259 -0.7367  0.2006 -1.4938
   76SLPC   H8S 6852   4.730   0.936   7.271  3.4562  1.1383 -1.7974
   76SLPC   C29 6853   4.668   1.156   7.303 -1.1525 -0.0049 -0.3203
   76SLPC   H9R 6854   4.596   1.219   7.249 -1.1760 -1.5990 -2.2965
   76SLPC  C210 6855   4.749   1.192   7.396 -0.2146  0.3322 -0.8013
   76SLPC  H10R 6856   4.749   1.293   7.439 -0.0069  1.0530 -2.4438
   76SLPC  C211 6857   4.850   1.113   7.479  0.7396  0.6693 -0.4144
   76SLPC  H11R 6858   4.941   1.171   7.505  0.0973  1.5008  0.0168
   76SLPC  H11S 6859   4.899   1.030   7.423  2.3945 -0.3663  2.3707
   76SLPC  C212 6860   4.811   1.039   7.602  0.7326 -1.0550 -0.0680
   76SLPC  H12R 6861   4.702   1.054   7.611  1.1119  2.3107  0.3604
   76SLPC  C213 6862   4.886   0.965   7.677  0.1711  0.2489 -0.5975
   76SLPC  H13R 6863   4.848   0.914   7.767 -0.0856  0.0180 -0.8351
   76SLPC  C214 6864   5.037   0.951   7.657  0.4197 -0.3332  0.3648
   76SLPC  H14R 6865   5.076   0.993   7.562  2.2023 -1.2040  0.6627
   76SLPC  H14S 6866   5.052   0.841   7.657  3.5214 -0.0468  2.3171
   76SLPC  C215 6867   5.129   1.004   7.767 -0.0835 -0.6497 -0.1504
   76SLPC  H15R 6868   5.230   1.008   7.721 -0.2933 -3.2804 -1.0176
   76SLPC  H15S 6869   5.131   0.930   7.849 -1.4307  0.2356  0.7214
   76SLPC  C216 6870   5.098   1.146   7.818  0.2275  0.2988 -0.1537
   76SLPC  H16R 6871   4.999   1.153   7.867  0.2549  1.4699 -0.2358
   76SLPC  H16S 6872   5.092   1.205   7.724  3.2589  0.6715 -0.2094
   76SLPC  C217 6873   5.210   1.193   7.918  1.1446  0.2532  0.0470
   76SLPC  H17R 6874   5.307   1.195   7.864  1.3139  1.8019  0.3700
   76SLPC  H17S 6875   5.218   1.112   7.994 -0.0234 -0.7131 -0.8182
   76SLPC  C218 6876   5.189   1.319   8.002 -0.0384  0.3093  0.0393
   76SLPC  H18R 6877   5.087   1.317   8.047  0.3478 -0.9748  0.9319
   76SLPC  H18S 6878   5.212   1.413   7.948 -0.1702  0.4269  0.1869
   76SLPC  H18T 6879   5.261   1.314   8.086  1.8706  2.3316 -1.3881
   76SLPC   C33 6880   5.045   0.617   6.801 -0.0551  0.7813  0.1620
   76SLPC   H3X 6881   4.993   0.709   6.837  0.5914  0.9183  0.7783
   76SLPC   H3Y 6882   5.155   0.622   6.812  0.3036 -3.1543 -0.3361
   76SLPC   C34 6883   4.989   0.492   6.883 -0.2656  0.3652 -1.4662
   76SLPC   H4X 6884   5.044   0.404   6.843 -4.3130 -2.1848 -1.9750
   76SLPC   H4Y 6885   4.879   0.478   6.872 -0.4567  1.3789 -0.9880
   76SLPC   C35 6886   5.009   0.512   7.039 -0.4693  0.5432  0.3217
   76SLPC   H5X 6887   5.119   0.519   7.057 -0.4031  1.6725 -0.3892
   76SLPC   H5Y 6888   4.966   0.421   7.085  0.1686 -2.4534 -4.3954
   76SLPC   C36 6889   4.944   0.637   7.092  0.0039  0.4677 -0.4286
   76SLPC   H6X 6890   4.842   0.649   7.048 -0.5318  1.1196  0.9193
   76SLPC   H6Y 6891   5.001   0.721   7.047 -0.7001  1.7126  0.9034
   76SLPC   C37 6892   4.942   0.652   7.242  0.0810  0.7217  0.0154
   76SLPC   H7X 6893   4.884   0.744   7.263  0.3269  0.4907  1.9537
   76SLPC   H7Y 6894   5.045   0.675   7.277  0.4781  0.1129 -0.7219
   76SLPC   C38 6895   4.871   0.537   7.315 -0.2172 -0.4751  0.7032
   76SLPC   H8X 6896   4.926   0.441   7.320  0.9716  0.1846  0.6057
   76SLPC   H8Y 6897   4.766   0.527   7.280 -0.3376  0.2241  0.8492
   76SLPC   C39 6898   4.866   0.572   7.470 -0.4452 -0.2018  0.5230
   76SLPC   H9X 6899   4.810   0.666   7.487  0.8310  0.6600  0.0999
   76SLPC   H9Y 6900   4.971   0.589   7.504 -0.6880  0.6682  0.8556
   76SLPC  C310 6901   4.802   0.458   7.562 -0.5167  0.4131  0.5846
   76SLPC  H10X 6902   4.875   0.375   7.551  0.3734  1.3732 -1.2716
   76SLPC  H10Y 6903   4.713   0.421   7.507  0.9576 -0.9355 -0.9982
   76SLPC  C311 6904   4.794   0.501   7.705 -0.5763  0.5173 -0.0427
   76SLPC  H11X 6905   4.719   0.445   7.765 -0.2889  3.6498  3.5655
   76SLPC  H11Y 6906   4.762   0.607   7.699 -2.0618  0.0255 -2.6693
   76SLPC  C312 6907   4.919   0.478   7.791 -0.3312  0.6185  0.2483
   76SLPC  H12X 6908   4.995   0.556   7.767 -0.3450  0.6412  0.2771
   76SLPC  H12Y 6909   4.962   0.384   7.752 -0.8277  0.9356 -1.0948
   76SLPC  C313 6910   4.912   0.478   7.944 -0.5896  0.2148 -0.1313
   76SLPC  H13X 6911   5.015   0.471   7.984 -0.0757  1.1117 -1.2625
   76SLPC  H13Y 6912   4.868   0.382   7.978 -0.2183 -0.6104 -1.9039
   76SLPC  C314 6913   4.831   0.601   8.003  0.1910  0.4802  0.0200
   76SLPC  H14X 6914   4.821   0.577   8.111  0.6964 -1.0623 -0.2424
   76SLPC  H14Y 6915   4.729   0.600   7.957 -0.3778 -2.9168  1.0887
   76SLPC  C315 6916   4.905   0.733   8.000  0.0374  0.6211  0.1558
   76SLPC  H15X 6917   4.904   0.760   7.893 -4.3914  1.4516  0.1932
   76SLPC  H15Y 6918   5.011   0.717   8.026  0.3663  0.8651 -0.9979
   76SLPC  C316 6919   4.855   0.849   8.075  0.1460 -0.4422 -0.6359
   76SLPC  H16X 6920   4.757   0.871   8.027  0.2235  1.3779 -0.0354
   76SLPC  H16Y 6921   4.909   0.943   8.053 -1.3334  0.5523 -0.2028
   76SLPC  C317 6922   4.858   0.833   8.229  0.3139 -0.0519  0.2999
   76SLPC  H17X 6923   4.810   0.737   8.259  0.4222  0.4053  2.0169
   76SLPC  H17Y 6924   4.798   0.911   8.281 -0.8307 -1.6496  1.4814
   76SLPC  C318 6925   5.000   0.833   8.278 -0.4930  0.2039  0.2727
   76SLPC  H18X 6926   5.051   0.741   8.244 -0.4494 -0.0528  1.0235
   76SLPC  H18Y 6927   5.013   0.840   8.388 -0.5943 -0.0710  0.3018
   76SLPC  H18Z 6928   5.045   0.929   8.245 -2.3113  1.0513  0.1182
   77SLPC     N 6929   6.489   1.261   6.015  0.5697  0.0609 -0.1473
   77SLPC   C13 6930   6.454   1.125   5.964  0.2353  1.1153  0.6345
   77SLPC  H13A 6931   6.381   1.068   6.020  0.3333 -0.8965 -1.1324
   77SLPC  H13B 6932   6.416   1.129   5.863  2.3247  0.3412 -0.2373
   77SLPC  H13C 6933   6.537   1.058   5.948 -0.5660  0.5201 -1.4168
   77SLPC   C14 6934   6.379   1.354   5.965 -0.0135 -0.1617  0.6128
   77SLPC  H14A 6935   6.278   1.320   5.986 -0.4763  1.3633  0.9806
   77SLPC  H14B 6936   6.394   1.444   6.023  0.4601 -1.1498  2.0915
   77SLPC  H14C 6937   6.385   1.370   5.858 -1.1304 -1.0099  0.3973
   77SLPC   C15 6938   6.615   1.302   5.950 -0.2550 -0.1988 -0.2912
   77SLPC  H15A 6939   6.614   1.269   5.847 -0.6196  0.0741 -0.3817
   77SLPC  H15B 6940   6.619   1.410   5.940 -0.9624 -0.2271 -1.0429
   77SLPC  H15C 6941   6.698   1.272   6.011 -0.3814 -0.2840 -0.1596
   77SLPC   C12 6942   6.498   1.253   6.163 -1.0476 -0.0085  0.2011
   77SLPC  H12A 6943   6.566   1.175   6.197 -0.7655  0.1448 -0.0144
   77SLPC  H12B 6944   6.407   1.211   6.204 -1.3878  1.8698  1.5075
   77SLPC   C11 6945   6.548   1.381   6.236 -0.1078 -0.1210 -0.1859
   77SLPC  H11A 6946   6.654   1.387   6.206  0.7147 -0.2864  2.3800
   77SLPC  H11B 6947   6.557   1.384   6.347 -0.9668 -0.4932 -0.0912
   77SLPC     P 6948   6.353   1.548   6.272  0.0487  0.1994 -0.4529
   77SLPC   O13 6949   6.306   1.666   6.201 -0.0731  0.3342 -0.3584
   77SLPC   O14 6950   6.265   1.438   6.284  1.0689  0.2146 -0.0170
   77SLPC   O12 6951   6.489   1.503   6.211 -0.2173 -0.0664 -0.9800
   77SLPC   O11 6952   6.380   1.596   6.415  0.1186 -0.1004 -0.8573
   77SLPC    C1 6953   6.496   1.666   6.460 -0.3096 -0.5548 -0.1581
   77SLPC    HA 6954   6.568   1.684   6.377  0.0296  0.4595  0.3417
   77SLPC    HB 6955   6.471   1.769   6.495  0.4512  0.0615 -1.3275
   77SLPC    C2 6956   6.573   1.607   6.575  0.4790  0.4111 -0.0117
   77SLPC    HS 6957   6.626   1.515   6.543 -0.6538  0.0212 -0.8069
   77SLPC   O21 6958   6.473   1.599   6.685 -0.0309  0.1295 -0.0438
   77SLPC   C21 6959   6.416   1.479   6.704  0.1503  0.1638 -0.1519
   77SLPC   O22 6960   6.436   1.380   6.633 -0.1054  0.1061  0.6201
   77SLPC   C22 6961   6.336   1.485   6.840  0.1831 -0.1414  0.2483
   77SLPC   H2R 6962   6.387   1.548   6.916  0.1534  0.6284 -0.3524
   77SLPC   H2S 6963   6.232   1.519   6.819 -0.4039 -1.7473  0.4402
   77SLPC    C3 6964   6.690   1.684   6.627 -0.0635 -0.2061  0.1585
   77SLPC    HX 6965   6.659   1.787   6.654  0.3984 -0.5266  2.0792
   77SLPC    HY 6966   6.754   1.686   6.536 -1.0260 -0.5742 -0.5367
   77SLPC   O31 6967   6.770   1.610   6.725 -0.1146 -0.1068 -0.2965
   77SLPC   C31 6968   6.839   1.684   6.806  0.0006 -0.0232  0.3475
   77SLPC   O32 6969   6.844   1.806   6.808 -0.1001 -0.2648  0.1387
   77SLPC   C32 6970   6.936   1.595   6.883  0.0146  0.0937  0.5736
   77SLPC   H2X 6971   7.035   1.635   6.853 -1.1730  2.1001 -0.9240
   77SLPC   H2Y 6972   6.938   1.492   6.841 -2.4995  0.0249  0.4503
   77SLPC   C23 6973   6.312   1.342   6.899 -0.6788  0.6591 -0.0427
   77SLPC   H3R 6974   6.404   1.290   6.934 -1.9717 -1.0423  1.0275
   77SLPC   H3S 6975   6.273   1.280   6.816 -1.2598 -1.0518  1.4363
   77SLPC   C24 6976   6.219   1.338   7.019 -0.5996  0.4203  0.1190
   77SLPC   H4R 6977   6.125   1.389   6.991 -0.9201 -0.1384  0.1573
   77SLPC   H4S 6978   6.264   1.398   7.100 -0.5920  2.3104 -1.2371
   77SLPC   C25 6979   6.193   1.189   7.064 -0.3026  0.0491 -0.4064
   77SLPC   H5R 6980   6.136   1.189   7.159  0.2174  0.3517 -0.0960
   77SLPC   H5S 6981   6.295   1.146   7.066 -1.1496 -2.0498 -0.0693
   77SLPC   C26 6982   6.111   1.102   6.969 -0.7072  0.0738 -0.3580
   77SLPC   H6R 6983   6.170   1.099   6.875  3.0629  3.3349  1.6113
   77SLPC   H6S 6984   6.011   1.145   6.946 -1.9414 -1.3610  1.9707
   77SLPC   C27 6985   6.095   0.965   7.040 -0.1234 -0.5285  0.6066
   77SLPC   H7R 6986   6.020   0.967   7.121  0.1133  2.6145  0.8886
   77SLPC   H7S 6987   6.187   0.918   7.081 -0.9659 -1.4544  1.4715
   77SLPC   C28 6988   6.061   0.859   6.930  0.0954  0.3743 -0.3916
   77SLPC   H8R 6989   5.966   0.882   6.875  0.0152 -1.6419 -1.1675
   77SLPC   H8S 6990   6.031   0.765   6.980 -1.7083  0.8058 -0.5681
   77SLPC   C29 6991   6.168   0.830   6.832 -0.2607 -0.2057 -0.1838
   77SLPC   H9R 6992   6.165   0.902   6.749  0.1581  1.9789  1.6081
   77SLPC  C210 6993   6.273   0.743   6.848  0.4874  0.6707 -0.1909
   77SLPC  H10R 6994   6.347   0.745   6.767  0.8171 -1.4058  0.0113
   77SLPC  C211 6995   6.282   0.649   6.968 -0.2654 -0.3369  0.3541
   77SLPC  H11R 6996   6.210   0.667   7.051 -0.6599  0.6663 -0.1907
   77SLPC  H11S 6997   6.386   0.661   7.007  0.0766  2.3458 -1.1582
   77SLPC  C212 6998   6.272   0.501   6.938  0.1310  0.3579  0.0426
   77SLPC  H12R 6999   6.242   0.476   6.836  0.6363  1.2835 -0.3482
   77SLPC  C213 7000   6.287   0.407   7.033  0.4411  0.9444 -0.8152
   77SLPC  H13R 7001   6.272   0.302   7.006  0.6266  0.4188  0.9895
   77SLPC  C214 7002   6.317   0.423   7.183 -0.3260 -0.5699  0.0383
   77SLPC  H14R 7003   6.351   0.525   7.210 -0.0447 -0.1689 -1.7206
   77SLPC  H14S 7004   6.402   0.358   7.213  2.4929  1.8792 -2.0106
   77SLPC  C215 7005   6.187   0.399   7.263  0.4202 -0.0142  0.4481
   77SLPC  H15R 7006   6.172   0.289   7.273 -1.5279  0.1232 -0.4122
   77SLPC  H15S 7007   6.096   0.441   7.215  0.5083  1.2378  1.3289
   77SLPC  C216 7008   6.187   0.448   7.405  0.0533 -0.6690 -0.1596
   77SLPC  H16R 7009   6.093   0.444   7.464  1.5738 -0.7315  2.4079
   77SLPC  H16S 7010   6.229   0.551   7.403 -1.5039  0.1516  3.0203
   77SLPC  C217 7011   6.277   0.361   7.497 -0.1791 -0.2823 -1.1591
   77SLPC  H17R 7012   6.381   0.381   7.463 -0.4424  4.3047  0.0494
   77SLPC  H17S 7013   6.259   0.252   7.488  0.6484 -0.7805  2.0614
   77SLPC  C218 7014   6.282   0.406   7.645 -0.3759  0.2376 -0.2412
   77SLPC  H18R 7015   6.289   0.516   7.654  0.4636  0.2170 -0.5493
   77SLPC  H18S 7016   6.369   0.369   7.703 -0.7729  0.6212  0.6131
   77SLPC  H18T 7017   6.188   0.374   7.694  0.5989 -2.9989 -0.2562
   77SLPC   C33 7018   6.925   1.593   7.031 -0.5130  0.4140 -0.1533
   77SLPC   H3X 7019   6.938   1.684   7.093  0.4072 -0.1097  0.4370
   77SLPC   H3Y 7020   7.003   1.522   7.067  1.2305  1.8521 -0.9220
   77SLPC   C34 7021   6.788   1.536   7.079 -0.5634  0.1121 -0.0549
   77SLPC   H4X 7022   6.746   1.449   7.025  0.6237  0.2665 -1.2747
   77SLPC   H4Y 7023   6.714   1.619   7.077  0.5206  1.2357  2.1559
   77SLPC   C35 7024   6.799   1.475   7.219 -0.2261 -0.2872 -0.2145
   77SLPC   H5X 7025   6.844   1.543   7.295 -0.7680 -0.0772 -0.0752
   77SLPC   H5Y 7026   6.873   1.392   7.217  1.2572  0.9668  0.5562
   77SLPC   C36 7027   6.671   1.415   7.269  0.1095 -0.0935  0.0320
   77SLPC   H6X 7028   6.695   1.342   7.349  1.8614  0.9181  0.4771
   77SLPC   H6Y 7029   6.623   1.360   7.185  1.5043 -1.2471 -0.0595
   77SLPC   C37 7030   6.575   1.519   7.320 -0.2769 -0.2856  0.2042
   77SLPC   H7X 7031   6.522   1.565   7.234  0.1721  1.1582  0.6656
   77SLPC   H7Y 7032   6.633   1.607   7.354  0.9138 -0.7175 -0.6437
   77SLPC   C38 7033   6.477   1.461   7.422  0.0037  0.7456  0.0257
   77SLPC   H8X 7034   6.533   1.434   7.514  0.0119 -0.5819 -0.3428
   77SLPC   H8Y 7035   6.431   1.372   7.373 -1.7405  0.9640  1.1752
   77SLPC   C39 7036   6.364   1.558   7.452 -0.7233  0.0114  0.5107
   77SLPC   H9X 7037   6.321   1.589   7.355  0.5160  2.3068  0.6342
   77SLPC   H9Y 7038   6.408   1.651   7.495  2.6987  0.4656 -3.3326
   77SLPC  C310 7039   6.237   1.504   7.531 -0.7484  0.5956  0.4713
   77SLPC  H10X 7040   6.184   1.432   7.464  2.2125  0.0038 -1.3913
   77SLPC  H10Y 7041   6.168   1.591   7.542 -1.3994 -0.0550  1.8466
   77SLPC  C311 7042   6.281   1.463   7.669  0.1933 -0.1818  0.0532
   77SLPC  H11X 7043   6.288   1.557   7.728 -0.5880 -0.3838  0.4876
   77SLPC  H11Y 7044   6.370   1.397   7.670  0.1557 -0.2386 -0.3833
   77SLPC  C312 7045   6.154   1.406   7.745 -0.5428  0.3228 -0.1379
   77SLPC  H12X 7046   6.122   1.306   7.710 -2.3643  1.2454 -1.2697
   77SLPC  H12Y 7047   6.069   1.477   7.730  0.6504  1.4263 -2.3419
   77SLPC  C313 7048   6.173   1.398   7.897  0.3331 -0.5383  0.2439
   77SLPC  H13X 7049   6.166   1.497   7.947  1.1395 -0.7339  0.7563
   77SLPC  H13Y 7050   6.265   1.344   7.925  0.7724 -0.0455 -0.2198
   77SLPC  C314 7051   6.045   1.328   7.949  0.1625  0.1410  0.8541
   77SLPC  H14X 7052   6.028   1.235   7.891 -0.7611  0.1808  1.0443
   77SLPC  H14Y 7053   5.961   1.392   7.917 -0.4252 -0.7366  0.6091
   77SLPC  C315 7054   6.032   1.302   8.101  0.3652  0.2362 -0.0438
   77SLPC  H15X 7055   6.077   1.370   8.176 -0.3676  0.3732  0.2819
   77SLPC  H15Y 7056   6.067   1.198   8.119 -0.2951  0.0034 -0.0423
   77SLPC  C316 7057   5.881   1.294   8.157  0.2982  1.1135  0.3925
   77SLPC  H16X 7058   5.873   1.208   8.227  0.7967  0.5991 -0.1749
   77SLPC  H16Y 7059   5.816   1.277   8.068  1.0954 -0.5221  0.0770
   77SLPC  C317 7060   5.834   1.421   8.223 -0.0650  0.6500  0.4656
   77SLPC  H17X 7061   5.904   1.443   8.307  2.5567 -0.2395 -1.3655
   77SLPC  H17Y 7062   5.734   1.408   8.270 -0.4951 -2.1843 -1.0199
   77SLPC  C318 7063   5.808   1.547   8.131  0.2312 -0.0483  0.1333
   77SLPC  H18X 7064   5.905   1.575   8.085  0.6327  0.6081  1.3189
   77SLPC  H18Y 7065   5.755   1.625   8.191 -2.9930 -3.0069  1.4755
   77SLPC  H18Z 7066   5.740   1.522   8.047  0.9606  0.7864 -0.7264
   78SLPC     N 7067   4.799   1.514   5.919  0.1460  0.0064  0.1447
   78SLPC   C13 7068   4.710   1.619   5.857 -0.1708 -0.1639 -0.0632
   78SLPC  H13A 7069   4.612   1.579   5.839  0.1866 -0.8778 -0.4789
   78SLPC  H13B 7070   4.700   1.710   5.916  2.5040  0.0717  0.1634
   78SLPC  H13C 7071   4.756   1.654   5.766  1.4017  1.4433  1.2589
   78SLPC   C14 7072   4.929   1.576   5.955  0.0154  0.5091 -0.4495
   78SLPC  H14A 7073   4.919   1.649   6.035 -2.3271 -1.1333  0.8834
   78SLPC  H14B 7074   4.996   1.504   6.001  1.2542  2.7526  1.5520
   78SLPC  H14C 7075   4.982   1.620   5.872 -0.8604  3.8266  0.5609
   78SLPC   C15 7076   4.822   1.402   5.813  0.4243 -0.6228 -0.8848
   78SLPC  H15A 7077   4.878   1.320   5.856 -0.2888 -0.7622 -0.1971
   78SLPC  H15B 7078   4.726   1.364   5.780 -0.7962  0.5697  1.0591
   78SLPC  H15C 7079   4.884   1.432   5.730  2.4961 -2.8073 -0.2517
   78SLPC   C12 7080   4.737   1.468   6.050  0.1281  0.0947  0.5372
   78SLPC  H12A 7081   4.776   1.368   6.062 -0.7174 -0.2374  0.6007
   78SLPC  H12B 7082   4.631   1.451   6.043  0.2091 -0.0281 -0.4356
   78SLPC   C11 7083   4.749   1.561   6.176  0.5162  0.0406  0.7528
   78SLPC  H11A 7084   4.856   1.565   6.204  0.9131 -1.4245 -0.4086
   78SLPC  H11B 7085   4.694   1.510   6.258 -0.0404  0.5605  0.7101
   78SLPC     P 7086   4.556   1.740   6.206 -0.4959 -0.1979 -0.0679
   78SLPC   O13 7087   4.537   1.883   6.171 -0.5186  0.3375 -0.2015
   78SLPC   O14 7088   4.458   1.639   6.151 -0.5575 -0.4368 -0.0285
   78SLPC   O12 7089   4.701   1.695   6.143 -0.0504  0.4994 -0.0925
   78SLPC   O11 7090   4.578   1.718   6.364  0.8813  0.2558  0.4453
   78SLPC    C1 7091   4.688   1.779   6.430 -0.2571  0.0325  0.3874
   78SLPC    HA 7092   4.763   1.824   6.362  0.4492  0.3156  1.3220
   78SLPC    HB 7093   4.653   1.858   6.500  1.3155  1.1398 -0.0107
   78SLPC    C2 7094   4.769   1.681   6.531 -0.7988  0.1935  0.1516
   78SLPC    HS 7095   4.804   1.607   6.456 -1.0526  1.0313 -0.8338
   78SLPC   O21 7096   4.682   1.618   6.627  0.1734 -0.1614  0.2941
   78SLPC   C21 7097   4.734   1.504   6.674 -0.7863 -0.3919 -0.1824
   78SLPC   O22 7098   4.824   1.441   6.615  0.0542 -0.7043  0.2078
   78SLPC   C22 7099   4.680   1.473   6.811 -0.4213 -0.6488 -0.4535
   78SLPC   H2R 7100   4.596   1.542   6.835 -0.0588 -0.9141  1.7190
   78SLPC   H2S 7101   4.627   1.375   6.806 -1.8820  0.0158  1.0168
   78SLPC    C3 7102   4.891   1.753   6.584 -0.3133  0.1435 -0.2364
   78SLPC    HX 7103   4.948   1.783   6.493  0.3297  0.7542  0.3580
   78SLPC    HY 7104   4.967   1.689   6.634  1.5779  1.7456 -0.8763
   78SLPC   O31 7105   4.854   1.866   6.662  1.0621 -0.7423  0.1446
   78SLPC   C31 7106   4.930   1.889   6.770  0.6984  0.1519  0.0733
   78SLPC   O32 7107   5.046   1.852   6.774 -0.0488  0.1916 -0.0588
   78SLPC   C32 7108   4.850   1.960   6.884  0.8046 -0.0513  0.1061
   78SLPC   H2X 7109   4.744   1.928   6.875 -0.1288  2.1876  2.0534
   78SLPC   H2Y 7110   4.859   2.070   6.870  0.3352  0.0008  0.1844
   78SLPC   C23 7111   4.783   1.472   6.918 -0.3093  0.1861  0.2953
   78SLPC   H3R 7112   4.858   1.553   6.904  1.7316 -1.7203 -0.3686
   78SLPC   H3S 7113   4.845   1.382   6.900 -0.8132  0.1102 -1.2105
   78SLPC   C24 7114   4.727   1.467   7.059 -0.0140  0.0285 -0.5051
   78SLPC   H4R 7115   4.671   1.373   7.081  0.0535  0.3261  1.0345
   78SLPC   H4S 7116   4.663   1.557   7.073  0.0977 -0.1264  1.1892
   78SLPC   C25 7117   4.834   1.477   7.161 -0.4306 -0.2522 -0.0815
   78SLPC   H5R 7118   4.914   1.544   7.123 -2.6968  1.8150 -1.5761
   78SLPC   H5S 7119   4.870   1.378   7.195  1.4300 -1.0441 -3.8538
   78SLPC   C26 7120   4.775   1.560   7.282  0.0928  0.3606  0.6907
   78SLPC   H6R 7121   4.704   1.501   7.344 -0.0880  0.7493  0.8537
   78SLPC   H6S 7122   4.725   1.654   7.251  0.6396  0.3853 -0.1842
   78SLPC   C27 7123   4.871   1.600   7.392 -0.4180 -0.2249  0.1913
   78SLPC   H7R 7124   4.961   1.645   7.346 -2.3515  1.5564 -2.0814
   78SLPC   H7S 7125   4.904   1.505   7.439  2.1232  0.2840 -0.4331
   78SLPC   C28 7126   4.821   1.709   7.479  0.5172 -0.2383 -0.4397
   78SLPC   H8R 7127   4.745   1.663   7.546 -0.7066  2.2286 -0.0186
   78SLPC   H8S 7128   4.767   1.785   7.419 -0.9363 -2.2353 -1.8084
   78SLPC   C29 7129   4.929   1.768   7.561 -0.7179  0.0396  0.1310
   78SLPC   H9R 7130   4.966   1.861   7.514 -0.5397 -0.9613 -1.8047
   78SLPC  C210 7131   4.989   1.723   7.670  0.3316  0.4584 -0.1087
   78SLPC  H10R 7132   5.071   1.781   7.715 -0.9569  1.7359  0.6852
   78SLPC  C211 7133   4.962   1.593   7.737  0.5430  0.2766  0.2714
   78SLPC  H11R 7134   5.062   1.551   7.759 -0.3870 -2.5560 -0.5617
   78SLPC  H11S 7135   4.926   1.517   7.665  1.5522 -0.3751  0.4458
   78SLPC  C212 7136   4.884   1.597   7.863 -0.5586 -0.4848 -0.4127
   78SLPC  H12R 7137   4.916   1.675   7.934 -0.7362 -0.5110 -0.3039
   78SLPC  C213 7138   4.769   1.530   7.885  0.3502  0.6987  0.4744
   78SLPC  H13R 7139   4.735   1.530   7.989 -1.6141 -0.0278 -0.1119
   78SLPC  C214 7140   4.691   1.439   7.790 -0.3729  0.2813  0.7176
   78SLPC  H14R 7141   4.725   1.458   7.686  1.9957  2.0316  1.7130
   78SLPC  H14S 7142   4.582   1.457   7.776 -0.3671 -0.5542 -0.4372
   78SLPC  C215 7143   4.706   1.292   7.829  0.3129  0.3069 -0.1432
   78SLPC  H15R 7144   4.809   1.253   7.809 -0.5089 -1.2735 -1.5216
   78SLPC  H15S 7145   4.645   1.236   7.755 -0.9088  1.3871  0.0171
   78SLPC  C216 7146   4.650   1.257   7.971  0.1260 -0.7989  0.0303
   78SLPC  H16R 7147   4.552   1.304   7.996 -1.4394 -4.3812  1.2618
   78SLPC  H16S 7148   4.723   1.293   8.047 -1.6937  0.4660  1.2663
   78SLPC  C217 7149   4.620   1.109   7.974 -0.7104  0.4381  0.1308
   78SLPC  H17R 7150   4.719   1.062   7.959 -1.6375 -3.3109  3.8619
   78SLPC  H17S 7151   4.556   1.082   7.887  1.5416 -2.8873 -0.6997
   78SLPC  C218 7152   4.569   1.058   8.108 -0.1485 -0.3413 -0.2948
   78SLPC  H18R 7153   4.634   1.078   8.196 -2.0185 -3.3638  2.0084
   78SLPC  H18S 7154   4.563   0.947   8.114  4.4129 -0.7375  1.2928
   78SLPC  H18T 7155   4.464   1.088   8.129 -0.0254  0.2901 -0.5629
   78SLPC   C33 7156   4.893   1.914   7.023 -0.1151 -0.2382 -0.2794
   78SLPC   H3X 7157   4.871   1.806   7.038  0.3935 -0.3473 -0.2934
   78SLPC   H3Y 7158   4.827   1.972   7.091 -0.6757 -2.5441  1.2681
   78SLPC   C34 7159   5.035   1.948   7.060 -0.0028 -0.4367 -0.5091
   78SLPC   H4X 7160   5.050   2.057   7.046  2.5529 -0.6045  0.2823
   78SLPC   H4Y 7161   5.099   1.896   6.985 -1.9603 -1.0961 -1.7931
   78SLPC   C35 7162   5.079   1.922   7.199  0.7918 -0.7778 -0.4307
   78SLPC   H5X 7163   5.092   1.813   7.217  2.5208 -0.2202  2.4259
   78SLPC   H5Y 7164   4.991   1.957   7.257  1.2845  1.5036 -0.9717
   78SLPC   C36 7165   5.217   1.993   7.230 -0.0180 -0.5188 -0.0504
   78SLPC   H6X 7166   5.213   2.099   7.198  0.0661 -0.0056  1.5157
   78SLPC   H6Y 7167   5.297   1.941   7.175 -0.8683 -0.4884 -1.3505
   78SLPC   C37 7168   5.239   1.996   7.382 -0.0209 -0.3230  0.2057
   78SLPC   H7X 7169   5.348   1.994   7.404 -0.0667 -0.2460  0.4420
   78SLPC   H7Y 7170   5.199   1.911   7.441  1.5586  0.0179  1.8946
   78SLPC   C38 7171   5.183   2.131   7.445 -0.5470 -0.2189  0.5240
   78SLPC   H8X 7172   5.076   2.138   7.417 -0.4096 -0.7259 -0.1554
   78SLPC   H8Y 7173   5.237   2.222   7.410  0.3992  0.3125  3.1291
   78SLPC   C39 7174   5.184   2.130   7.598  0.2767  0.2492 -0.0657
   78SLPC   H9X 7175   5.284   2.087   7.621 -0.1429 -0.0561  1.2557
   78SLPC   H9Y 7176   5.111   2.058   7.639  1.1584 -0.3888  0.4076
   78SLPC  C310 7177   5.169   2.274   7.652  0.0535  0.3214  0.1322
   78SLPC  H10X 7178   5.090   2.343   7.616 -0.0952  0.3250  0.4596
   78SLPC  H10Y 7179   5.252   2.336   7.613 -0.1835  0.2960 -0.4174
   78SLPC  C311 7180   5.175   2.277   7.807 -0.1508  0.4887  0.7048
   78SLPC  H11X 7181   5.232   2.187   7.839 -1.1193 -0.8613 -1.2310
   78SLPC  H11Y 7182   5.075   2.247   7.846  0.1302  1.5921  2.3792
   78SLPC  C312 7183   5.219   2.420   7.864  0.2251 -0.1057 -0.8122
   78SLPC  H12X 7184   5.165   2.496   7.804  0.4187 -0.3187 -1.2570
   78SLPC  H12Y 7185   5.328   2.435   7.847  0.6616 -0.3002  1.5004
   78SLPC  C313 7186   5.200   2.444   8.016 -0.7254  0.3365 -0.2355
   78SLPC  H13X 7187   5.090   2.439   8.036 -0.2569 -3.9851  2.6226
   78SLPC  H13Y 7188   5.242   2.539   8.055 -1.8622  0.6953  0.1518
   78SLPC  C314 7189   5.246   2.329   8.101  0.2071  1.2140 -0.3612
   78SLPC  H14X 7190   5.354   2.310   8.088  0.5929  0.4360  3.1493
   78SLPC  H14Y 7191   5.204   2.232   8.069  1.5526  1.1120 -1.9287
   78SLPC  C315 7192   5.216   2.362   8.250  0.2104 -0.1218 -0.4513
   78SLPC  H15X 7193   5.107   2.376   8.269  0.3596 -1.1197  1.3969
   78SLPC  H15Y 7194   5.272   2.455   8.274  1.7716 -1.2267  0.3857
   78SLPC  C316 7195   5.260   2.247   8.347  0.0809 -0.9804  0.4331
   78SLPC  H16X 7196   5.371   2.248   8.352  0.0363 -0.4524  1.7493
   78SLPC  H16Y 7197   5.216   2.155   8.301 -0.3226  0.4452 -2.2166
   78SLPC  C317 7198   5.198   2.243   8.488 -0.2881  0.0359  0.1031
   78SLPC  H17X 7199   5.087   2.246   8.484 -0.5784 -3.2427  1.8793
   78SLPC  H17Y 7200   5.237   2.332   8.542 -0.2089  1.0753 -1.5983
   78SLPC  C318 7201   5.215   2.111   8.555  0.3050  0.0216 -0.1165
   78SLPC  H18X 7202   5.140   2.040   8.513  0.8414  0.1965 -1.4423
   78SLPC  H18Y 7203   5.212   2.106   8.666 -0.4121 -3.5661 -0.1709
   78SLPC  H18Z 7204   5.315   2.070   8.528 -0.1938 -1.1837 -0.2184
   79SLPC     N 7205   6.558   2.883   6.033  0.5339 -0.4549 -0.0061
   79SLPC   C13 7206   6.437   2.799   6.066  0.5391 -0.2386 -0.3094
   79SLPC  H13A 7207   6.365   2.834   6.138 -1.7214 -3.6418 -0.7214
   79SLPC  H13B 7208   6.380   2.787   5.975  2.6072  0.4052 -1.7699
   79SLPC  H13C 7209   6.467   2.702   6.102  0.6597 -0.4782 -1.0480
   79SLPC   C14 7210   6.492   3.009   5.980 -0.0888 -0.4652  0.3074
   79SLPC  H14A 7211   6.438   3.001   5.887 -0.4826  1.0987  0.3745
   79SLPC  H14B 7212   6.440   3.070   6.053  2.6877  0.6662  1.5035
   79SLPC  H14C 7213   6.568   3.082   5.956  0.1599 -1.2656 -1.4957
   79SLPC   C15 7214   6.632   2.820   5.925  0.5145  0.1341 -0.2903
   79SLPC  H15A 7215   6.572   2.800   5.838  1.3760 -2.7672 -0.3298
   79SLPC  H15B 7216   6.708   2.890   5.891  1.5968 -1.3805 -1.1021
   79SLPC  H15C 7217   6.687   2.732   5.954  0.0961 -0.4380 -1.2045
   79SLPC   C12 7218   6.637   2.929   6.159  0.0391 -0.4662  0.2208
   79SLPC  H12A 7219   6.687   2.837   6.184  1.3517  0.6262  1.8258
   79SLPC  H12B 7220   6.569   2.944   6.242 -1.7885  1.3536 -1.4999
   79SLPC   C11 7221   6.738   3.046   6.134  0.7119  0.4114 -0.2831
   79SLPC  H11A 7222   6.789   3.026   6.037 -0.7544 -0.6224 -0.8871
   79SLPC  H11B 7223   6.801   3.037   6.225 -1.9874  0.4563  1.7349
   79SLPC     P 7224   6.740   3.306   6.200 -0.3403  0.1005  0.0971
   79SLPC   O13 7225   6.768   3.395   6.084 -0.7176 -0.2329 -0.4680
   79SLPC   O14 7226   6.661   3.366   6.311 -0.0362  0.2051  0.2520
   79SLPC   O12 7227   6.673   3.180   6.133 -1.1107  0.5312 -0.3235
   79SLPC   O11 7228   6.878   3.256   6.255 -0.0974  0.1449  0.0557
   79SLPC    C1 7229   6.906   3.221   6.393 -0.0803 -0.6056 -0.0779
   79SLPC    HA 7230   6.834   3.149   6.436 -0.1186  1.4682  3.7364
   79SLPC    HB 7231   7.003   3.168   6.407  1.1526  2.1976  3.2973
   79SLPC    C2 7232   6.931   3.340   6.485  0.3700  0.4234  0.3004
   79SLPC    HS 7233   6.868   3.421   6.445 -2.1838 -2.0031 -0.9513
   79SLPC   O21 7234   7.073   3.378   6.475 -0.7041 -0.4514  0.6511
   79SLPC   C21 7235   7.101   3.509   6.506 -0.7307 -0.1924 -0.3954
   79SLPC   O22 7236   7.015   3.595   6.520 -0.0424 -0.0862 -0.0415
   79SLPC   C22 7237   7.252   3.520   6.529  0.6938 -0.5565  0.1633
   79SLPC   H2R 7238   7.281   3.418   6.563 -0.5539 -0.6305  1.0827
   79SLPC   H2S 7239   7.290   3.557   6.431 -2.6896  2.7874 -0.1395
   79SLPC    C3 7240   6.883   3.306   6.629 -0.3769  0.6220 -0.7074
   79SLPC    HX 7241   6.923   3.206   6.658 -2.5788 -0.1430 -0.0909
   79SLPC    HY 7242   6.775   3.297   6.608 -0.3731  1.5472 -1.1356
   79SLPC   O31 7243   6.915   3.416   6.723 -0.1897  0.7519 -0.2745
   79SLPC   C31 7244   6.829   3.410   6.826 -1.1084  0.4307  0.1630
   79SLPC   O32 7245   6.758   3.309   6.850 -0.0242 -0.5581  0.0667
   79SLPC   C32 7246   6.832   3.541   6.905  0.2561  0.2466 -0.5281
   79SLPC   H2X 7247   6.732   3.547   6.952 -0.1688  1.0355 -1.4900
   79SLPC   H2Y 7248   6.847   3.625   6.833  0.8509 -0.2918 -1.0393
   79SLPC   C23 7249   7.296   3.617   6.633  0.4226  0.0593 -0.4090
   79SLPC   H3R 7250   7.240   3.712   6.646  1.6444  0.6595  0.6230
   79SLPC   H3S 7251   7.397   3.647   6.599  0.4648 -1.4591 -1.7844
   79SLPC   C24 7252   7.312   3.558   6.774  0.4323 -0.6941 -0.3753
   79SLPC   H4R 7253   7.387   3.477   6.772  2.9022  1.4134  0.6095
   79SLPC   H4S 7254   7.215   3.520   6.813  1.5909 -0.9854  2.4666
   79SLPC   C25 7255   7.371   3.663   6.868 -0.7089 -0.3398  0.2177
   79SLPC   H5R 7256   7.305   3.752   6.862 -0.4239 -0.1842 -0.8215
   79SLPC   H5S 7257   7.467   3.703   6.828 -0.5974 -0.8800 -0.0609
   79SLPC   C26 7258   7.381   3.611   7.014  0.8825 -0.4358 -0.2298
   79SLPC   H6R 7259   7.420   3.507   7.014 -1.7980 -1.5479  0.0106
   79SLPC   H6S 7260   7.277   3.602   7.053  1.5639 -2.0948  1.3203
   79SLPC   C27 7261   7.456   3.693   7.118 -0.5988  0.0508  0.3678
   79SLPC   H7R 7262   7.413   3.795   7.118 -0.7615  0.0538  3.1355
   79SLPC   H7S 7263   7.559   3.699   7.075 -0.1143  2.7055  1.7220
   79SLPC   C28 7264   7.471   3.643   7.260  0.2919 -0.4493 -0.0719
   79SLPC   H8R 7265   7.539   3.713   7.313 -1.2347  0.8740  0.2444
   79SLPC   H8S 7266   7.504   3.537   7.261 -2.0213 -1.2388  1.1158
   79SLPC   C29 7267   7.345   3.644   7.342  1.1489 -0.1403 -0.5941
   79SLPC   H9R 7268   7.256   3.636   7.278  0.0076  1.1848  0.7553
   79SLPC  C210 7269   7.328   3.654   7.475  0.1363 -0.2199  0.1608
   79SLPC  H10R 7270   7.227   3.663   7.519 -0.0132 -0.0948 -0.1997
   79SLPC  C211 7271   7.435   3.652   7.585  0.2120 -0.0003 -0.4481
   79SLPC  H11R 7272   7.540   3.657   7.549  0.3978 -1.4799 -0.1436
   79SLPC  H11S 7273   7.428   3.558   7.643 -2.3812  1.3385  1.6333
   79SLPC  C212 7274   7.414   3.769   7.674 -0.7343 -0.6083  0.6004
   79SLPC  H12R 7275   7.443   3.867   7.633 -1.2584  0.1850  2.0544
   79SLPC  C213 7276   7.356   3.766   7.797  0.8934  0.6884  0.6159
   79SLPC  H13R 7277   7.331   3.856   7.854  0.9340 -0.0567  1.8549
   79SLPC  C214 7278   7.295   3.646   7.874 -0.3125 -0.0825  0.6145
   79SLPC  H14R 7279   7.320   3.556   7.815 -2.0507  0.0554 -0.3856
   79SLPC  H14S 7280   7.186   3.649   7.893  0.0085 -0.7748  2.9306
   79SLPC  C215 7281   7.363   3.627   8.007 -0.1300 -0.2662  0.0741
   79SLPC  H15R 7282   7.474   3.630   8.002 -0.2180  0.6208 -2.3846
   79SLPC  H15S 7283   7.349   3.525   8.048 -0.5653  0.2533  1.2671
   79SLPC  C216 7284   7.299   3.723   8.115  0.1597 -0.4723  0.1586
   79SLPC  H16R 7285   7.191   3.699   8.123 -0.1765  1.3943  1.7396
   79SLPC  H16S 7286   7.309   3.830   8.090 -0.9853  0.2087  2.3896
   79SLPC  C217 7287   7.351   3.711   8.255  0.4253 -0.3239 -1.3482
   79SLPC  H17R 7288   7.455   3.750   8.255 -0.6478  2.7623 -1.2292
   79SLPC  H17S 7289   7.346   3.602   8.277  2.1189 -0.7713 -2.8656
   79SLPC  C218 7290   7.279   3.798   8.362 -0.3174  0.5728  0.0969
   79SLPC  H18R 7291   7.288   3.907   8.345 -0.6909  0.5100 -0.5566
   79SLPC  H18S 7292   7.316   3.780   8.465  1.5913 -0.1133 -0.6617
   79SLPC  H18T 7293   7.172   3.767   8.357 -0.6329  1.5703  0.4350
   79SLPC   C33 7294   6.942   3.537   7.018 -0.1463  0.1419  0.2524
   79SLPC   H3X 7295   6.963   3.639   7.056  2.9706 -0.8933  1.6553
   79SLPC   H3Y 7296   7.029   3.506   6.956  0.9700  4.1805 -0.4936
   79SLPC   C34 7297   6.903   3.428   7.118 -0.4207 -0.6439  0.2027
   79SLPC   H4X 7298   6.922   3.326   7.078 -3.2939 -0.6365 -1.5012
   79SLPC   H4Y 7299   6.795   3.430   7.144 -0.5944  1.8396 -0.3905
   79SLPC   C35 7300   6.978   3.441   7.254  0.5967 -0.2223  0.1422
   79SLPC   H5X 7301   7.030   3.538   7.242  1.4307 -0.2940  2.6421
   79SLPC   H5Y 7302   7.060   3.368   7.272  2.2014  1.2877 -0.7171
   79SLPC   C36 7303   6.883   3.438   7.376 -0.6889 -0.2233  0.5322
   79SLPC   H6X 7304   6.838   3.338   7.394 -2.8410  0.1406 -2.1600
   79SLPC   H6Y 7305   6.796   3.506   7.365 -0.3775  0.3224  1.3415
   79SLPC   C37 7306   6.963   3.486   7.497  0.4888 -0.1367 -0.9631
   79SLPC   H7X 7307   7.011   3.584   7.478  1.4077 -0.4549 -0.3353
   79SLPC   H7Y 7308   7.042   3.413   7.524 -0.5353 -0.8801  0.1395
   79SLPC   C38 7309   6.863   3.503   7.613  0.5913  0.0745  0.4020
   79SLPC   H8X 7310   6.811   3.405   7.619 -0.0681  0.1719 -2.4945
   79SLPC   H8Y 7311   6.774   3.561   7.581  1.1095 -0.0466 -1.3501
   79SLPC   C39 7312   6.924   3.535   7.750 -0.2893  0.1188  0.0634
   79SLPC   H9X 7313   6.993   3.621   7.732  0.6076 -0.8839 -1.5401
   79SLPC   H9Y 7314   6.977   3.446   7.791  0.3649  1.3787  2.1051
   79SLPC  C310 7315   6.824   3.590   7.861 -0.0918 -0.4849  0.2161
   79SLPC  H10X 7316   6.745   3.514   7.875 -0.6484  0.0063 -0.2168
   79SLPC  H10Y 7317   6.776   3.677   7.811 -0.9003 -1.6219 -1.0578
   79SLPC  C311 7318   6.886   3.634   7.994  0.3198 -0.0761  0.4040
   79SLPC  H11X 7319   6.960   3.717   7.994 -0.1369  0.3531 -0.6641
   79SLPC  H11Y 7320   6.935   3.542   8.032  0.4003 -1.4335 -2.6657
   79SLPC  C312 7321   6.776   3.683   8.095  0.1966 -0.0287  0.3130
   79SLPC  H12X 7322   6.693   3.610   8.090  1.1066 -1.0368 -0.2418
   79SLPC  H12Y 7323   6.743   3.785   8.064 -0.7787 -0.1366  0.9598
   79SLPC  C313 7324   6.839   3.687   8.234  0.0117  0.5136  0.2984
   79SLPC  H13X 7325   6.941   3.731   8.234 -0.2987  1.3661  2.3575
   79SLPC  H13Y 7326   6.848   3.581   8.265  1.1860  0.1921 -1.0480
   79SLPC  C314 7327   6.761   3.752   8.351  0.6578 -0.0150  0.1492
   79SLPC  H14X 7328   6.686   3.680   8.390  0.1461  1.1179  1.3308
   79SLPC  H14Y 7329   6.701   3.839   8.315 -1.2710 -0.7020  1.5699
   79SLPC  C315 7330   6.852   3.798   8.470 -0.3068  0.0220 -0.9093
   79SLPC  H15X 7331   6.930   3.873   8.446 -0.0815 -0.4445 -1.6958
   79SLPC  H15Y 7332   6.906   3.706   8.502  1.9165  0.5055 -3.0172
   79SLPC  C316 7333   6.772   3.842   8.589 -0.2561  0.1516 -0.1549
   79SLPC  H16X 7334   6.695   3.768   8.620 -1.0012  0.1666 -1.8502
   79SLPC  H16Y 7335   6.709   3.930   8.562 -1.7926 -1.1781 -1.0463
   79SLPC  C317 7336   6.850   3.871   8.708 -0.0781  0.0673  0.2470
   79SLPC  H17X 7337   6.918   3.956   8.685 -1.0397  0.7675 -0.0366
   79SLPC  H17Y 7338   6.908   3.787   8.753  2.2502  0.7310 -1.2962
   79SLPC  C318 7339   6.764   3.919   8.821 -0.6094 -0.9105 -0.5538
   79SLPC  H18X 7340   6.694   3.836   8.848 -0.3056 -1.0772 -0.2706
   79SLPC  H18Y 7341   6.717   4.018   8.808  0.8844 -0.0813  0.1201
   79SLPC  H18Z 7342   6.821   3.925   8.916  0.9364 -2.6580 -1.3095
   80SLPC     N 7343   2.666   1.276   6.293 -0.0620 -0.0693 -0.5517
   80SLPC   C13 7344   2.705   1.288   6.150  0.9721  0.4202 -0.6754
   80SLPC  H13A 7345   2.720   1.191   6.107  1.8870  1.1923 -2.1914
   80SLPC  H13B 7346   2.631   1.340   6.091  2.2278  4.4295  0.8862
   80SLPC  H13C 7347   2.790   1.351   6.127  1.7481 -0.3297  0.0741
   80SLPC   C14 7348   2.651   1.416   6.345 -0.1890  0.2928  0.3804
   80SLPC  H14A 7349   2.750   1.460   6.354  0.2005  0.7654 -4.2064
   80SLPC  H14B 7350   2.586   1.468   6.277 -0.7290  0.6641  1.1599
   80SLPC  H14C 7351   2.598   1.414   6.439 -1.3592  1.9764 -0.1943
   80SLPC   C15 7352   2.780   1.228   6.379 -0.1176  0.1651  0.4600
   80SLPC  H15A 7353   2.833   1.141   6.345 -1.4082  0.7186 -3.3950
   80SLPC  H15B 7354   2.864   1.295   6.384 -0.5609  0.7305  0.4646
   80SLPC  H15C 7355   2.746   1.210   6.480  0.8528 -1.8560  0.4748
   80SLPC   C12 7356   2.547   1.180   6.309  0.8567  0.0736 -0.4781
   80SLPC  H12A 7357   2.525   1.183   6.415 -1.4555  1.8314 -0.9187
   80SLPC  H12B 7358   2.582   1.082   6.283 -1.7969 -1.2150  0.3908
   80SLPC   C11 7359   2.418   1.219   6.222  0.1296  0.4464 -0.5130
   80SLPC  H11A 7360   2.355   1.128   6.220  1.1537 -0.2680 -2.0558
   80SLPC  H11B 7361   2.461   1.241   6.122  1.7024  1.7251  0.3842
   80SLPC     P 7362   2.262   1.335   6.403  0.1568  0.2316 -0.2191
   80SLPC   O13 7363   2.269   1.461   6.468 -0.3701 -0.7020 -0.0874
   80SLPC   O14 7364   2.129   1.295   6.366 -0.2349 -0.3140 -0.5266
   80SLPC   O12 7365   2.354   1.338   6.270  0.0232 -0.0601  0.2019
   80SLPC   O11 7366   2.322   1.226   6.500  0.5446  0.6604 -0.4604
   80SLPC    C1 7367   2.249   1.198   6.618 -0.7301  0.2315 -1.1585
   80SLPC    HA 7368   2.309   1.222   6.709 -1.7997  0.9568 -0.6311
   80SLPC    HB 7369   2.162   1.266   6.630 -0.2215  0.5254  1.3336
   80SLPC    C2 7370   2.204   1.051   6.629  0.3963  0.5028 -0.2066
   80SLPC    HS 7371   2.132   1.027   6.548  0.9605  1.4897 -1.0290
   80SLPC   O21 7372   2.139   1.035   6.759 -0.0598 -0.0839 -0.5730
   80SLPC   C21 7373   2.099   0.903   6.794 -0.3571 -0.3145 -0.0416
   80SLPC   O22 7374   2.100   0.807   6.719 -0.3234 -0.3698  0.0844
   80SLPC   C22 7375   2.061   0.886   6.940  0.2578  0.1414 -0.7483
   80SLPC   H2R 7376   2.101   0.973   6.996 -0.3186 -1.3523  2.1757
   80SLPC   H2S 7377   1.950   0.898   6.944  0.4170  1.4742  0.2457
   80SLPC    C3 7378   2.330   0.950   6.614 -0.4207 -0.6520 -0.5332
   80SLPC    HX 7379   2.382   0.981   6.521  1.3806  1.1631  1.0007
   80SLPC    HY 7380   2.297   0.845   6.602 -1.6536 -0.5572  1.5278
   80SLPC   O31 7381   2.424   0.965   6.728  0.4499 -0.1601  0.2233
   80SLPC   C31 7382   2.547   1.005   6.700 -0.0801  0.1920 -0.5397
   80SLPC   O32 7383   2.598   1.027   6.590 -0.2872  0.6004 -0.0244
   80SLPC   C32 7384   2.624   1.009   6.838 -0.0101 -0.0060  0.7161
   80SLPC   H2X 7385   2.707   1.081   6.825  2.1618 -2.3312  0.8435
   80SLPC   H2Y 7386   2.669   0.909   6.855  0.5403  0.4936  2.3860
   80SLPC   C23 7387   2.088   0.746   6.995 -0.1783  1.1802  0.0696
   80SLPC   H3R 7388   2.186   0.698   6.974 -0.5342  0.6296 -0.3854
   80SLPC   H3S 7389   2.019   0.678   6.940  1.0456  1.6855 -2.2398
   80SLPC   C24 7390   2.089   0.740   7.153  0.6966  0.3913  0.4455
   80SLPC   H4R 7391   2.172   0.804   7.191  1.0071  0.0318  0.3754
   80SLPC   H4S 7392   2.110   0.640   7.196 -0.9249 -0.3631 -0.4385
   80SLPC   C25 7393   1.962   0.802   7.220 -0.7741  0.0494 -0.0111
   80SLPC   H5R 7394   1.865   0.774   7.173  0.5607  0.0067 -2.9909
   80SLPC   H5S 7395   1.966   0.912   7.210 -0.9400  0.0299 -0.3208
   80SLPC   C26 7396   1.987   0.778   7.376 -0.3606 -0.1531 -0.0392
   80SLPC   H6R 7397   2.058   0.861   7.395 -2.0466  0.9552  1.8133
   80SLPC   H6S 7398   2.021   0.675   7.398 -1.1112 -0.2798  0.5734
   80SLPC   C27 7399   1.870   0.818   7.471  0.1674 -0.3690 -0.5870
   80SLPC   H7R 7400   1.900   0.818   7.578  0.8570  2.1631 -0.7121
   80SLPC   H7S 7401   1.808   0.726   7.463 -1.9357  0.8770  0.7149
   80SLPC   C28 7402   1.789   0.939   7.431 -0.1730  0.6665  0.2778
   80SLPC   H8R 7403   1.748   0.929   7.328  0.7681 -2.7300  0.1184
   80SLPC   H8S 7404   1.852   1.030   7.431 -1.3797  1.6729 -3.4733
   80SLPC   C29 7405   1.681   0.948   7.540 -0.0938 -0.0331  0.0778
   80SLPC   H9R 7406   1.592   0.894   7.505 -0.2046  0.3339 -0.2170
   80SLPC  C210 7407   1.693   1.010   7.664  0.5765  0.1731 -0.0997
   80SLPC  H10R 7408   1.612   0.995   7.736  0.7706  1.1995  0.3372
   80SLPC  C211 7409   1.809   1.094   7.714 -0.0485  0.2453  0.1278
   80SLPC  H11R 7410   1.872   1.116   7.625  1.4030  1.1007  1.3102
   80SLPC  H11S 7411   1.872   1.021   7.770 -0.6981 -1.0312 -0.7591
   80SLPC  C212 7412   1.792   1.222   7.789 -0.3251 -0.0335  0.0941
   80SLPC  H12R 7413   1.756   1.305   7.726  2.0477 -0.3498 -1.7921
   80SLPC  C213 7414   1.828   1.248   7.916 -0.0363 -0.4699  0.3574
   80SLPC  H13R 7415   1.800   1.344   7.961  0.8572 -1.0776  2.2798
   80SLPC  C214 7416   1.884   1.150   8.013 -0.2777 -0.2224  0.2551
   80SLPC  H14R 7417   1.959   1.095   7.953 -1.2105 -2.0512  0.6899
   80SLPC  H14S 7418   1.805   1.073   8.026 -0.4048 -0.0882  0.2835
   80SLPC  C215 7419   1.944   1.195   8.142 -0.0458 -0.7795  0.1206
   80SLPC  H15R 7420   1.945   1.114   8.219 -1.8023 -0.0259  0.9778
   80SLPC  H15S 7421   1.891   1.281   8.187  1.5049 -0.3289  1.1784
   80SLPC  C216 7422   2.093   1.243   8.125  0.3219  0.2413 -0.1480
   80SLPC  H16R 7423   2.081   1.332   8.059  0.1990  2.2713  2.4269
   80SLPC  H16S 7424   2.156   1.170   8.071 -1.8342 -0.8855 -1.2412
   80SLPC  C217 7425   2.162   1.305   8.246  0.2681 -0.1810 -0.3857
   80SLPC  H17R 7426   2.103   1.381   8.302 -2.5038 -3.4403  1.5193
   80SLPC  H17S 7427   2.253   1.350   8.201  1.1761 -1.5247  0.0205
   80SLPC  C218 7428   2.224   1.193   8.342 -0.7440  0.5633  0.0089
   80SLPC  H18R 7429   2.148   1.166   8.418 -1.4178  0.5931 -0.6454
   80SLPC  H18S 7430   2.303   1.246   8.400 -2.0238  0.4770  1.9353
   80SLPC  H18T 7431   2.270   1.103   8.296  2.1723  1.2385  1.3183
   80SLPC   C33 7432   2.540   1.065   6.958  0.3118  0.1242  0.3894
   80SLPC   H3X 7433   2.431   1.081   6.942  0.3429  0.8556  0.8416
   80SLPC   H3Y 7434   2.581   1.168   6.970  0.7775  0.2241 -1.6646
   80SLPC   C34 7435   2.559   0.995   7.090 -0.4709 -0.4258  0.0603
   80SLPC   H4X 7436   2.668   0.988   7.109 -0.4406  1.3984  0.6956
   80SLPC   H4Y 7437   2.516   0.893   7.087  1.9683 -1.4953 -1.5587
   80SLPC   C35 7438   2.500   1.072   7.207 -0.1521 -0.6514  0.1824
   80SLPC   H5X 7439   2.392   1.074   7.181 -0.6571  0.1150  2.1767
   80SLPC   H5Y 7440   2.538   1.176   7.213 -1.2135 -0.2675  0.4372
   80SLPC   C36 7441   2.513   0.989   7.336 -0.6335  0.6644  0.0152
   80SLPC   H6X 7442   2.592   1.024   7.406 -0.5569 -2.3846  1.6138
   80SLPC   H6Y 7443   2.546   0.889   7.302  2.1699  0.6427  2.3805
   80SLPC   C37 7444   2.382   0.988   7.416  0.0498  0.1211  0.4958
   80SLPC   H7X 7445   2.301   0.939   7.357 -0.3538  1.7147 -0.3139
   80SLPC   H7Y 7446   2.348   1.090   7.442  1.4172  1.2252 -1.7387
   80SLPC   C38 7447   2.403   0.900   7.542  0.0735  0.1462 -0.4815
   80SLPC   H8X 7448   2.492   0.939   7.596  0.9833  0.0578 -1.8921
   80SLPC   H8Y 7449   2.410   0.795   7.507  2.6926  0.1140 -0.0573
   80SLPC   C39 7450   2.280   0.909   7.639 -0.2194 -0.3912 -0.3165
   80SLPC   H9X 7451   2.188   0.894   7.578 -0.1985  1.2590 -0.7911
   80SLPC   H9Y 7452   2.267   1.014   7.672 -2.3617 -0.9938  1.0128
   80SLPC  C310 7453   2.286   0.821   7.765  0.2885  0.6775 -0.5145
   80SLPC  H10X 7454   2.376   0.854   7.821 -0.7540  1.3221  0.8352
   80SLPC  H10Y 7455   2.294   0.714   7.737  0.2920  0.4751  0.2255
   80SLPC  C311 7456   2.157   0.834   7.853  0.2003  0.1787 -0.4334
   80SLPC  H11X 7457   2.063   0.834   7.794  0.5560  0.0745 -1.0038
   80SLPC  H11Y 7458   2.161   0.932   7.906 -0.8063 -0.2295  0.4428
   80SLPC  C312 7459   2.125   0.733   7.968 -0.5843  0.0073  0.4270
   80SLPC  H12X 7460   2.224   0.718   8.016  1.1768 -1.0235 -3.1425
   80SLPC  H12Y 7461   2.101   0.640   7.912  0.6770  0.1494 -0.3848
   80SLPC  C313 7462   2.009   0.782   8.057  0.4343 -0.0969 -0.2991
   80SLPC  H13X 7463   1.920   0.799   7.991  0.6060  0.3481 -0.4170
   80SLPC  H13Y 7464   2.027   0.876   8.113 -1.4706  0.4768 -0.5455
   80SLPC  C314 7465   1.980   0.677   8.171  0.5168 -0.0073 -0.0196
   80SLPC  H14X 7466   2.081   0.636   8.196  0.9678  1.0970  0.0327
   80SLPC  H14Y 7467   1.920   0.604   8.113  0.3735  1.5085 -1.8932
   80SLPC  C315 7468   1.903   0.719   8.297 -0.3630  0.1935  0.2842
   80SLPC  H15X 7469   1.867   0.635   8.361 -2.9326  0.8840 -0.1348
   80SLPC  H15Y 7470   1.812   0.767   8.255 -0.7513 -0.1603  0.7081
   80SLPC  C316 7471   1.977   0.826   8.381 -0.3784 -1.3773 -0.3368
   80SLPC  H16X 7472   1.893   0.890   8.415  1.1166  0.6247 -0.2581
   80SLPC  H16Y 7473   2.044   0.890   8.321 -2.4538  0.2552 -1.0640
   80SLPC  C317 7474   2.045   0.764   8.510  0.3297 -0.1965 -0.1934
   80SLPC  H17X 7475   1.955   0.748   8.572 -0.9736 -1.0241 -2.1953
   80SLPC  H17Y 7476   2.104   0.846   8.556 -0.9934 -0.4608  2.1250
   80SLPC  C318 7477   2.129   0.636   8.484  0.3650 -0.1302 -0.2292
   80SLPC  H18X 7478   2.161   0.583   8.577 -0.2484  1.5865  1.0135
   80SLPC  H18Y 7479   2.221   0.670   8.431  2.3560 -3.2291  0.9627
   80SLPC  H18Z 7480   2.080   0.563   8.417 -0.0483  0.7165 -0.8698
   81SAPS     N 7481   4.331   2.518  10.995 -0.4334 -0.3202  0.3256
   81SAPS   HN1 7482   4.408   2.494  10.931  1.2636 -1.2336  2.5770
   81SAPS   HN2 7483   4.257   2.583  10.960 -0.1944  0.2908  0.9163
   81SAPS   HN3 7484   4.384   2.574  11.065  0.6131  1.4155 -1.7334
   81SAPS   C12 7485   4.266   2.399  11.049  0.7238  0.6014 -0.5357
   81SAPS  H12A 7486   4.323   2.349  11.125  0.2149 -1.0992 -1.2387
   81SAPS   C13 7487   4.137   2.443  11.124  0.3749 -0.1916 -0.1468
   81SAPS  O13A 7488   4.117   2.563  11.168 -0.3592 -0.7133 -0.0122
   81SAPS  O13B 7489   4.065   2.345  11.152  0.5145  0.3933  0.1054
   81SAPS   C11 7490   4.216   2.313  10.932 -0.5513 -0.1851 -0.3866
   81SAPS  H11A 7491   4.150   2.374  10.866 -0.0029 -0.0809 -0.8401
   81SAPS  H11B 7492   4.147   2.234  10.969  0.3193 -1.2508 -0.9824
   81SAPS     P 7493   4.388   2.128  10.868  0.4198  0.1140 -0.1024
   81SAPS   O13 7494   4.508   2.125  10.956  0.5358  0.0971 -0.2978
   81SAPS   O14 7495   4.281   2.033  10.909  0.0258 -0.2366  0.4995
   81SAPS   O12 7496   4.332   2.272  10.865  0.4820 -0.4791  0.4476
   81SAPS   O11 7497   4.425   2.094  10.714  0.0133 -0.1510 -0.1418
   81SAPS    C1 7498   4.332   2.158  10.621  0.2132 -0.4018 -0.3860
   81SAPS    HA 7499   4.228   2.161  10.660  0.2609  0.2543 -0.3071
   81SAPS    HB 7500   4.355   2.266  10.614 -1.3961  0.1996  2.2329
   81SAPS    C2 7501   4.316   2.091  10.487 -0.4650 -0.4532 -0.3066
   81SAPS    HS 7502   4.293   1.982  10.498 -1.1812 -0.7658 -3.8172
   81SAPS   O21 7503   4.441   2.112  10.419 -0.5495 -0.3555 -0.3863
   81SAPS   C21 7504   4.547   2.032  10.443 -0.3334 -0.7156 -0.3261
   81SAPS   O22 7505   4.558   1.934  10.518  0.0246  0.4718 -0.3652
   81SAPS   C22 7506   4.659   2.078  10.357  0.0958  0.2164  0.5787
   81SAPS   H2R 7507   4.664   2.189  10.361 -0.6206  0.2245  2.4459
   81SAPS   H2S 7508   4.754   2.050  10.406 -0.1018 -2.3340 -0.3575
   81SAPS    C3 7509   4.193   2.156  10.416  0.3182 -0.5960 -0.1651
   81SAPS    HX 7510   4.182   2.260  10.455 -0.0141 -0.7087  0.0539
   81SAPS    HY 7511   4.106   2.102  10.460 -0.5413  1.1512  0.3666
   81SAPS   O31 7512   4.193   2.127  10.274  0.0493  0.2063 -0.8743
   81SAPS   C31 7513   4.219   2.235  10.207  0.5769  0.2521 -0.5716
   81SAPS   O32 7514   4.264   2.336  10.255 -0.3024 -0.6510  0.7309
   81SAPS   C32 7515   4.195   2.211  10.061 -0.2188  0.2252 -0.3189
   81SAPS   H2X 7516   4.089   2.178  10.055 -0.7578  0.0811  5.0864
   81SAPS   H2Y 7517   4.254   2.128  10.017 -0.6257  0.9284 -2.2549
   81SAPS   C23 7518   4.660   2.026  10.212  0.3446 -0.3313 -0.0666
   81SAPS   H3R 7519   4.560   2.049  10.170 -1.4428 -1.0146  3.3798
   81SAPS   H3S 7520   4.674   1.916  10.212  2.3912 -0.1137 -0.4897
   81SAPS   C24 7521   4.766   2.106  10.135 -0.0464  0.0577 -0.0038
   81SAPS   H4R 7522   4.859   2.090  10.194 -1.7123 -1.0377  2.5022
   81SAPS   H4S 7523   4.737   2.214  10.135  1.0378  0.3696 -0.9218
   81SAPS   C25 7524   4.786   2.063   9.989  0.2882  0.0733  0.1248
   81SAPS   H5R 7525   4.818   1.959   9.973 -0.1699  0.1660 -1.6696
   81SAPS   C26 7526   4.766   2.137   9.882 -0.8648 -0.2541  0.1182
   81SAPS   H6R 7527   4.779   2.091   9.783 -1.5145  0.1750 -0.1661
   81SAPS   C27 7528   4.721   2.283   9.884 -0.2055 -0.2827 -0.0658
   81SAPS   H7R 7529   4.811   2.348   9.886 -0.1898 -0.2803 -0.6165
   81SAPS   H7S 7530   4.666   2.305   9.977  0.7275 -1.6643  0.8612
   81SAPS   C28 7531   4.649   2.325   9.758 -0.2716  0.2304  0.0234
   81SAPS   H8R 7532   4.543   2.299   9.775 -0.0573 -1.6022 -1.2019
   81SAPS   C29 7533   4.703   2.358   9.639 -0.1993 -0.3579  0.4558
   81SAPS   H9R 7534   4.625   2.380   9.565  0.4051 -0.5039 -0.2287
   81SAPS  C210 7535   4.849   2.368   9.601 -0.2212 -0.1058 -0.0346
   81SAPS  H10R 7536   4.868   2.305   9.511 -1.6415  0.1668 -0.5422
   81SAPS  H10S 7537   4.919   2.327   9.677 -1.2386 -1.3601  0.2621
   81SAPS  C211 7538   4.880   2.509   9.566  0.2211 -0.0067  0.3624
   81SAPS  H11R 7539   4.940   2.565   9.639  1.6233  0.3694 -1.0293
   81SAPS  C212 7540   4.862   2.571   9.452 -0.0064 -0.1482 -0.2343
   81SAPS  H12R 7541   4.894   2.675   9.439 -0.3600 -0.1059 -0.7931
   81SAPS  C213 7542   4.792   2.501   9.336 -0.1956 -0.7007  0.6675
   81SAPS  H13R 7543   4.778   2.393   9.352  1.6033 -0.8078  1.8396
   81SAPS  H13S 7544   4.847   2.517   9.240 -2.3546  1.1273 -0.3534
   81SAPS  C214 7545   4.659   2.569   9.304 -0.6002 -0.0800 -0.0411
   81SAPS  H14R 7546   4.632   2.636   9.387  1.8318 -0.3254  1.0383
   81SAPS  C215 7547   4.572   2.549   9.206 -0.1812 -0.0069  0.6522
   81SAPS  H15R 7548   4.473   2.595   9.219 -1.6761 -2.5056 -1.0579
   81SAPS  C216 7549   4.576   2.459   9.087  0.4528  0.5522  1.2264
   81SAPS  H16R 7550   4.521   2.364   9.106 -0.2917  0.1211 -2.4297
   81SAPS  H16S 7551   4.683   2.430   9.078  0.0154 -1.0303  0.9172
   81SAPS  C217 7552   4.514   2.517   8.952 -0.0243 -0.2750 -0.7059
   81SAPS  H17R 7553   4.567   2.609   8.919 -1.6947  0.1579 -2.3454
   81SAPS  H17S 7554   4.408   2.549   8.968 -0.4207 -1.8093 -0.0896
   81SAPS  C218 7555   4.515   2.407   8.845  0.5086 -0.7075 -0.6065
   81SAPS  H18R 7556   4.428   2.339   8.860 -0.2213 -0.0884 -1.8404
   81SAPS  H18S 7557   4.609   2.349   8.850  0.4142 -0.7707  2.1606
   81SAPS  C219 7558   4.498   2.451   8.704  0.2656 -0.2754  0.7213
   81SAPS  H19R 7559   4.496   2.358   8.643  1.1117  1.2920 -1.8478
   81SAPS  H19S 7560   4.591   2.501   8.671 -0.1835 -1.1382 -2.0724
   81SAPS  C220 7561   4.379   2.533   8.667 -0.3435 -0.7947 -0.0929
   81SAPS  H20R 7562   4.354   2.533   8.559 -2.4484  1.6491  0.2756
   81SAPS  H20S 7563   4.409   2.639   8.687 -1.6086 -0.6427  1.1200
   81SAPS  H20T 7564   4.287   2.511   8.726  0.3110  1.2061  1.8326
   81SAPS   C33 7565   4.207   2.334   9.982 -0.3439 -0.7711  0.9810
   81SAPS   H3X 7566   4.310   2.370  10.002 -1.0205  1.6326  0.4488
   81SAPS   H3Y 7567   4.146   2.424  10.005 -0.8304 -0.1396 -2.3318
   81SAPS   C34 7568   4.192   2.302   9.828 -0.2789  0.3379 -0.7413
   81SAPS   H4X 7569   4.092   2.254   9.818 -0.8516  1.0777  1.0344
   81SAPS   H4Y 7570   4.263   2.224   9.793  0.4351  0.5961  0.1105
   81SAPS   C35 7571   4.184   2.427   9.755  0.0999 -0.2270 -0.2431
   81SAPS   H5X 7572   4.280   2.480   9.769  0.5921 -0.6392 -1.9082
   81SAPS   H5Y 7573   4.094   2.487   9.783 -0.5416 -0.7257 -1.1898
   81SAPS   C36 7574   4.155   2.407   9.602  0.3368  0.0888  0.4393
   81SAPS   H6X 7575   4.164   2.505   9.550  0.1777 -0.3994 -0.5309
   81SAPS   H6Y 7576   4.055   2.366   9.577  0.3393 -0.8945  1.9395
   81SAPS   C37 7577   4.260   2.324   9.536  0.4178 -0.2630  0.0047
   81SAPS   H7X 7578   4.237   2.216   9.553  0.0110 -0.3517 -1.0619
   81SAPS   H7Y 7579   4.358   2.348   9.583  0.3027 -0.7543  0.5107
   81SAPS   C38 7580   4.267   2.358   9.383 -0.7483 -0.3528  0.1590
   81SAPS   H8X 7581   4.340   2.295   9.328 -0.5392 -0.4704  0.5664
   81SAPS   H8Y 7582   4.312   2.460   9.376  0.0661 -0.7635 -0.8601
   81SAPS   C39 7583   4.131   2.363   9.312  0.4737  0.0092 -0.3031
   81SAPS   H9X 7584   4.056   2.429   9.362 -0.1595  0.0190 -1.2443
   81SAPS   H9Y 7585   4.083   2.262   9.317 -3.0990  1.5233 -0.8661
   81SAPS  C310 7586   4.151   2.403   9.168 -0.3060 -1.1697  0.2482
   81SAPS  H10X 7587   4.256   2.414   9.132 -0.7859 -0.7537 -1.0938
   81SAPS  H10Y 7588   4.101   2.502   9.159 -1.2471 -1.7430 -1.1470
   81SAPS  C311 7589   4.081   2.304   9.067 -0.2178  0.2710 -0.0815
   81SAPS  H11X 7590   3.973   2.288   9.086 -0.0209  0.1096  0.9629
   81SAPS  H11Y 7591   4.138   2.209   9.078  2.6368  1.7679 -1.0136
   81SAPS  C312 7592   4.087   2.360   8.920 -0.0822  0.2344 -0.1530
   81SAPS  H12X 7593   4.186   2.388   8.880  1.3926 -1.9907  1.6758
   81SAPS  H12Y 7594   4.022   2.450   8.931 -0.4954  0.2735 -2.4933
   81SAPS  C313 7595   4.021   2.267   8.821  1.0876 -0.8780 -0.1477
   81SAPS  H13X 7596   3.911   2.280   8.830  0.8894 -2.2647 -0.2523
   81SAPS  H13Y 7597   4.030   2.156   8.822 -1.2511 -1.1895 -2.0270
   81SAPS  C314 7598   4.043   2.316   8.673 -0.2401  0.1263 -0.1397
   81SAPS  H14X 7599   3.989   2.248   8.604  1.1804 -1.0159 -0.1680
   81SAPS  H14Y 7600   4.152   2.311   8.655 -0.2383  0.2250 -0.1570
   81SAPS  C315 7601   3.991   2.452   8.632  1.0470  0.0108 -0.0747
   81SAPS  H15X 7602   4.008   2.522   8.716 -1.5124 -0.1273  0.6445
   81SAPS  H15Y 7603   3.881   2.440   8.625  1.1161 -0.3978 -0.5872
   81SAPS  C316 7604   4.042   2.509   8.502  0.0133 -0.9103  0.3161
   81SAPS  H16X 7605   4.011   2.452   8.412  2.0556  1.9661 -2.4227
   81SAPS  H16Y 7606   4.153   2.501   8.508  0.4406  2.3198 -1.1449
   81SAPS  C317 7607   3.998   2.656   8.487  0.0528 -0.2696 -0.3762
   81SAPS  H17X 7608   4.011   2.703   8.587 -0.4997  1.5098 -1.1072
   81SAPS  H17Y 7609   3.888   2.664   8.476  0.0893  0.7853 -0.1375
   81SAPS  C318 7610   4.061   2.749   8.385 -0.6639  0.6977  0.5793
   81SAPS  H18X 7611   4.076   2.709   8.282  1.9122  3.4453 -0.2564
   81SAPS  H18Y 7612   4.166   2.768   8.415 -0.2548  1.6259 -1.2922
   81SAPS  H18Z 7613   4.010   2.846   8.369  0.7475  1.3267 -0.3850
   82SAPS     N 7614   3.701   0.993  10.762  0.7449  0.2236 -0.2827
   82SAPS   HN1 7615   3.797   0.953  10.755  1.0963  1.3082 -2.2334
   82SAPS   HN2 7616   3.680   1.000  10.864 -0.1836  1.8651 -0.5468
   82SAPS   HN3 7617   3.632   0.928  10.718  1.2728 -0.2644 -0.4026
   82SAPS   C12 7618   3.691   1.120  10.684 -0.7008 -0.3405 -0.6884
   82SAPS  H12A 7619   3.755   1.111  10.598  1.0213  1.7288  0.2852
   82SAPS   C13 7620   3.545   1.154  10.647 -0.9952 -0.1327  0.3484
   82SAPS  O13A 7621   3.447   1.089  10.703 -0.1012 -0.2760  0.6576
   82SAPS  O13B 7622   3.519   1.247  10.567  0.0670 -0.0683  0.3683
   82SAPS   C11 7623   3.749   1.241  10.771 -0.2340 -0.5433 -0.0221
   82SAPS  H11A 7624   3.705   1.245  10.873  0.1171  1.5579  0.0908
   82SAPS  H11B 7625   3.731   1.333  10.710 -1.1983 -0.4817  0.3394
   82SAPS     P 7626   4.003   1.331  10.757  0.3220 -0.2707  0.4113
   82SAPS   O13 7627   3.998   1.446  10.848  0.3403 -0.0428  0.3004
   82SAPS   O14 7628   4.134   1.256  10.755  0.1130  0.1520  0.0568
   82SAPS   O12 7629   3.884   1.233  10.791 -0.1465  0.1499  0.1132
   82SAPS   O11 7630   3.971   1.384  10.614 -0.1617  0.0570 -0.0232
   82SAPS    C1 7631   3.994   1.311  10.491 -0.2168  0.6708 -0.0053
   82SAPS    HA 7632   3.979   1.201  10.497 -0.6854  0.6876 -0.8034
   82SAPS    HB 7633   3.911   1.339  10.422 -0.5081  0.2245  0.1600
   82SAPS    C2 7634   4.118   1.357  10.440 -0.3190 -0.6398  0.4034
   82SAPS    HS 7635   4.200   1.332  10.511  1.8662  2.4673 -0.8499
   82SAPS   O21 7636   4.126   1.505  10.434  0.1178  0.3480 -0.4285
   82SAPS   C21 7637   4.250   1.548  10.411  0.2561 -0.0450 -0.1876
   82SAPS   O22 7638   4.350   1.473  10.414  0.1345 -0.6512 -0.0033
   82SAPS   C22 7639   4.255   1.699  10.381  0.0796  0.0900  0.6194
   82SAPS   H2R 7640   4.230   1.740  10.481  0.8340 -1.3093  1.4096
   82SAPS   H2S 7641   4.361   1.724  10.363  0.8599 -1.0460  3.1655
   82SAPS    C3 7642   4.161   1.286  10.301  0.0803 -0.4001  0.4814
   82SAPS    HX 7643   4.137   1.178  10.302  1.0481 -0.6203  0.8843
   82SAPS    HY 7644   4.272   1.283  10.310 -0.0393 -1.5505  1.9355
   82SAPS   O31 7645   4.116   1.356  10.178  0.3302  0.1905  0.1236
   82SAPS   C31 7646   4.009   1.316  10.113  0.6787 -0.1725 -0.2804
   82SAPS   O32 7647   3.928   1.235  10.153  0.1265  0.8375 -0.0931
   82SAPS   C32 7648   3.991   1.405   9.994 -0.5044  1.0691 -0.0802
   82SAPS   H2X 7649   3.962   1.506  10.029 -2.4266  0.5698 -0.1326
   82SAPS   H2Y 7650   3.897   1.356   9.962 -0.5333  0.1542  1.3267
   82SAPS   C23 7651   4.153   1.744  10.262 -0.0046 -0.0503 -0.3592
   82SAPS   H3R 7652   4.127   1.852  10.273 -2.8524 -0.7580  0.7526
   82SAPS   H3S 7653   4.056   1.692  10.275 -1.2943  2.2597 -0.1599
   82SAPS   C24 7654   4.217   1.731  10.119 -0.6567  0.3074 -0.5773
   82SAPS   H4R 7655   4.137   1.764  10.050  1.3990  2.7330 -1.9840
   82SAPS   H4S 7656   4.246   1.624  10.105  0.5266  0.7030 -1.3161
   82SAPS   C25 7657   4.333   1.824  10.103 -0.0242  0.4131 -0.0758
   82SAPS   H5R 7658   4.374   1.872  10.193  0.5920 -1.4614  0.7017
   82SAPS   C26 7659   4.392   1.861   9.984  0.2683 -0.3413 -1.1069
   82SAPS   H6R 7660   4.471   1.936   9.976  2.4044 -2.5679 -2.2335
   82SAPS   C27 7661   4.347   1.790   9.857 -0.8808  0.5508  0.1060
   82SAPS   H7R 7662   4.272   1.853   9.804  0.4312  2.7258  0.6988
   82SAPS   H7S 7663   4.319   1.683   9.867 -1.5453  0.5133 -1.8400
   82SAPS   C28 7664   4.475   1.771   9.774  0.0355 -0.2724 -0.6744
   82SAPS   H8R 7665   4.550   1.700   9.811 -0.8217 -0.8247  0.0294
   82SAPS   C29 7666   4.493   1.841   9.657 -0.8127  0.5407  0.0949
   82SAPS   H9R 7667   4.582   1.818   9.597 -1.8914 -1.5209 -0.8244
   82SAPS  C210 7668   4.404   1.941   9.591  0.4701  0.9779 -0.2091
   82SAPS  H10R 7669   4.333   1.990   9.661  0.7708  0.1232  0.7175
   82SAPS  H10S 7670   4.341   1.884   9.520 -1.4113  1.5955  0.8798
   82SAPS  C211 7671   4.473   2.052   9.510  0.2073  0.4417 -0.0193
   82SAPS  H11R 7672   4.505   2.142   9.564  1.2277 -0.4339  0.8864
   82SAPS  C212 7673   4.516   2.048   9.385 -0.2852  0.4109  0.4765
   82SAPS  H12R 7674   4.568   2.134   9.341 -0.4662  0.0414 -0.4813
   82SAPS  C213 7675   4.504   1.935   9.289 -0.0933  0.5029 -0.4892
   82SAPS  H13R 7676   4.517   1.834   9.333 -0.9183  0.4132 -0.4480
   82SAPS  H13S 7677   4.583   1.935   9.211  0.1476 -0.9041 -0.2723
   82SAPS  C214 7678   4.371   1.925   9.227  0.8541 -0.2487  1.1374
   82SAPS  H14R 7679   4.298   1.860   9.278 -0.1440 -1.6481 -1.8307
   82SAPS  C215 7680   4.326   1.988   9.116 -0.1564 -0.0292 -0.0296
   82SAPS  H15R 7681   4.226   1.959   9.083  0.3579 -0.2507 -1.4364
   82SAPS  C216 7682   4.401   2.071   9.022  0.4909 -0.5014  0.4576
   82SAPS  H16R 7683   4.507   2.081   9.054 -0.0343  1.1570  1.8973
   82SAPS  H16S 7684   4.361   2.175   9.016 -0.5114 -0.9601 -1.4741
   82SAPS  C217 7685   4.384   2.011   8.882  0.8145 -0.2382  0.3730
   82SAPS  H17R 7686   4.431   2.072   8.802 -1.2920 -0.1319 -0.8647
   82SAPS  H17S 7687   4.275   2.016   8.860  0.8527 -0.3282  0.1554
   82SAPS  C218 7688   4.429   1.866   8.871  0.3374 -0.2144 -0.5382
   82SAPS  H18R 7689   4.397   1.808   8.960 -1.2277 -1.8106 -2.0628
   82SAPS  H18S 7690   4.540   1.875   8.871  0.4256 -1.0935  0.2766
   82SAPS  C219 7691   4.383   1.786   8.748 -0.1750  0.0241 -0.2074
   82SAPS  H19R 7692   4.276   1.786   8.777  1.1370  0.8510  5.8623
   82SAPS  H19S 7693   4.408   1.677   8.748  1.3133  0.3283  1.2242
   82SAPS  C220 7694   4.399   1.857   8.613 -0.5973  0.2889  0.2971
   82SAPS  H20R 7695   4.328   1.805   8.544 -1.2239 -0.4386  1.4719
   82SAPS  H20S 7696   4.503   1.848   8.576 -0.8499  1.5129 -0.7802
   82SAPS  H20T 7697   4.374   1.965   8.625 -0.2509  0.2677  1.2829
   82SAPS   C33 7698   4.104   1.392   9.888 -0.8117  0.3911  0.7655
   82SAPS   H3X 7699   4.102   1.290   9.843 -2.5279 -0.2831  2.2389
   82SAPS   H3Y 7700   4.201   1.413   9.938 -0.3175 -2.4850  1.2232
   82SAPS   C34 7701   4.091   1.503   9.782 -0.2190  0.2832  0.0120
   82SAPS   H4X 7702   4.119   1.601   9.827  2.4037 -1.5670  2.7606
   82SAPS   H4Y 7703   3.983   1.505   9.754 -0.5412  2.6528  1.1236
   82SAPS   C35 7704   4.184   1.473   9.664 -0.2146 -0.1793  0.3607
   82SAPS   H5X 7705   4.161   1.377   9.613  0.6794 -0.1211 -0.1858
   82SAPS   H5Y 7706   4.290   1.461   9.694  0.4434  2.1903 -0.6882
   82SAPS   C36 7707   4.184   1.581   9.554 -0.4470 -0.5766 -0.0907
   82SAPS   H6X 7708   4.284   1.580   9.506  0.0034 -2.3536  0.8065
   82SAPS   H6Y 7709   4.169   1.683   9.596 -0.2614 -0.7098  0.3143
   82SAPS   C37 7710   4.075   1.547   9.459 -0.4011  0.1432  0.1869
   82SAPS   H7X 7711   3.983   1.607   9.478  0.4528  1.1425  1.3708
   82SAPS   H7Y 7712   4.048   1.440   9.448 -0.0285 -0.1374  1.7391
   82SAPS   C38 7713   4.121   1.592   9.318  0.6252  0.2141 -0.1243
   82SAPS   H8X 7714   4.227   1.560   9.310  0.1376 -1.9993  1.3316
   82SAPS   H8Y 7715   4.129   1.702   9.314  2.5803  0.1838  1.5087
   82SAPS   C39 7716   4.036   1.532   9.201 -0.0992 -0.2742  0.7093
   82SAPS   H9X 7717   3.931   1.568   9.201  0.1351  0.5530 -1.5627
   82SAPS   H9Y 7718   4.026   1.422   9.216  1.3443 -0.6021 -0.5104
   82SAPS  C310 7719   4.096   1.552   9.066  0.4831  0.2398  0.0730
   82SAPS  H10X 7720   4.207   1.548   9.063  0.4284 -0.5032 -1.5846
   82SAPS  H10Y 7721   4.075   1.653   9.025 -1.8129 -0.2604 -0.0992
   82SAPS  C311 7722   4.034   1.460   8.967 -0.0207  0.6713 -0.9172
   82SAPS  H11X 7723   3.926   1.482   8.952 -0.1917  0.0278 -0.6709
   82SAPS  H11Y 7724   4.043   1.352   8.994 -1.8365  0.5911 -0.5108
   82SAPS  C312 7725   4.099   1.477   8.833  0.0471  0.5202 -0.0347
   82SAPS  H12X 7726   4.208   1.473   8.854 -0.2775 -0.5052  1.6833
   82SAPS  H12Y 7727   4.070   1.576   8.794 -1.3030 -0.0321 -0.4723
   82SAPS  C313 7728   4.059   1.383   8.713  0.0803 -0.0928 -0.5648
   82SAPS  H13X 7729   3.949   1.384   8.700  0.0536  1.7310 -0.4466
   82SAPS  H13Y 7730   4.095   1.280   8.734 -0.7193 -0.0881  0.9783
   82SAPS  C314 7731   4.127   1.430   8.587  0.7919  0.6629  0.0623
   82SAPS  H14X 7732   4.236   1.428   8.612  1.2162 -0.8196 -1.7016
   82SAPS  H14Y 7733   4.091   1.531   8.559 -1.5260 -0.0193  0.3695
   82SAPS  C315 7734   4.120   1.330   8.468  0.2445  0.3320 -0.1249
   82SAPS  H15X 7735   4.023   1.352   8.420  1.7448  2.7812 -2.3076
   82SAPS  H15Y 7736   4.118   1.224   8.501  0.4384  0.4922  0.4156
   82SAPS  C316 7737   4.245   1.341   8.378  0.2865 -0.2770  0.5644
   82SAPS  H16X 7738   4.334   1.343   8.445 -1.0988  0.2621  2.4896
   82SAPS  H16Y 7739   4.231   1.436   8.323  0.8824 -1.6295 -2.0847
   82SAPS  C317 7740   4.265   1.232   8.271 -0.3505  0.1089  0.0903
   82SAPS  H17X 7741   4.346   1.254   8.198 -2.5122 -1.6348 -3.0609
   82SAPS  H17Y 7742   4.168   1.231   8.218 -0.1310 -0.2877 -0.3067
   82SAPS  C318 7743   4.294   1.092   8.331 -0.2797  0.4933  0.0104
   82SAPS  H18X 7744   4.289   1.010   8.256  0.6850  0.5028 -0.0678
   82SAPS  H18Y 7745   4.210   1.061   8.397  0.6397  0.4679  1.2026
   82SAPS  H18Z 7746   4.386   1.094   8.392  0.3116  0.6589 -0.8770
   83SAPS     N 7747   4.600   3.242  11.177  0.4944  0.2167  0.2014
   83SAPS   HN1 7748   4.628   3.211  11.273  1.7283  2.0124  0.4613
   83SAPS   HN2 7749   4.548   3.163  11.133  1.8580 -2.7755  3.3878
   83SAPS   HN3 7750   4.681   3.258  11.114 -0.0835  1.2509 -0.2992
   83SAPS   C12 7751   4.538   3.375  11.196 -0.5814  0.6007 -0.0760
   83SAPS  H12A 7752   4.432   3.363  11.212 -0.2155 -1.3626  1.1579
   83SAPS   C13 7753   4.591   3.457  11.314 -1.0785  0.3144  0.4766
   83SAPS  O13A 7754   4.667   3.391  11.393 -0.3957  0.3744 -0.0051
   83SAPS  O13B 7755   4.557   3.572  11.341 -0.3955  0.9774  0.6110
   83SAPS   C11 7756   4.553   3.450  11.065 -0.4490 -0.1537 -0.1227
   83SAPS  H11A 7757   4.534   3.558  11.080  1.9522  0.2657  0.4303
   83SAPS  H11B 7758   4.470   3.410  11.003  0.1957 -1.8134  0.0204
   83SAPS     P 7759   4.762   3.528  10.911 -0.1848  0.1565  0.4069
   83SAPS   O13 7760   4.743   3.667  10.949  0.4077 -0.4308  0.3033
   83SAPS   O14 7761   4.904   3.476  10.912 -1.1050 -0.2021 -0.1587
   83SAPS   O12 7762   4.687   3.430  11.003 -0.4384  0.1655  0.4670
   83SAPS   O11 7763   4.701   3.508  10.764  0.5389 -0.5942  0.1405
   83SAPS    C1 7764   4.650   3.378  10.724 -0.5004 -0.3087 -0.0404
   83SAPS    HA 7765   4.614   3.314  10.808  0.4027  1.0196  1.4364
   83SAPS    HB 7766   4.559   3.403  10.666  0.1806 -1.6845 -1.7817
   83SAPS    C2 7767   4.752   3.294  10.641  0.5613  0.5523  0.8239
   83SAPS    HS 7768   4.846   3.287  10.700  0.6422 -2.0052  0.4750
   83SAPS   O21 7769   4.778   3.363  10.519  0.9073 -0.3225 -0.1657
   83SAPS   C21 7770   4.873   3.300  10.443  0.4335 -0.1475 -0.2728
   83SAPS   O22 7771   4.947   3.213  10.483 -0.0291  0.3917  0.4884
   83SAPS   C22 7772   4.894   3.379  10.310 -0.2405  0.8161 -0.0168
   83SAPS   H2R 7773   4.959   3.464  10.341 -0.2571  0.4781  0.9939
   83SAPS   H2S 7774   4.948   3.300  10.254  0.2955  0.9355  0.3183
   83SAPS    C3 7775   4.694   3.147  10.624 -0.2404 -0.2374 -0.3226
   83SAPS    HX 7776   4.630   3.128  10.713 -2.1154 -0.2289 -1.6108
   83SAPS    HY 7777   4.775   3.071  10.620  0.4846  0.5044  0.0061
   83SAPS   O31 7778   4.622   3.130  10.501  1.1258 -0.0605  0.3271
   83SAPS   C31 7779   4.548   3.016  10.488 -0.7212 -0.8634  0.4224
   83SAPS   O32 7780   4.546   2.925  10.571 -0.4082 -0.3511 -0.1321
   83SAPS   C32 7781   4.482   3.015  10.357  0.2434  0.3865 -0.3130
   83SAPS   H2X 7782   4.380   3.053  10.376  0.7435  1.6366  0.0036
   83SAPS   H2Y 7783   4.475   2.909  10.325 -1.3872 -0.1982  1.7765
   83SAPS   C23 7784   4.772   3.437  10.242 -0.0297  0.0462  0.2166
   83SAPS   H3R 7785   4.713   3.489  10.321 -0.8362 -1.2561  0.4958
   83SAPS   H3S 7786   4.710   3.356  10.199  0.3293 -0.1805  0.1281
   83SAPS   C24 7787   4.794   3.529  10.121 -0.1493 -0.2704  0.2147
   83SAPS   H4R 7788   4.710   3.517  10.050 -0.0632  3.3404 -0.6860
   83SAPS   H4S 7789   4.890   3.491  10.080 -0.2424  0.4463 -0.6977
   83SAPS   C25 7790   4.799   3.675  10.153 -0.1476  0.2430 -0.1328
   83SAPS   H5R 7791   4.807   3.711  10.257 -3.4743 -0.8445  0.6224
   83SAPS   C26 7792   4.787   3.778  10.068 -0.2426 -0.1988 -0.2397
   83SAPS   H6R 7793   4.804   3.878  10.110 -0.7614  0.1954 -0.9322
   83SAPS   C27 7794   4.777   3.763   9.914 -0.1602 -0.3017 -0.7783
   83SAPS   H7R 7795   4.669   3.775   9.891 -0.5868 -0.0300  1.1750
   83SAPS   H7S 7796   4.784   3.656   9.886 -0.8721 -0.5036 -0.2227
   83SAPS   C28 7797   4.856   3.853   9.826  0.1506  0.5525  0.1438
   83SAPS   H8R 7798   4.934   3.918   9.868  0.0581  1.9180 -1.6416
   83SAPS   C29 7799   4.851   3.850   9.695  0.2655  0.0523 -0.2789
   83SAPS   H9R 7800   4.917   3.921   9.643  2.1809 -0.6249  1.1089
   83SAPS  C210 7801   4.770   3.763   9.607 -1.3394 -0.7389 -0.2039
   83SAPS  H10R 7802   4.692   3.705   9.660 -1.3341 -1.0394 -0.5199
   83SAPS  H10S 7803   4.847   3.691   9.572  0.0521  0.3941  0.4421
   83SAPS  C211 7804   4.705   3.838   9.494 -0.4344 -0.2703  0.0412
   83SAPS  H11R 7805   4.605   3.878   9.517 -0.0008 -0.1622  1.9256
   83SAPS  C212 7806   4.761   3.870   9.377  0.0942  0.7355  0.5970
   83SAPS  H12R 7807   4.709   3.939   9.310  0.2497 -0.6151 -0.9740
   83SAPS  C213 7808   4.904   3.837   9.339  0.4724 -0.2480 -0.8023
   83SAPS  H13R 7809   4.904   3.859   9.230 -0.9743  2.1451 -0.4031
   83SAPS  H13S 7810   4.921   3.727   9.349  0.7798 -0.1957 -0.7377
   83SAPS  C214 7811   5.025   3.903   9.396 -0.1393  0.7835  0.1018
   83SAPS  H14R 7812   5.003   3.971   9.480 -1.4734 -0.6961  0.9971
   83SAPS  C215 7813   5.150   3.900   9.347 -0.0020 -0.3549  0.4777
   83SAPS  H15R 7814   5.233   3.958   9.390  2.1399  0.9761 -4.6529
   83SAPS  C216 7815   5.190   3.823   9.224  0.1103 -0.3542 -0.5882
   83SAPS  H16R 7816   5.110   3.762   9.177  0.5659  0.3587 -2.3647
   83SAPS  H16S 7817   5.278   3.764   9.256 -0.6702 -0.0621  2.4905
   83SAPS  C217 7818   5.234   3.928   9.123 -0.5105 -0.4259 -0.2582
   83SAPS  H17R 7819   5.305   3.878   9.054  1.1449  0.2490  0.9157
   83SAPS  H17S 7820   5.293   4.005   9.177  1.7095 -1.2816 -1.3377
   83SAPS  C218 7821   5.116   3.991   9.044  0.0433  0.4261  0.1473
   83SAPS  H18R 7822   5.045   4.040   9.115 -0.2019 -0.1027  0.2751
   83SAPS  H18S 7823   5.061   3.904   9.003 -0.2041 -0.2748  1.8873
   83SAPS  C219 7824   5.155   4.102   8.942 -0.4287  0.6230 -0.1125
   83SAPS  H19R 7825   5.068   4.141   8.885 -0.1705  0.9879 -0.2598
   83SAPS  H19S 7826   5.236   4.058   8.880  2.2738 -0.4615  3.7855
   83SAPS  C220 7827   5.216   4.221   9.003 -0.0418 -0.5015  0.8410
   83SAPS  H20R 7828   5.132   4.272   9.055 -1.1057 -3.2012  1.9457
   83SAPS  H20S 7829   5.270   4.278   8.924 -0.4145 -3.3399 -1.6314
   83SAPS  H20T 7830   5.294   4.192   9.077  0.9355 -2.1288 -0.7813
   83SAPS   C33 7831   4.547   3.103  10.248  0.5142  1.0236  0.1554
   83SAPS   H3X 7832   4.658   3.098  10.260  0.4478 -0.3782  0.3573
   83SAPS   H3Y 7833   4.507   3.206  10.260 -1.4931  0.7275 -2.9900
   83SAPS   C34 7834   4.508   3.055  10.107 -0.0686 -0.1265 -0.0843
   83SAPS   H4X 7835   4.405   3.012  10.115 -0.4428  0.9756  1.4288
   83SAPS   H4Y 7836   4.567   2.963  10.086 -0.4211 -0.2390 -0.5906
   83SAPS   C35 7837   4.525   3.151   9.991  0.5207 -0.3421  0.7437
   83SAPS   H5X 7838   4.504   3.254  10.029 -4.1494  0.1606 -2.3766
   83SAPS   H5Y 7839   4.451   3.142   9.909  1.6483  0.4162 -0.3996
   83SAPS   C36 7840   4.657   3.155   9.925 -0.3470  0.4423  0.0726
   83SAPS   H6X 7841   4.692   3.058   9.886  1.5716  0.7222  0.9716
   83SAPS   H6Y 7842   4.738   3.184   9.995 -0.0486 -0.6989  0.2198
   83SAPS   C37 7843   4.652   3.262   9.811 -0.8376 -0.0882 -0.0572
   83SAPS   H7X 7844   4.599   3.350   9.853  1.1718  2.2322 -2.0388
   83SAPS   H7Y 7845   4.592   3.216   9.730 -0.3500 -2.9025  1.0754
   83SAPS   C38 7846   4.790   3.302   9.756  0.7398  0.0420 -0.9581
   83SAPS   H8X 7847   4.853   3.211   9.744  0.9609  0.2721 -1.5682
   83SAPS   H8Y 7848   4.828   3.380   9.824 -1.1695  0.5778 -0.4341
   83SAPS   C39 7849   4.787   3.372   9.621  0.4562  0.2068 -0.3175
   83SAPS   H9X 7850   4.879   3.432   9.606  0.8899 -0.2019  0.6257
   83SAPS   H9Y 7851   4.695   3.434   9.628 -0.3083 -0.8903 -0.4642
   83SAPS  C310 7852   4.752   3.287   9.505 -0.0371 -0.3973  0.4697
   83SAPS  H10X 7853   4.644   3.264   9.498 -0.0440  0.0436 -1.4406
   83SAPS  H10Y 7854   4.803   3.190   9.491 -0.0722 -0.4235  0.5239
   83SAPS  C311 7855   4.796   3.357   9.369 -0.3598  1.0056 -0.6700
   83SAPS  H11X 7856   4.767   3.288   9.287  0.0570 -1.1062  0.8676
   83SAPS  H11Y 7857   4.906   3.370   9.364 -0.2668  0.2560 -0.6436
   83SAPS  C312 7858   4.727   3.491   9.353 -0.7308 -0.6640  0.4609
   83SAPS  H12X 7859   4.774   3.562   9.425 -1.5584  1.0824 -0.6411
   83SAPS  H12Y 7860   4.619   3.480   9.373 -1.1050 -1.7144 -1.8258
   83SAPS  C313 7861   4.742   3.552   9.207  0.6918 -0.7299  0.4387
   83SAPS  H13X 7862   4.851   3.560   9.188  0.4308  0.1545 -0.9096
   83SAPS  H13Y 7863   4.706   3.657   9.213  1.3734 -0.5569  1.7243
   83SAPS  C314 7864   4.663   3.493   9.088  0.0613  0.2622  0.6649
   83SAPS  H14X 7865   4.600   3.575   9.049 -0.0513  1.3400  2.9535
   83SAPS  H14Y 7866   4.590   3.417   9.123  2.3993 -1.3685  2.2902
   83SAPS  C315 7867   4.754   3.443   8.981  0.0057 -0.4259  0.0993
   83SAPS  H15X 7868   4.820   3.366   9.026  0.7506  0.5070  0.6296
   83SAPS  H15Y 7869   4.809   3.534   8.949 -0.3858 -0.0107  0.5811
   83SAPS  C316 7870   4.673   3.376   8.866  1.2527 -0.0062  0.2539
   83SAPS  H16X 7871   4.636   3.454   8.796  1.6054 -0.6527 -0.6609
   83SAPS  H16Y 7872   4.581   3.321   8.897  0.9467 -0.0706 -0.7260
   83SAPS  C317 7873   4.773   3.286   8.789  0.1905 -0.7857  0.5444
   83SAPS  H17X 7874   4.769   3.188   8.843 -0.8375  0.0119  1.9600
   83SAPS  H17Y 7875   4.873   3.334   8.799  0.2299 -1.1813  2.5650
   83SAPS  C318 7876   4.733   3.263   8.643  0.2370 -0.7110  0.5381
   83SAPS  H18X 7877   4.631   3.221   8.656  0.0016  0.3431  2.3672
   83SAPS  H18Y 7878   4.806   3.193   8.597  0.9518 -1.1222  2.2166
   83SAPS  H18Z 7879   4.723   3.354   8.581 -0.0544 -0.9969  0.1621
   84SAPS     N 7880   0.530   4.267  10.649 -0.3242  0.3509 -0.1639
   84SAPS   HN1 7881   0.457   4.205  10.608  0.9254 -3.0764  2.2854
   84SAPS   HN2 7882   0.485   4.357  10.673 -1.1253 -0.2643  0.7379
   84SAPS   HN3 7883   0.611   4.276  10.585  0.0772 -1.0031  0.1278
   84SAPS   C12 7884   0.584   4.200  10.779 -0.7109  0.8267  0.6845
   84SAPS  H12A 7885   0.547   4.098  10.773  0.2973  0.3992  1.4594
   84SAPS   C13 7886   0.741   4.192  10.776 -0.4296  0.3449 -0.2254
   84SAPS  O13A 7887   0.802   4.260  10.690 -0.3379 -0.0335 -0.5562
   84SAPS  O13B 7888   0.811   4.135  10.862  0.0518  0.1601 -0.4754
   84SAPS   C11 7889   0.542   4.275  10.905  0.4392 -0.2985  0.2449
   84SAPS  H11A 7890   0.571   4.381  10.889 -0.5777 -0.0214  0.1180
   84SAPS  H11B 7891   0.601   4.241  10.992  1.0202  0.2254  0.0573
   84SAPS     P 7892   0.323   4.156  11.003  0.2298 -0.0341  0.0080
   84SAPS   O13 7893   0.420   4.081  11.083 -0.7091  0.0196  0.3129
   84SAPS   O14 7894   0.206   4.202  11.077  0.4601 -0.1157  0.1897
   84SAPS   O12 7895   0.398   4.276  10.932  1.1210 -0.1094  0.2232
   84SAPS   O11 7896   0.267   4.070  10.879 -0.0018  0.1197  0.3733
   84SAPS    C1 7897   0.174   4.145  10.794  0.2538  0.0163  0.8943
   84SAPS    HA 7898   0.096   4.186  10.862 -0.5084 -2.1773  1.4366
   84SAPS    HB 7899   0.220   4.235  10.749  0.4351  1.2023  3.2821
   84SAPS    C2 7900   0.092   4.057  10.699  0.1747  0.1000 -0.2875
   84SAPS    HS 7901   0.016   4.003  10.759  1.0938 -0.0250  0.7984
   84SAPS   O21 7902   0.165   3.951  10.643 -0.3845  0.2897 -0.3166
   84SAPS   C21 7903   0.284   3.962  10.585 -0.2076  0.6613 -0.7908
   84SAPS   O22 7904   0.350   4.064  10.569 -0.3886 -0.5094 -0.1005
   84SAPS   C22 7905   0.340   3.819  10.534  0.0458  0.1321  0.1510
   84SAPS   H2R 7906   0.380   3.770  10.625 -3.2515 -1.0098  1.1081
   84SAPS   H2S 7907   0.245   3.763  10.522  0.5736 -1.1888  1.8568
   84SAPS    C3 7908   0.015   4.143  10.587 -0.3014  0.0141 -0.0710
   84SAPS    HX 7909   0.094   4.178  10.517 -0.1814  0.3762  0.2417
   84SAPS    HY 7910  -0.036   4.231  10.631  0.1329  0.6237 -0.7539
   84SAPS   O31 7911  -0.070   4.057  10.501  0.1385 -0.4908  0.0652
   84SAPS   C31 7912  -0.195   4.057  10.531 -0.6329 -0.1176  0.0192
   84SAPS   O32 7913  -0.248   4.105  10.630  0.5656 -0.7240  0.6684
   84SAPS   C32 7914  -0.278   3.990  10.420  0.2739  0.5170  0.5175
   84SAPS   H2X 7915  -0.290   4.051  10.328  0.9932  0.3327  0.2886
   84SAPS   H2Y 7916  -0.376   3.972  10.468  0.1231  2.5245  1.0643
   84SAPS   C23 7917   0.443   3.817  10.418 -0.0230  0.7897 -0.3036
   84SAPS   H3R 7918   0.461   3.711  10.393 -1.6103  0.5748 -0.6377
   84SAPS   H3S 7919   0.535   3.866  10.457 -0.2211  0.3783  0.6929
   84SAPS   C24 7920   0.381   3.866  10.286 -0.4572  0.0445  0.0734
   84SAPS   H4R 7921   0.324   3.956  10.318  0.8278  1.2651 -0.9627
   84SAPS   H4S 7922   0.314   3.788  10.243 -2.2354  1.3046  0.4501
   84SAPS   C25 7923   0.489   3.909  10.185 -0.0020  0.0347 -0.0254
   84SAPS   H5R 7924   0.546   3.997  10.217  2.4107  0.0804 -3.8020
   84SAPS   C26 7925   0.532   3.849  10.070  0.5506 -0.2878 -0.5712
   84SAPS   H6R 7926   0.611   3.900  10.012  2.6780 -0.6525  1.8045
   84SAPS   C27 7927   0.474   3.722  10.013  0.6455  0.8123  0.7093
   84SAPS   H7R 7928   0.442   3.749   9.910  1.8126 -0.9132 -0.1548
   84SAPS   H7S 7929   0.384   3.695  10.071  1.1554  1.9976  2.1133
   84SAPS   C28 7930   0.573   3.609  10.018 -0.0050 -0.6473  0.1002
   84SAPS   H8R 7931   0.603   3.592  10.123  0.5200 -0.6963 -0.0566
   84SAPS   C29 7932   0.645   3.552   9.920 -0.7162  0.1495 -0.2618
   84SAPS   H9R 7933   0.702   3.463   9.950 -5.0088 -1.8355  3.2556
   84SAPS  C210 7934   0.638   3.584   9.767 -0.1382  0.1705 -0.0185
   84SAPS  H10R 7935   0.737   3.620   9.731 -0.4081 -0.2226 -1.1996
   84SAPS  H10S 7936   0.560   3.662   9.757  1.0646  1.3391 -0.6217
   84SAPS  C211 7937   0.592   3.478   9.670  0.1515  0.1403 -0.2385
   84SAPS  H11R 7938   0.571   3.376   9.707 -0.9187  1.0149  1.6829
   84SAPS  C212 7939   0.548   3.501   9.542  0.9081 -0.5906 -0.1839
   84SAPS  H12R 7940   0.521   3.412   9.482  0.7274 -0.7387  0.1145
   84SAPS  C213 7941   0.558   3.639   9.474  0.0633 -0.4203  0.4202
   84SAPS  H13R 7942   0.541   3.722   9.545  0.2439 -0.8050  0.9230
   84SAPS  H13S 7943   0.464   3.648   9.415  0.1567  0.3448  0.3803
   84SAPS  C214 7944   0.688   3.648   9.397  0.0155  0.2933  0.5518
   84SAPS  H14R 7945   0.768   3.609   9.462 -0.3500  0.4566  1.1070
   84SAPS  C215 7946   0.708   3.688   9.267  0.3807 -0.3609  0.1314
   84SAPS  H15R 7947   0.810   3.677   9.227 -0.0867  0.0100 -1.2339
   84SAPS  C216 7948   0.594   3.739   9.178 -0.0677 -0.4203  0.7033
   84SAPS  H16R 7949   0.499   3.775   9.223 -0.7787 -0.7152 -0.5006
   84SAPS  H16S 7950   0.566   3.649   9.119 -0.1291 -0.2166  0.4182
   84SAPS  C217 7951   0.639   3.853   9.079 -0.5360  0.6693 -0.5620
   84SAPS  H17R 7952   0.548   3.873   9.019 -0.4160 -0.5479 -1.1849
   84SAPS  H17S 7953   0.728   3.817   9.023 -0.2621 -2.9817  1.8464
   84SAPS  C218 7954   0.667   3.978   9.155 -0.2637 -0.6687  0.4963
   84SAPS  H18R 7955   0.762   3.977   9.213 -0.6338  2.0406  1.2853
   84SAPS  H18S 7956   0.580   3.997   9.221 -0.6496 -0.3594 -0.0930
   84SAPS  C219 7957   0.680   4.093   9.058 -0.1307 -0.2673  0.2407
   84SAPS  H19R 7958   0.584   4.115   9.007 -0.3771 -0.0724  0.7787
   84SAPS  H19S 7959   0.733   4.065   8.964 -0.8329  2.5016 -1.0782
   84SAPS  C220 7960   0.722   4.224   9.123  0.3224  0.2406  0.3297
   84SAPS  H20R 7961   0.815   4.199   9.177  1.3886  1.0173 -1.0728
   84SAPS  H20S 7962   0.653   4.270   9.197 -1.4119 -0.0735 -1.0111
   84SAPS  H20T 7963   0.760   4.294   9.046 -0.2461 -0.0090 -0.1892
   84SAPS   C33 7964  -0.209   3.855  10.392  0.3701 -0.2945  0.1831
   84SAPS   H3X 7965  -0.172   3.809  10.486  1.8426  0.7989  0.1675
   84SAPS   H3Y 7966  -0.125   3.880  10.323  0.1549 -1.9717 -0.7544
   84SAPS   C34 7967  -0.296   3.742  10.328 -0.3448 -0.0891 -0.5209
   84SAPS   H4X 7968  -0.388   3.730  10.388 -0.4051 -0.5256 -0.6980
   84SAPS   H4Y 7969  -0.237   3.648  10.331  1.6107  1.0942  0.7763
   84SAPS   C35 7970  -0.347   3.772  10.184  0.0884 -0.1778  0.1173
   84SAPS   H5X 7971  -0.257   3.788  10.121 -0.0746  0.0791 -0.0525
   84SAPS   H5Y 7972  -0.412   3.861  10.188  1.6481  1.0524 -0.7905
   84SAPS   C36 7973  -0.414   3.656  10.116  0.4088  0.2474  0.1288
   84SAPS   H6X 7974  -0.492   3.614  10.183 -0.3319 -0.1588 -0.9465
   84SAPS   H6Y 7975  -0.334   3.580  10.100  0.1922  0.5863 -3.2340
   84SAPS   C37 7976  -0.468   3.686   9.974 -0.0495  0.8187 -0.1836
   84SAPS   H7X 7977  -0.533   3.774   9.993 -0.0970  1.6915 -3.6677
   84SAPS   H7Y 7978  -0.529   3.599   9.943  0.7408 -0.3020  1.2747
   84SAPS   C38 7979  -0.363   3.710   9.868 -0.4132  0.0472 -0.0035
   84SAPS   H8X 7980  -0.324   3.611   9.835 -0.7624  0.4063 -1.6095
   84SAPS   H8Y 7981  -0.275   3.764   9.909  1.5600 -1.8020 -1.5595
   84SAPS   C39 7982  -0.427   3.764   9.744  0.3256  0.2131 -0.1052
   84SAPS   H9X 7983  -0.468   3.865   9.767  1.1664  0.8637 -1.3771
   84SAPS   H9Y 7984  -0.507   3.693   9.714  1.3545 -1.2542  0.4929
   84SAPS  C310 7985  -0.329   3.774   9.630  0.7238  0.0476  0.2620
   84SAPS  H10X 7986  -0.298   3.672   9.599  0.8684  0.1115  0.1928
   84SAPS  H10Y 7987  -0.239   3.827   9.670  1.1548 -0.0996 -0.4875
   84SAPS  C311 7988  -0.387   3.852   9.506 -0.7458 -0.0479  0.7219
   84SAPS  H11X 7989  -0.420   3.955   9.531  0.0378  0.9240 -1.8593
   84SAPS  H11Y 7990  -0.470   3.791   9.465  0.7254 -0.2356 -2.3123
   84SAPS  C312 7991  -0.293   3.869   9.386 -0.8367 -0.1253 -0.3952
   84SAPS  H12X 7992  -0.274   3.769   9.341 -1.7867 -1.3736  1.7867
   84SAPS  H12Y 7993  -0.198   3.919   9.415 -0.0503 -1.6410 -0.2505
   84SAPS  C313 7994  -0.346   3.967   9.280 -0.0543 -0.8794  0.4086
   84SAPS  H13X 7995  -0.328   4.069   9.319 -0.5749 -0.1605 -1.1238
   84SAPS  H13Y 7996  -0.454   3.948   9.259 -1.2545  1.8326  3.4058
   84SAPS  C314 7997  -0.271   3.954   9.151 -0.5623 -0.3792  0.5131
   84SAPS  H14X 7998  -0.301   3.862   9.096 -1.3013  0.9417 -1.3911
   84SAPS  H14Y 7999  -0.161   3.956   9.162 -0.4375  1.1761 -0.7164
   84SAPS  C315 8000  -0.296   4.076   9.062 -0.1189  0.1319  0.2561
   84SAPS  H15X 8001  -0.194   4.115   9.037  0.1420  0.9914  2.4829
   84SAPS  H15Y 8002  -0.343   4.159   9.119  1.0921  2.5619 -2.0157
   84SAPS  C316 8003  -0.383   4.052   8.941  1.0197  0.5836 -0.0293
   84SAPS  H16X 8004  -0.334   3.987   8.865 -2.1942  0.2498 -2.0173
   84SAPS  H16Y 8005  -0.402   4.151   8.896 -1.6257 -0.6690 -1.9603
   84SAPS  C317 8006  -0.521   3.992   8.975  1.0332  0.4021  0.2072
   84SAPS  H17X 8007  -0.552   4.025   9.077  0.1639  1.8123 -0.4841
   84SAPS  H17Y 8008  -0.512   3.882   8.972  3.1849  0.5461 -0.7232
   84SAPS  C318 8009  -0.631   4.039   8.875 -0.4834  0.4632 -0.3501
   84SAPS  H18X 8010  -0.736   4.004   8.889 -1.0324  2.2873  0.4654
   84SAPS  H18Y 8011  -0.602   4.015   8.770 -1.2605  1.6008 -0.8471
   84SAPS  H18Z 8012  -0.638   4.150   8.878 -0.8941  0.5161 -2.0572
   85SAPS     N 8013   3.002   4.611  11.115  0.0924 -0.1375 -0.3591
   85SAPS   HN1 8014   2.961   4.679  11.182 -0.5787 -2.0510  1.2667
   85SAPS   HN2 8015   2.976   4.648  11.021  0.1824 -0.0400 -0.3459
   85SAPS   HN3 8016   2.948   4.522  11.125  0.9351 -0.5739  0.4584
   85SAPS   C12 8017   3.144   4.589  11.141 -0.7008  0.3098 -0.4012
   85SAPS  H12A 8018   3.196   4.683  11.139 -0.8951  0.4652  0.7879
   85SAPS   C13 8019   3.178   4.524  11.271  0.0897 -0.1429  0.5538
   85SAPS  O13A 8020   3.104   4.432  11.306  0.7493  0.8258  0.1201
   85SAPS  O13B 8021   3.302   4.521  11.305 -0.3821  0.1683 -0.7109
   85SAPS   C11 8022   3.199   4.500  11.031 -0.5105  0.2689 -0.2082
   85SAPS  H11A 8023   3.163   4.397  11.050  0.8684  0.1321  2.0658
   85SAPS  H11B 8024   3.305   4.484  11.059 -0.5957  0.1490  0.0522
   85SAPS     P 8025   3.294   4.673  10.867 -0.2848 -0.1747 -0.0586
   85SAPS   O13 8026   3.227   4.799  10.829 -0.2607 -0.3820 -0.0420
   85SAPS   O14 8027   3.393   4.681  10.981  0.5077 -0.4235  0.3539
   85SAPS   O12 8028   3.186   4.557  10.899  0.4508 -0.1017 -0.3541
   85SAPS   O11 8029   3.374   4.619  10.744  0.0457 -1.0465  0.0104
   85SAPS    C1 8030   3.397   4.482  10.728 -0.4078  0.0981 -0.7172
   85SAPS    HA 8031   3.351   4.417  10.805 -2.7363  0.8407 -1.4036
   85SAPS    HB 8032   3.367   4.448  10.627  2.1509  1.7490 -2.1562
   85SAPS    C2 8033   3.554   4.465  10.724 -0.0024 -0.0314 -0.4036
   85SAPS    HS 8034   3.589   4.530  10.806 -0.0499  0.2744 -0.6241
   85SAPS   O21 8035   3.597   4.509  10.594 -0.2418 -0.1272 -0.9065
   85SAPS   C21 8036   3.730   4.517  10.585 -0.4305 -0.1198 -0.0168
   85SAPS   O22 8037   3.813   4.499  10.669  0.1638  0.5859 -0.1655
   85SAPS   C22 8038   3.779   4.562  10.444 -0.3346  0.1813  0.0980
   85SAPS   H2R 8039   3.695   4.598  10.381 -1.2493 -0.6038  0.8508
   85SAPS   H2S 8040   3.842   4.650  10.469  1.9309 -1.8952  2.1744
   85SAPS    C3 8041   3.596   4.318  10.757  0.4538 -0.0837  0.0404
   85SAPS    HX 8042   3.560   4.295  10.860 -1.2185  0.6738 -0.3397
   85SAPS    HY 8043   3.703   4.296  10.775  1.2435  2.0596 -1.6262
   85SAPS   O31 8044   3.521   4.232  10.667 -0.6730  0.2935  0.2687
   85SAPS   C31 8045   3.590   4.199  10.558  0.5643  0.3707  0.5860
   85SAPS   O32 8046   3.711   4.224  10.543 -0.3062 -0.1222 -0.1010
   85SAPS   C32 8047   3.501   4.116  10.460 -0.1004 -0.3158 -0.3694
   85SAPS   H2X 8048   3.392   4.133  10.474  0.0014 -1.4833  2.6951
   85SAPS   H2Y 8049   3.526   4.010  10.479  1.3260  0.0737  0.0622
   85SAPS   C23 8050   3.875   4.463  10.385  0.1253 -0.0783  0.8109
   85SAPS   H3R 8051   3.843   4.357  10.372 -0.4006  0.1121  0.5380
   85SAPS   H3S 8052   3.965   4.455  10.450  0.9015 -0.9409 -0.3335
   85SAPS   C24 8053   3.938   4.512  10.250  0.1010 -0.3146 -1.1163
   85SAPS   H4R 8054   4.012   4.440  10.208  0.5901 -0.3522 -0.2057
   85SAPS   H4S 8055   3.989   4.609  10.266 -1.2404  0.3615 -0.8343
   85SAPS   C25 8056   3.816   4.533  10.157 -0.0286  0.0853  0.1467
   85SAPS   H5R 8057   3.716   4.523  10.203  0.1333 -0.5705  0.3766
   85SAPS   C26 8058   3.819   4.557  10.021 -0.3761  0.5752  0.0704
   85SAPS   H6R 8059   3.730   4.545   9.957 -1.0040  1.1085  0.8329
   85SAPS   C27 8060   3.939   4.566   9.927 -0.1739  0.2901 -0.2492
   85SAPS   H7R 8061   4.016   4.612   9.994 -2.2815  1.5379  1.4531
   85SAPS   H7S 8062   3.927   4.639   9.844 -1.3610 -0.0042 -0.3454
   85SAPS   C28 8063   3.981   4.421   9.880  1.0081  0.8591 -0.6872
   85SAPS   H8R 8064   4.000   4.351   9.963 -1.2174  2.0737  0.9775
   85SAPS   C29 8065   3.989   4.376   9.755  0.0691 -0.3882  0.3938
   85SAPS   H9R 8066   4.011   4.268   9.743 -0.0871 -0.3364 -0.3764
   85SAPS  C210 8067   3.992   4.457   9.629 -0.5158  0.2329 -0.8326
   85SAPS  H10R 8068   4.097   4.478   9.601 -0.7724 -0.2600 -2.2486
   85SAPS  H10S 8069   3.950   4.559   9.638  2.6949  1.8157 -2.2712
   85SAPS  C211 8070   3.950   4.387   9.501 -0.0080  0.6832  0.7936
   85SAPS  H11R 8071   4.018   4.308   9.467 -1.0790 -0.0756  0.3467
   85SAPS  C212 8072   3.841   4.410   9.424  0.2582 -0.6935 -0.2168
   85SAPS  H12R 8073   3.841   4.361   9.326  0.3129  0.0621 -0.6070
   85SAPS  C213 8074   3.732   4.511   9.450  0.4808 -0.0604 -0.4296
   85SAPS  H13R 8075   3.722   4.534   9.558 -0.6594 -0.5530 -0.4176
   85SAPS  H13S 8076   3.634   4.475   9.412  0.3072  0.1108 -0.1402
   85SAPS  C214 8077   3.775   4.640   9.382  0.5228 -0.0348  0.5015
   85SAPS  H14R 8078   3.816   4.718   9.448  1.3937  0.4483 -0.5760
   85SAPS  C215 8079   3.744   4.674   9.255  0.0118 -0.0751 -0.4075
   85SAPS  H15R 8080   3.748   4.777   9.216 -0.0192  1.1316  2.4863
   85SAPS  C216 8081   3.675   4.587   9.161  0.1815 -0.4835 -0.0490
   85SAPS  H16R 8082   3.566   4.587   9.181  0.5328  3.0908  3.0310
   85SAPS  H16S 8083   3.708   4.481   9.169 -1.0894 -0.9075 -0.2245
   85SAPS  C217 8084   3.716   4.628   9.016  0.7019  0.6497  0.2180
   85SAPS  H17R 8085   3.826   4.628   9.006  0.6603 -1.0922 -0.7408
   85SAPS  H17S 8086   3.674   4.726   8.986 -0.6961  0.4563  1.4180
   85SAPS  C218 8087   3.678   4.524   8.914 -0.4098 -0.6337  0.5465
   85SAPS  H18R 8088   3.568   4.531   8.904 -0.1837  0.9452 -1.3339
   85SAPS  H18S 8089   3.710   4.422   8.947  0.4658 -0.5338  0.0343
   85SAPS  C219 8090   3.750   4.554   8.781 -0.1963 -0.1563  0.2165
   85SAPS  H19R 8091   3.856   4.576   8.803 -0.0731 -1.6115  1.2390
   85SAPS  H19S 8092   3.694   4.631   8.723 -2.5172 -0.9543  1.2708
   85SAPS  C220 8093   3.753   4.438   8.682  0.5770 -0.3319 -0.1508
   85SAPS  H20R 8094   3.654   4.401   8.647  0.3337  2.2054 -2.3870
   85SAPS  H20S 8095   3.806   4.359   8.741  0.6464 -0.5267 -0.4730
   85SAPS  H20T 8096   3.808   4.478   8.595 -0.0624 -3.8713 -2.4041
   85SAPS   C33 8097   3.552   4.143  10.314 -0.3947 -0.1144 -0.1727
   85SAPS   H3X 8098   3.533   4.050  10.256 -0.0317  0.4598 -1.2405
   85SAPS   H3Y 8099   3.661   4.152  10.293 -0.8600  1.2614 -2.3616
   85SAPS   C34 8100   3.484   4.266  10.256 -0.1595  0.1352  0.1983
   85SAPS   H4X 8101   3.501   4.346  10.331  0.7956 -0.8173  1.0319
   85SAPS   H4Y 8102   3.375   4.246  10.244 -0.3123  0.0977  1.5966
   85SAPS   C35 8103   3.541   4.301  10.118  0.8270  0.1248  0.6302
   85SAPS   H5X 8104   3.650   4.324  10.119  0.7141  0.7880  3.0879
   85SAPS   H5Y 8105   3.495   4.391  10.073 -0.5875 -1.1846 -0.6532
   85SAPS   C36 8106   3.526   4.188  10.010 -0.2524 -0.0068  0.3103
   85SAPS   H6X 8107   3.432   4.130  10.024  1.2272 -1.8360  4.0610
   85SAPS   H6Y 8108   3.616   4.125  10.028  0.5807  1.7996  3.2726
   85SAPS   C37 8109   3.535   4.255   9.866  0.1122  0.5203 -0.7522
   85SAPS   H7X 8110   3.614   4.329   9.843  2.5282 -1.8908 -0.7173
   85SAPS   H7Y 8111   3.443   4.315   9.848 -0.9258 -1.0111 -0.7824
   85SAPS   C38 8112   3.548   4.146   9.759 -0.5627 -0.0843 -0.1072
   85SAPS   H8X 8113   3.454   4.089   9.765 -0.1649 -0.5706  3.2921
   85SAPS   H8Y 8114   3.634   4.086   9.795 -0.5592 -1.2227 -1.8812
   85SAPS   C39 8115   3.580   4.211   9.620 -0.3222  0.1577 -0.3041
   85SAPS   H9X 8116   3.686   4.235   9.600 -0.4677  0.0955 -1.2045
   85SAPS   H9Y 8117   3.531   4.311   9.616 -0.1045  0.2599 -0.4452
   85SAPS  C310 8118   3.528   4.127   9.498 -0.0822  0.1105  1.0087
   85SAPS  H10X 8119   3.419   4.112   9.510 -0.2412 -0.6934 -1.0613
   85SAPS  H10Y 8120   3.581   4.030   9.499 -0.2012 -0.1609 -3.1997
   85SAPS  C311 8121   3.548   4.196   9.366  0.6290  1.1782  0.4307
   85SAPS  H11X 8122   3.650   4.196   9.321 -0.2062 -0.6705 -1.6670
   85SAPS  H11Y 8123   3.507   4.299   9.375 -0.6852  0.7668 -0.5356
   85SAPS  C312 8124   3.471   4.114   9.258 -0.0035 -0.4148  0.0704
   85SAPS  H12X 8125   3.365   4.116   9.291  0.6610  1.6429  2.3762
   85SAPS  H12Y 8126   3.512   4.014   9.281 -1.8140 -1.3666 -0.6322
   85SAPS  C313 8127   3.497   4.162   9.113  0.1777  0.3688 -0.1276
   85SAPS  H13X 8128   3.600   4.199   9.093  0.6602 -1.8379 -2.1884
   85SAPS  H13Y 8129   3.436   4.253   9.096 -1.4200 -0.4815  0.8229
   85SAPS  C314 8130   3.479   4.057   9.005  0.7199 -0.3891  0.4622
   85SAPS  H14X 8131   3.373   4.024   9.001  0.4568  0.4188 -3.0345
   85SAPS  H14Y 8132   3.533   3.963   9.031 -2.3818 -1.6657  2.9355
   85SAPS  C315 8133   3.533   4.106   8.877  0.6761 -0.2338 -0.2069
   85SAPS  H15X 8134   3.639   4.134   8.893  0.6153 -0.4289  0.5543
   85SAPS  H15Y 8135   3.479   4.202   8.862 -0.0469 -0.1197  2.5570
   85SAPS  C316 8136   3.512   4.003   8.762 -0.1201  0.0176  0.0493
   85SAPS  H16X 8137   3.411   3.958   8.774  0.6950 -2.1309 -0.6494
   85SAPS  H16Y 8138   3.584   3.918   8.767 -0.8547 -0.7765 -2.0477
   85SAPS  C317 8139   3.541   4.075   8.626  0.6574 -0.3635 -0.1450
   85SAPS  H17X 8140   3.545   3.993   8.551  0.8793 -0.0255 -0.5057
   85SAPS  H17Y 8141   3.640   4.124   8.642  0.8299 -1.4599  2.8948
   85SAPS  C318 8142   3.433   4.185   8.594 -0.4682  0.3953 -0.4842
   85SAPS  H18X 8143   3.441   4.281   8.649  1.8994  0.7957 -1.4005
   85SAPS  H18Y 8144   3.335   4.135   8.608 -0.3039 -0.0350 -0.8526
   85SAPS  H18Z 8145   3.444   4.200   8.484  1.3689 -2.4834 -0.7943
   86SAPS     N 8146   6.153   5.178  10.987 -0.4569  0.7258 -0.2953
   86SAPS   HN1 8147   6.176   5.128  11.076  0.1825  1.8082  0.1605
   86SAPS   HN2 8148   6.065   5.129  10.959  1.0572 -3.0538  0.8550
   86SAPS   HN3 8149   6.227   5.157  10.917 -0.4901  0.7059 -0.3243
   86SAPS   C12 8150   6.141   5.322  11.022  0.3845  0.1881  0.8026
   86SAPS  H12A 8151   6.067   5.326  11.100 -0.0655 -0.3348  0.4139
   86SAPS   C13 8152   6.282   5.377  11.065  0.5746  0.2811  0.1073
   86SAPS  O13A 8153   6.386   5.311  11.056 -0.2848  0.2524 -0.1434
   86SAPS  O13B 8154   6.288   5.492  11.117 -0.3173 -0.2663 -0.6761
   86SAPS   C11 8155   6.094   5.402  10.891 -0.3528  0.6410 -0.1347
   86SAPS  H11A 8156   6.173   5.395  10.813  0.4186  2.1706  0.4612
   86SAPS  H11B 8157   6.099   5.507  10.928  0.9384  0.0122  1.5932
   86SAPS     P 8158   5.920   5.427  10.713 -0.1547  0.1261 -0.3983
   86SAPS   O13 8159   5.776   5.405  10.699  0.6266 -0.2873  0.6714
   86SAPS   O14 8160   5.960   5.567  10.695 -0.3320 -0.1310 -0.1620
   86SAPS   O12 8161   5.969   5.364  10.853  0.4637 -0.1308 -0.1786
   86SAPS   O11 8162   5.998   5.346  10.598  0.2160  0.5697  0.0576
   86SAPS    C1 8163   6.017   5.208  10.609  0.1903 -0.6224  0.9349
   86SAPS    HA 8164   6.121   5.198  10.649  1.2257 -1.7183 -1.7985
   86SAPS    HB 8165   5.949   5.150  10.675 -1.3104  0.3265  0.2548
   86SAPS    C2 8166   6.017   5.165  10.457 -0.6560  0.1857  0.0873
   86SAPS    HS 8167   6.027   5.054  10.451 -0.0887  0.2578 -0.5000
   86SAPS   O21 8168   6.124   5.231  10.385 -0.2725  0.2305 -0.0526
   86SAPS   C21 8169   6.203   5.153  10.311  0.6251  0.2667 -0.1373
   86SAPS   O22 8170   6.189   5.034  10.290 -0.2503 -0.1021  0.1154
   86SAPS   C22 8171   6.315   5.240  10.254 -0.3591  0.1320 -0.2864
   86SAPS   H2R 8172   6.268   5.326  10.202 -0.5525  2.0042  2.7674
   86SAPS   H2S 8173   6.349   5.280  10.351 -1.1039 -1.1998  0.5673
   86SAPS    C3 8174   5.889   5.210  10.387  0.1754  0.9750  0.0090
   86SAPS    HX 8175   5.888   5.321  10.390 -0.6012  0.9784 -0.2416
   86SAPS    HY 8176   5.797   5.170  10.435  0.1923  0.0039 -0.7325
   86SAPS   O31 8177   5.880   5.145  10.258  0.1548  0.1190 -0.4991
   86SAPS   C31 8178   5.862   5.232  10.157  0.5043 -0.6077  0.5065
   86SAPS   O32 8179   5.846   5.351  10.172  0.2279  0.2435  0.6202
   86SAPS   C32 8180   5.878   5.165  10.019  0.5390 -0.8765  0.1932
   86SAPS   H2X 8181   5.860   5.056  10.029 -1.6015 -0.7415 -1.4413
   86SAPS   H2Y 8182   5.987   5.185  10.009 -0.2455  5.1828  0.4116
   86SAPS   C23 8183   6.436   5.168  10.191  0.4433 -0.2172  0.3481
   86SAPS   H3R 8184   6.442   5.064  10.228 -1.0478 -0.3666  0.2102
   86SAPS   H3S 8185   6.525   5.230  10.218  0.8102 -0.9027  0.7390
   86SAPS   C24 8186   6.427   5.171  10.029 -0.1646 -0.2676 -0.8130
   86SAPS   H4R 8187   6.529   5.142   9.997 -0.8460 -2.3179 -1.2486
   86SAPS   H4S 8188   6.413   5.279  10.006  2.2928  1.1131  3.1344
   86SAPS   C25 8189   6.322   5.073   9.978 -0.6117  0.1085 -0.4438
   86SAPS   H5R 8190   6.298   4.991  10.047  0.1032  0.2225 -0.0506
   86SAPS   C26 8191   6.248   5.073   9.867  0.1285  0.6808  1.2659
   86SAPS   H6R 8192   6.174   4.995   9.850 -0.9120  1.5974  1.4833
   86SAPS   C27 8193   6.260   5.168   9.744 -0.0451  0.2475  0.3044
   86SAPS   H7R 8194   6.317   5.260   9.769  3.7949 -1.8683  0.1241
   86SAPS   H7S 8195   6.165   5.215   9.712 -1.2988 -1.1163  1.8594
   86SAPS   C28 8196   6.326   5.097   9.631  0.2424  0.0178 -0.1683
   86SAPS   H8R 8197   6.436   5.104   9.629  0.4188 -0.4328  3.1945
   86SAPS   C29 8198   6.273   5.016   9.534  0.3884 -0.6923 -0.2798
   86SAPS   H9R 8199   6.341   4.964   9.465  0.4202 -0.2431 -0.5925
   86SAPS  C210 8200   6.129   4.982   9.520  0.1907  0.3233 -0.6931
   86SAPS  H10R 8201   6.066   5.029   9.598  0.4729 -1.5390  0.7188
   86SAPS  H10S 8202   6.116   4.872   9.533 -2.0188  0.8090  2.3505
   86SAPS  C211 8203   6.078   5.027   9.391  0.3080 -0.5258  0.5674
   86SAPS  H11R 8204   6.043   5.131   9.389  0.9544 -0.2254  2.6750
   86SAPS  C212 8205   6.094   4.950   9.282 -0.2825 -0.5163 -0.0599
   86SAPS  H12R 8206   6.045   4.990   9.192  0.5161  2.2317  0.6494
   86SAPS  C213 8207   6.144   4.803   9.280  0.5732 -0.0513  0.1889
   86SAPS  H13R 8208   6.191   4.780   9.378 -1.2809  0.3739  1.2287
   86SAPS  H13S 8209   6.212   4.817   9.193 -2.1780 -1.6145 -2.4015
   86SAPS  C214 8210   6.044   4.698   9.244 -0.2288  0.1349 -0.3894
   86SAPS  H14R 8211   5.996   4.655   9.333 -0.0641  1.5701  0.4232
   86SAPS  C215 8212   5.995   4.657   9.126 -0.2062  0.2863 -0.2024
   86SAPS  H15R 8213   5.924   4.573   9.121 -0.7681  0.8350 -1.9989
   86SAPS  C216 8214   6.035   4.704   8.991  0.0313 -0.0478 -0.4841
   86SAPS  H16R 8215   6.056   4.607   8.941 -0.3770  0.2743 -1.2996
   86SAPS  H16S 8216   6.136   4.750   8.992  0.9684 -2.0159  0.5892
   86SAPS  C217 8217   5.937   4.793   8.907 -0.5148 -0.2245 -0.6421
   86SAPS  H17R 8218   5.899   4.873   8.974  0.1122  0.3114 -0.9029
   86SAPS  H17S 8219   5.854   4.726   8.878 -1.0428  0.3599 -0.5072
   86SAPS  C218 8220   6.000   4.846   8.778 -0.0415  0.4581 -0.6586
   86SAPS  H18R 8221   5.991   4.782   8.688  2.6078  0.1371 -0.7748
   86SAPS  H18S 8222   6.110   4.862   8.786 -0.0202  0.0985 -0.2356
   86SAPS  C219 8223   5.942   4.985   8.750  0.6394  0.2881 -0.2985
   86SAPS  H19R 8224   5.980   5.068   8.813  1.5097 -1.0655  1.0187
   86SAPS  H19S 8225   5.835   4.982   8.781  0.5585  2.9018 -0.1147
   86SAPS  C220 8226   5.924   5.018   8.603  0.1846 -0.4986 -0.3283
   86SAPS  H20R 8227   6.017   5.006   8.544 -0.3735  1.2469 -1.6491
   86SAPS  H20S 8228   5.889   5.121   8.582 -1.5131  0.0603  4.1299
   86SAPS  H20T 8229   5.850   4.958   8.546 -0.7825  1.3514 -1.0970
   86SAPS   C33 8230   5.794   5.232   9.908 -0.3625 -0.0163 -0.2005
   86SAPS   H3X 8231   5.795   5.343   9.918 -1.8237  0.0154 -0.2200
   86SAPS   H3Y 8232   5.690   5.199   9.924 -0.0307 -2.0962 -1.9078
   86SAPS   C34 8233   5.857   5.201   9.771  0.0308 -0.0651  0.3685
   86SAPS   H4X 8234   5.843   5.092   9.754 -0.5069  0.1505 -0.6570
   86SAPS   H4Y 8235   5.967   5.214   9.786 -0.1232  0.0923  1.4102
   86SAPS   C35 8236   5.804   5.275   9.651  0.0239 -0.0616 -0.0340
   86SAPS   H5X 8237   5.869   5.248   9.565  0.2197  2.8055 -0.9095
   86SAPS   H5Y 8238   5.814   5.384   9.673  3.4391 -0.4702  0.9466
   86SAPS   C36 8239   5.667   5.227   9.618 -0.2987  0.6149 -0.2134
   86SAPS   H6X 8240   5.596   5.235   9.702 -0.1613  1.8006 -0.1982
   86SAPS   H6Y 8241   5.676   5.118   9.597  1.0322  0.0323  2.8412
   86SAPS   C37 8242   5.617   5.292   9.494 -0.0096 -0.5336  0.0958
   86SAPS   H7X 8243   5.623   5.403   9.502 -1.8473 -0.2262 -1.7980
   86SAPS   H7Y 8244   5.508   5.271   9.489 -0.8891  3.2628  0.2295
   86SAPS   C38 8245   5.686   5.237   9.365  0.6675 -0.4353 -0.2299
   86SAPS   H8X 8246   5.793   5.265   9.362  0.6102 -0.2251 -2.8055
   86SAPS   H8Y 8247   5.640   5.287   9.276  1.1337 -1.4280 -1.0546
   86SAPS   C39 8248   5.673   5.084   9.340 -0.8217  0.4398 -0.0023
   86SAPS   H9X 8249   5.573   5.044   9.366 -0.7044 -0.4352 -0.8345
   86SAPS   H9Y 8250   5.738   5.038   9.418  0.6723  0.9559 -0.8983
   86SAPS  C310 8251   5.698   5.042   9.194 -0.8251 -0.2455  0.0990
   86SAPS  H10X 8252   5.722   4.934   9.202  1.3148  0.3027  2.3831
   86SAPS  H10Y 8253   5.795   5.085   9.158  0.4732 -2.8992  0.1593
   86SAPS  C311 8254   5.578   5.071   9.099 -0.5676  0.2079 -0.2149
   86SAPS  H11X 8255   5.528   5.170   9.111 -1.3159  0.2255 -2.8519
   86SAPS  H11Y 8256   5.492   5.002   9.113 -1.9767  1.4148 -2.2978
   86SAPS  C312 8257   5.615   5.080   8.950 -0.1552 -0.0580  0.9577
   86SAPS  H12X 8258   5.637   4.975   8.920  1.2954  1.0234 -2.1752
   86SAPS  H12Y 8259   5.706   5.143   8.941 -0.5248  0.3232 -0.3134
   86SAPS  C313 8260   5.496   5.135   8.873  0.1031  0.0039  0.0808
   86SAPS  H13X 8261   5.479   5.241   8.903  0.6096  0.6568 -1.7705
   86SAPS  H13Y 8262   5.423   5.054   8.890  1.9801 -2.5617 -2.9926
   86SAPS  C314 8263   5.517   5.129   8.723  0.5166 -0.5864  0.3391
   86SAPS  H14X 8264   5.624   5.141   8.692  0.4416 -1.2551 -0.1913
   86SAPS  H14Y 8265   5.460   5.211   8.674  0.9163 -1.1898 -1.1839
   86SAPS  C315 8266   5.471   4.997   8.652  0.0456 -0.7389  0.0510
   86SAPS  H15X 8267   5.366   4.971   8.679  0.1094 -0.9621  0.0841
   86SAPS  H15Y 8268   5.533   4.914   8.692 -1.0240 -0.4299  2.5341
   86SAPS  C316 8269   5.504   5.000   8.499  0.5280  0.2976 -0.3003
   86SAPS  H16X 8270   5.483   4.903   8.450  0.4028  1.2082 -2.1007
   86SAPS  H16Y 8271   5.615   5.008   8.493  0.7767 -1.1295  1.3717
   86SAPS  C317 8272   5.442   5.121   8.433 -0.1224  0.3698 -0.0388
   86SAPS  H17X 8273   5.490   5.210   8.479  0.3489 -0.2691  0.7307
   86SAPS  H17Y 8274   5.331   5.111   8.442  0.0185 -2.1824 -0.5341
   86SAPS  C318 8275   5.465   5.135   8.278  0.1897  0.6358 -0.4100
   86SAPS  H18X 8276   5.411   5.222   8.235 -2.3683 -0.2227  0.8556
   86SAPS  H18Y 8277   5.422   5.048   8.223 -3.7509  1.4337  1.0798
   86SAPS  H18Z 8278   5.572   5.133   8.249  0.1332  0.0359 -0.5891
   87SAPS     N 8279   5.165   4.953  10.695  0.2395  0.3108 -0.1222
   87SAPS   HN1 8280   5.218   4.985  10.779  0.2664 -1.1262  0.4367
   87SAPS   HN2 8281   5.151   4.850  10.700  0.3806  0.2199 -1.2461
   87SAPS   HN3 8282   5.222   4.971  10.610 -0.9057 -1.0175 -1.2339
   87SAPS   C12 8283   5.037   5.033  10.693  0.0859  0.0151 -0.0330
   87SAPS  H12A 8284   4.989   5.010  10.599  1.2339 -1.4416 -0.3103
   87SAPS   C13 8285   4.944   5.013  10.809  0.3809 -0.0383 -0.4285
   87SAPS  O13A 8286   4.972   4.939  10.912  0.1643  0.2053  1.2434
   87SAPS  O13B 8287   4.832   5.069  10.803 -0.2939  0.7702 -0.0393
   87SAPS   C11 8288   5.073   5.185  10.686 -0.4928 -0.8300  0.7274
   87SAPS  H11A 8289   4.977   5.240  10.683 -1.0881 -1.7561  1.9464
   87SAPS  H11B 8290   5.126   5.200  10.589  1.8733 -2.0108  1.7533
   87SAPS     P 8291   5.169   5.380  10.829  0.0854  0.2512  0.0743
   87SAPS   O13 8292   5.051   5.414  10.908 -0.1081  0.4207 -0.2247
   87SAPS   O14 8293   5.302   5.397  10.893 -0.2517 -0.0498  0.3184
   87SAPS   O12 8294   5.157   5.227  10.788 -0.4074 -0.0125 -0.2633
   87SAPS   O11 8295   5.172   5.460  10.691  0.4955 -0.5096 -0.0825
   87SAPS    C1 8296   5.302   5.502  10.632  0.4158  0.0846 -0.8192
   87SAPS    HA 8297   5.286   5.599  10.580 -1.6396  0.0132 -0.4046
   87SAPS    HB 8298   5.384   5.527  10.702  1.0180  2.9796 -2.4177
   87SAPS    C2 8299   5.354   5.408  10.517 -0.1403 -1.0168 -0.1427
   87SAPS    HS 8300   5.419   5.473  10.455 -0.9212 -1.5224 -1.5276
   87SAPS   O21 8301   5.246   5.348  10.436  0.3343  0.1961  0.5889
   87SAPS   C21 8302   5.176   5.436  10.368  0.8529 -0.6456 -0.2223
   87SAPS   O22 8303   5.194   5.556  10.363 -0.0493  0.0396 -0.2533
   87SAPS   C22 8304   5.059   5.366  10.301 -0.0775 -0.2912 -0.6523
   87SAPS   H2R 8305   5.064   5.258  10.326 -0.5388  0.1296  1.3754
   87SAPS   H2S 8306   4.971   5.407  10.354  0.8296  0.9167 -0.0329
   87SAPS    C3 8307   5.439   5.287  10.574 -0.1248 -0.1687 -0.3683
   87SAPS    HX 8308   5.374   5.231  10.645 -0.3431  1.0506  0.4333
   87SAPS    HY 8309   5.521   5.333  10.634 -1.0048  1.5043 -0.3698
   87SAPS   O31 8310   5.487   5.208  10.474 -0.0240 -0.4375  0.9371
   87SAPS   C31 8311   5.429   5.095  10.443  0.1638 -0.0474  0.0464
   87SAPS   O32 8312   5.342   5.038  10.513 -0.3638 -0.5428  0.4604
   87SAPS   C32 8313   5.485   5.057  10.310 -0.4597 -0.0490  0.0596
   87SAPS   H2X 8314   5.579   4.998  10.324  0.8321  1.8698 -0.1659
   87SAPS   H2Y 8315   5.523   5.148  10.259 -2.0721  1.9483  2.2394
   87SAPS   C23 8316   5.047   5.392  10.153  0.7310 -0.2114  0.5787
   87SAPS   H3R 8317   5.065   5.497  10.119  0.0039 -0.4488 -0.5996
   87SAPS   H3S 8318   4.941   5.375  10.126  0.6095  0.1500  0.8264
   87SAPS   C24 8319   5.132   5.294  10.066 -0.4458 -0.0279  0.8745
   87SAPS   H4R 8320   5.121   5.190  10.104  0.4852 -0.8747 -1.0458
   87SAPS   H4S 8321   5.231   5.345  10.067  0.0674 -0.7370 -2.3962
   87SAPS   C25 8322   5.093   5.286   9.920 -0.2920  0.0503 -0.0080
   87SAPS   H5R 8323   5.006   5.221   9.903  0.9267 -1.5039 -0.5562
   87SAPS   C26 8324   5.160   5.340   9.822  0.2381 -0.6199  0.2741
   87SAPS   H6R 8325   5.134   5.309   9.719  1.9377 -1.2723  0.0082
   87SAPS   C27 8326   5.272   5.443   9.831 -0.5560 -0.3426 -0.2859
   87SAPS   H7R 8327   5.346   5.424   9.750  0.8379 -0.3231  0.9368
   87SAPS   H7S 8328   5.342   5.423   9.915  1.8246 -3.7462 -2.7556
   87SAPS   C28 8329   5.227   5.584   9.815 -0.4198  0.0949  0.2766
   87SAPS   H8R 8330   5.197   5.627   9.912  0.0437  1.8133 -0.3185
   87SAPS   C29 8331   5.220   5.660   9.708  0.3161 -0.1595 -0.2379
   87SAPS   H9R 8332   5.207   5.768   9.728  2.4203  0.0647  0.0945
   87SAPS  C210 8333   5.245   5.621   9.560  0.0133 -0.7209  0.6547
   87SAPS  H10R 8334   5.245   5.510   9.555 -2.5587 -0.8136  1.2632
   87SAPS  H10S 8335   5.351   5.637   9.530 -1.3581  2.2716 -3.4922
   87SAPS  C211 8336   5.147   5.687   9.464  0.0459  0.0155 -0.3990
   87SAPS  H11R 8337   5.044   5.682   9.502  0.3982 -0.3389  0.5311
   87SAPS  C212 8338   5.171   5.744   9.344  0.4026  0.3108  0.4347
   87SAPS  H12R 8339   5.089   5.802   9.299 -0.2646 -1.8018 -1.2454
   87SAPS  C213 8340   5.307   5.761   9.281  0.3882  0.5251  0.4286
   87SAPS  H13R 8341   5.379   5.688   9.325 -1.7810 -0.9697  1.6835
   87SAPS  H13S 8342   5.348   5.856   9.320 -0.4931  1.3215 -0.5420
   87SAPS  C214 8343   5.314   5.768   9.129 -0.8726 -0.3891 -0.1258
   87SAPS  H14R 8344   5.346   5.867   9.094  0.1396  0.3500  2.6408
   87SAPS  C215 8345   5.296   5.662   9.044 -0.5234  0.2918 -0.2849
   87SAPS  H15R 8346   5.298   5.678   8.935 -1.0773 -1.8353 -0.6509
   87SAPS  C216 8347   5.270   5.525   9.095  0.6587 -0.4662 -0.4616
   87SAPS  H16R 8348   5.254   5.516   9.204 -0.9136  1.8044 -0.4307
   87SAPS  H16S 8349   5.364   5.471   9.075  0.4968 -0.6021 -0.8716
   87SAPS  C217 8350   5.159   5.443   9.022 -0.3812 -0.0893  0.4476
   87SAPS  H17R 8351   5.059   5.483   9.049  0.2998  0.8628  1.6783
   87SAPS  H17S 8352   5.179   5.343   9.066 -0.9815  0.1105  1.1997
   87SAPS  C218 8353   5.172   5.451   8.873  0.5519  0.1639 -0.8347
   87SAPS  H18R 8354   5.267   5.403   8.844 -0.2874  0.0785 -3.7904
   87SAPS  H18S 8355   5.170   5.557   8.841  0.1199 -0.2002 -2.0804
   87SAPS  C219 8356   5.077   5.350   8.797  0.4116 -0.3667  0.1285
   87SAPS  H19R 8357   4.971   5.378   8.812  0.2135 -0.5119 -0.9366
   87SAPS  H19S 8358   5.097   5.249   8.840 -1.2748 -0.6473  0.3064
   87SAPS  C220 8359   5.092   5.372   8.644  0.0168  0.0762  0.0564
   87SAPS  H20R 8360   5.200   5.372   8.616 -0.9003 -0.5816 -4.1936
   87SAPS  H20S 8361   5.039   5.463   8.610  0.0059  0.2375  0.5019
   87SAPS  H20T 8362   5.051   5.281   8.594 -0.7024  0.3417  0.1522
   87SAPS   C33 8363   5.376   4.977  10.238 -0.1362  0.6462  0.0839
   87SAPS   H3X 8364   5.275   5.021  10.251 -1.0188 -0.9265 -1.0415
   87SAPS   H3Y 8365   5.375   4.878  10.289 -2.2042  1.3158  1.4857
   87SAPS   C34 8366   5.402   4.976  10.087  0.6667 -0.4370 -0.2511
   87SAPS   H4X 8367   5.402   5.084  10.059 -0.1382 -0.2113  0.5825
   87SAPS   H4Y 8368   5.314   4.939  10.030  0.8826  2.2026 -2.5150
   87SAPS   C35 8369   5.535   4.901  10.047 -0.1006 -0.7521 -0.3615
   87SAPS   H5X 8370   5.523   4.796  10.082 -1.6518 -0.1214  1.1272
   87SAPS   H5Y 8371   5.626   4.943  10.096 -0.9163  1.1223 -0.3786
   87SAPS   C36 8372   5.547   4.897   9.888 -0.1643 -0.1191 -0.2487
   87SAPS   H6X 8373   5.571   4.999   9.849  0.7013 -0.6081 -1.0538
   87SAPS   H6Y 8374   5.460   4.855   9.834 -1.4367 -0.1696  1.7439
   87SAPS   C37 8375   5.666   4.819   9.840 -0.3835 -0.1519 -1.3044
   87SAPS   H7X 8376   5.655   4.721   9.891 -1.9207 -0.3909 -2.0432
   87SAPS   H7Y 8377   5.762   4.864   9.874 -0.3018 -0.3732 -1.2369
   87SAPS   C38 8378   5.673   4.795   9.695 -0.5875  0.7972 -0.3694
   87SAPS   H8X 8379   5.673   4.887   9.634  1.0194  0.3325 -1.0955
   87SAPS   H8Y 8380   5.579   4.738   9.675  0.0582 -0.9129  1.1173
   87SAPS   C39 8381   5.786   4.696   9.642  0.7316 -0.6223 -1.6241
   87SAPS   H9X 8382   5.812   4.625   9.723 -2.2147 -2.7325 -2.3682
   87SAPS   H9Y 8383   5.874   4.758   9.615  1.5052 -2.3099 -3.1492
   87SAPS  C310 8384   5.743   4.614   9.526  0.1043 -0.0470  0.4517
   87SAPS  H10X 8385   5.668   4.544   9.568  1.2552 -0.7798  1.3702
   87SAPS  H10Y 8386   5.832   4.554   9.494  0.7974  2.1410 -2.1649
   87SAPS  C311 8387   5.696   4.690   9.399  1.0805  0.4761 -0.8478
   87SAPS  H11X 8388   5.776   4.754   9.357  1.5022  2.8305  3.0325
   87SAPS  H11Y 8389   5.619   4.762   9.433 -1.3395 -1.8842 -0.9680
   87SAPS  C312 8390   5.649   4.575   9.306 -0.6971 -0.9382 -0.0189
   87SAPS  H12X 8391   5.569   4.529   9.369  2.6047 -2.2624  3.6130
   87SAPS  H12Y 8392   5.727   4.498   9.290 -0.0640 -0.2227 -0.4331
   87SAPS  C313 8393   5.606   4.649   9.177 -0.2516  0.6361  0.2089
   87SAPS  H13X 8394   5.695   4.702   9.137 -0.0011  1.6046  1.9421
   87SAPS  H13Y 8395   5.551   4.742   9.200 -1.3233 -0.0379  0.4366
   87SAPS  C314 8396   5.537   4.567   9.068 -0.2522 -0.4763  0.9083
   87SAPS  H14X 8397   5.463   4.493   9.106 -2.7085  0.8356 -1.0426
   87SAPS  H14Y 8398   5.616   4.509   9.015  0.8047  0.9096  0.9196
   87SAPS  C315 8399   5.486   4.656   8.953  0.6309 -0.0460 -0.4948
   87SAPS  H15X 8400   5.560   4.723   8.905  1.1303  1.0505  1.6778
   87SAPS  H15Y 8401   5.410   4.724   8.998  1.1639  0.7533 -0.7944
   87SAPS  C316 8402   5.403   4.570   8.869  1.1129 -0.2365  0.6682
   87SAPS  H16X 8403   5.326   4.639   8.827 -0.2658 -1.0012  1.8585
   87SAPS  H16Y 8404   5.351   4.491   8.928  1.4498 -0.4331  0.7030
   87SAPS  C317 8405   5.474   4.505   8.754  0.0041 -0.1361 -0.1394
   87SAPS  H17X 8406   5.410   4.423   8.715 -1.3214  0.5388  0.5399
   87SAPS  H17Y 8407   5.569   4.465   8.795 -0.0912 -1.4374 -1.1380
   87SAPS  C318 8408   5.505   4.591   8.632 -0.0633  0.1327  0.0116
   87SAPS  H18X 8409   5.414   4.625   8.578  1.2767  1.4273 -1.5507
   87SAPS  H18Y 8410   5.574   4.534   8.566  0.9562  1.7482 -0.3906
   87SAPS  H18Z 8411   5.548   4.687   8.669 -0.3073  0.4070 -0.4133
   88SAPS     N 8412   2.035   4.985  10.982 -0.3915  0.2019  0.3000
   88SAPS   HN1 8413   2.021   4.994  10.880 -0.8636 -1.0505  0.2367
   88SAPS   HN2 8414   2.063   5.075  11.025 -1.6023  2.0068 -2.4709
   88SAPS   HN3 8415   2.099   4.903  10.996 -0.6171 -0.0506 -0.1291
   88SAPS   C12 8416   1.901   4.956  11.047  0.0719 -0.3203 -0.8828
   88SAPS  H12A 8417   1.926   4.903  11.137  0.1662 -0.0423 -0.7471
   88SAPS   C13 8418   1.814   5.084  11.078 -0.2962  0.5111 -1.0046
   88SAPS  O13A 8419   1.855   5.196  11.046  0.5060 -0.5216 -0.0383
   88SAPS  O13B 8420   1.699   5.072  11.132 -0.2149 -0.2640 -0.1966
   88SAPS   C11 8421   1.824   4.855  10.954  0.9635 -0.4363  0.1332
   88SAPS  H11A 8422   1.802   4.915  10.863  1.5234  0.5290  0.6217
   88SAPS  H11B 8423   1.728   4.827  11.001 -0.0801  1.7609 -0.5375
   88SAPS     P 8424   1.834   4.641  10.814 -0.2397 -0.2512 -0.0421
   88SAPS   O13 8425   1.777   4.526  10.884 -0.2041  0.0153  0.4147
   88SAPS   O14 8426   1.753   4.712  10.710 -0.4988 -0.1434 -0.5450
   88SAPS   O12 8427   1.899   4.743  10.919 -0.0590 -0.6642  0.1964
   88SAPS   O11 8428   1.964   4.582  10.747  1.0049 -0.3256 -0.4878
   88SAPS    C1 8429   2.058   4.644  10.664 -0.9547  0.0779  0.7311
   88SAPS    HA 8430   2.087   4.739  10.713 -2.5075  0.8339  0.2500
   88SAPS    HB 8431   2.144   4.574  10.661  0.7832  1.9865  2.3326
   88SAPS    C2 8432   2.015   4.686  10.519  0.1430  0.3377  0.0763
   88SAPS    HS 8433   1.947   4.772  10.533 -0.5557 -0.3510  1.0889
   88SAPS   O21 8434   1.955   4.564  10.468 -0.4763 -0.5529 -0.7465
   88SAPS   C21 8435   1.824   4.583  10.438 -0.2779  0.7488 -0.1696
   88SAPS   O22 8436   1.766   4.689  10.420 -0.0862  0.4353  0.1804
   88SAPS   C22 8437   1.761   4.444  10.425  0.0437 -0.0243 -0.4993
   88SAPS   H2R 8438   1.772   4.382  10.516  2.5596 -0.6356 -1.1410
   88SAPS   H2S 8439   1.656   4.472  10.399  0.5889  0.6160 -2.1428
   88SAPS    C3 8440   2.134   4.730  10.426  0.4743  0.1505  0.1112
   88SAPS    HX 8441   2.181   4.635  10.393 -1.0290 -0.7990  0.5924
   88SAPS    HY 8442   2.208   4.787  10.485 -0.1281  2.2799 -1.0940
   88SAPS   O31 8443   2.094   4.803  10.306 -0.5041 -0.2124 -0.3510
   88SAPS   C31 8444   2.055   4.929  10.330  0.3208  0.6066  0.0530
   88SAPS   O32 8445   2.090   4.992  10.425  0.3875  0.2804 -0.2453
   88SAPS   C32 8446   1.988   4.991  10.204 -0.0906 -0.3318  0.0652
   88SAPS   H2X 8447   1.988   4.912  10.126  1.4189 -0.0135 -0.2875
   88SAPS   H2Y 8448   2.068   5.060  10.169  0.2685 -0.8335 -0.1028
   88SAPS   C23 8449   1.829   4.371  10.309  0.6738  0.9933  0.0198
   88SAPS   H3R 8450   1.773   4.277  10.288  3.0213 -0.0361 -2.1479
   88SAPS   H3S 8451   1.927   4.342  10.354  1.6946  2.9730 -0.7838
   88SAPS   C24 8452   1.870   4.446  10.182  0.1339 -0.0584 -0.2596
   88SAPS   H4R 8453   1.930   4.539  10.193 -3.1730  2.3513 -1.2181
   88SAPS   H4S 8454   1.771   4.473  10.140 -0.6183 -1.3962  0.5872
   88SAPS   C25 8455   1.930   4.350  10.085 -0.2833 -0.0174 -0.5422
   88SAPS   H5R 8456   1.878   4.254  10.077 -1.5617  0.5246  0.8733
   88SAPS   C26 8457   2.050   4.367  10.025  0.4136 -1.2716 -0.5909
   88SAPS   H6R 8458   2.085   4.297   9.948 -0.0010  0.5355 -2.5393
   88SAPS   C27 8459   2.145   4.487  10.039  0.2836  0.2716  0.9433
   88SAPS   H7R 8460   2.204   4.485  10.133 -1.7749  1.3771  2.3233
   88SAPS   H7S 8461   2.083   4.577  10.021 -2.3144 -1.9731 -2.5638
   88SAPS   C28 8462   2.231   4.500   9.919  0.7518  0.3932  0.0241
   88SAPS   H8R 8463   2.269   4.399   9.894 -1.4875 -0.8077  1.2025
   88SAPS   C29 8464   2.270   4.614   9.857 -0.0892 -0.4496  0.2887
   88SAPS   H9R 8465   2.333   4.615   9.767  1.2490  1.1457  1.1811
   88SAPS  C210 8466   2.224   4.753   9.897  0.8916 -0.4209 -0.5680
   88SAPS  H10R 8467   2.292   4.823   9.843 -1.2003  0.9865 -1.5269
   88SAPS  H10S 8468   2.237   4.770  10.006 -0.2810 -0.2048 -0.4478
   88SAPS  C211 8469   2.085   4.788   9.847 -0.7204  0.1621  0.0550
   88SAPS  H11R 8470   2.005   4.747   9.911 -1.6820  1.0097 -0.5599
   88SAPS  C212 8471   2.058   4.856   9.735  0.4175  0.2176 -0.1681
   88SAPS  H12R 8472   1.951   4.878   9.715  0.0957 -0.9142  0.2351
   88SAPS  C213 8473   2.159   4.907   9.636  0.5510 -0.1495  0.3766
   88SAPS  H13R 8474   2.161   4.837   9.549 -1.0953 -1.5898  1.4279
   88SAPS  H13S 8475   2.263   4.905   9.673  1.0964  4.3485 -0.4561
   88SAPS  C214 8476   2.119   5.046   9.583  0.1041 -0.0187  0.7114
   88SAPS  H14R 8477   2.112   5.121   9.663  1.2793  0.6387  0.2312
   88SAPS  C215 8478   2.082   5.086   9.456 -0.0403 -0.0887 -0.2834
   88SAPS  H15R 8479   2.047   5.190   9.449  0.4236 -0.0300 -2.7433
   88SAPS  C216 8480   2.068   5.015   9.325 -0.6902  0.4747  0.4143
   88SAPS  H16R 8481   2.136   4.928   9.314 -2.0592 -0.4905 -0.7031
   88SAPS  H16S 8482   2.093   5.080   9.238  1.8900 -0.9980 -0.0721
   88SAPS  C217 8483   1.923   4.962   9.313 -0.1247  1.3263  0.0244
   88SAPS  H17R 8484   1.863   5.056   9.312 -2.6726 -0.0450  3.2753
   88SAPS  H17S 8485   1.895   4.907   9.406  0.5614  2.7243  1.0965
   88SAPS  C218 8486   1.897   4.862   9.206 -0.4500  0.1234 -0.0592
   88SAPS  H18R 8487   1.874   4.766   9.256 -0.4864 -0.6032 -1.4111
   88SAPS  H18S 8488   1.981   4.866   9.134  0.8328 -0.7520  1.3440
   88SAPS  C219 8489   1.779   4.920   9.119 -0.1417  0.0434 -0.5202
   88SAPS  H19R 8490   1.816   5.019   9.084 -0.0493 -0.1372 -0.9328
   88SAPS  H19S 8491   1.697   4.924   9.194  0.7923  2.2120  0.4661
   88SAPS  C220 8492   1.754   4.844   8.982 -0.2181 -0.0130 -0.5808
   88SAPS  H20R 8493   1.668   4.889   8.928  0.6300 -1.0264 -2.9056
   88SAPS  H20S 8494   1.741   4.737   9.008  0.5421 -0.0836 -0.4489
   88SAPS  H20T 8495   1.846   4.854   8.920  0.8862  0.6195  1.0810
   88SAPS   C33 8496   1.857   5.068  10.250 -0.8105 -0.4724  0.0251
   88SAPS   H3X 8497   1.892   5.151  10.315  0.8678 -1.9592  1.1255
   88SAPS   H3Y 8498   1.793   4.994  10.303  0.1902  0.1307  2.1896
   88SAPS   C34 8499   1.769   5.132  10.144  0.2577  0.0900  0.3848
   88SAPS   H4X 8500   1.838   5.192  10.082 -2.6288  0.4376 -2.7935
   88SAPS   H4Y 8501   1.694   5.195  10.197 -0.7043 -1.3677  0.8340
   88SAPS   C35 8502   1.699   5.018  10.060  0.1913 -0.1097  0.1830
   88SAPS   H5X 8503   1.624   4.968  10.125 -1.4167  0.8408 -0.8822
   88SAPS   H5Y 8504   1.763   4.934  10.025 -0.0443 -0.8726  1.5220
   88SAPS   C36 8505   1.623   5.079   9.939 -0.0920  0.8102 -0.7237
   88SAPS   H6X 8506   1.575   5.166   9.988 -0.4057 -0.7765  2.0108
   88SAPS   H6Y 8507   1.541   5.010   9.910 -1.4942  1.0555  2.2813
   88SAPS   C37 8508   1.706   5.117   9.822 -0.5188 -0.1923  0.2484
   88SAPS   H7X 8509   1.711   5.027   9.757  2.6734 -0.9167  1.2852
   88SAPS   H7Y 8510   1.810   5.137   9.856  0.1000 -2.5525 -0.0967
   88SAPS   C38 8511   1.648   5.240   9.755  0.0165 -0.2757 -0.1851
   88SAPS   H8X 8512   1.661   5.324   9.827  0.1833 -0.0616 -0.4649
   88SAPS   H8Y 8513   1.540   5.233   9.729  0.1426 -2.4722 -0.2697
   88SAPS   C39 8514   1.730   5.279   9.633  0.2924  0.6755 -0.4411
   88SAPS   H9X 8515   1.835   5.247   9.652  0.1025  0.7357  0.8107
   88SAPS   H9Y 8516   1.730   5.388   9.612 -1.0123  0.6565 -0.5999
   88SAPS  C310 8517   1.691   5.201   9.511  0.0577 -0.3772  0.6290
   88SAPS  H10X 8518   1.704   5.091   9.524  3.8957 -0.6084 -2.9423
   88SAPS  H10Y 8519   1.760   5.213   9.425 -0.9055  0.3456 -0.0682
   88SAPS  C311 8520   1.560   5.257   9.452  0.3667  0.0141  0.4275
   88SAPS  H11X 8521   1.557   5.367   9.434 -0.3768 -0.0710 -0.0141
   88SAPS  H11Y 8522   1.471   5.224   9.509 -0.4727 -0.3321 -1.0290
   88SAPS  C312 8523   1.558   5.205   9.313 -0.3104 -0.2392 -0.1527
   88SAPS  H12X 8524   1.548   5.096   9.326 -1.4286  0.1529  3.2627
   88SAPS  H12Y 8525   1.655   5.233   9.265  0.9552 -2.1839  1.1233
   88SAPS  C313 8526   1.441   5.258   9.231 -0.0099  0.2126 -0.4305
   88SAPS  H13X 8527   1.442   5.369   9.230  2.5302  0.2900  1.3944
   88SAPS  H13Y 8528   1.348   5.228   9.284  0.0223 -0.0640 -0.5315
   88SAPS  C314 8529   1.449   5.198   9.093  0.0473 -0.3941  0.2566
   88SAPS  H14X 8530   1.451   5.087   9.099  1.4233 -0.6635 -2.9561
   88SAPS  H14Y 8531   1.547   5.221   9.044 -0.9085  1.8955 -0.7346
   88SAPS  C315 8532   1.331   5.250   9.006 -0.5690 -0.3921  0.1075
   88SAPS  H15X 8533   1.344   5.360   8.993  0.7167 -0.7598 -2.4999
   88SAPS  H15Y 8534   1.238   5.241   9.066 -0.2842 -1.0773  0.4515
   88SAPS  C316 8535   1.319   5.183   8.876 -0.8193 -0.2606 -0.0877
   88SAPS  H16X 8536   1.305   5.075   8.896  0.6148 -0.1934  1.4999
   88SAPS  H16Y 8537   1.416   5.199   8.824 -0.5487 -0.9511  0.1934
   88SAPS  C317 8538   1.216   5.257   8.789 -0.1458  0.0461  0.2638
   88SAPS  H17X 8539   1.264   5.353   8.762  0.2479 -0.4292 -0.8148
   88SAPS  H17Y 8540   1.125   5.262   8.853 -0.2773  0.8798  0.0160
   88SAPS  C318 8541   1.191   5.177   8.659 -0.5475 -0.5604 -0.4992
   88SAPS  H18X 8542   1.280   5.178   8.593 -0.0701  2.7660  0.0521
   88SAPS  H18Y 8543   1.102   5.226   8.615 -0.3283  0.6190  0.3233
   88SAPS  H18Z 8544   1.168   5.071   8.684  0.2338 -0.4881  0.6024
   89SAPS     N 8545   1.029   6.739  10.715  0.0284 -0.6199  0.5727
   89SAPS   HN1 8546   1.024   6.672  10.635 -0.2839  0.1632 -0.0830
   89SAPS   HN2 8547   0.927   6.758  10.725 -0.2262  0.9695 -3.2991
   89SAPS   HN3 8548   1.067   6.833  10.692  1.1507 -0.5195  2.6301
   89SAPS   C12 8549   1.097   6.697  10.828  0.4179  0.1116  0.0172
   89SAPS  H12A 8550   1.151   6.777  10.876  0.8143 -0.2933  0.2470
   89SAPS   C13 8551   1.004   6.638  10.929  0.3242  0.3807  0.9399
   89SAPS  O13A 8552   0.876   6.642  10.911 -0.4183  0.2994  0.6233
   89SAPS  O13B 8553   1.051   6.614  11.042 -0.0915 -0.2050 -0.7566
   89SAPS   C11 8554   1.204   6.590  10.769 -0.6718 -0.1912  0.4350
   89SAPS  H11A 8555   1.147   6.513  10.714  1.7767 -0.6676 -1.6258
   89SAPS  H11B 8556   1.268   6.546  10.849  1.9181  1.9789 -0.2882
   89SAPS     P 8557   1.434   6.669  10.678  0.2328  0.1519  0.1683
   89SAPS   O13 8558   1.465   6.760  10.786 -0.2397  0.0035  0.2775
   89SAPS   O14 8559   1.505   6.532  10.677 -0.4904 -0.2885  0.2423
   89SAPS   O12 8560   1.283   6.654  10.672  0.2006  0.2796  0.0756
   89SAPS   O11 8561   1.453   6.740  10.534  0.0666 -0.5549 -0.4240
   89SAPS    C1 8562   1.360   6.729  10.429 -0.4782 -0.2802 -0.3675
   89SAPS    HA 8563   1.257   6.757  10.457 -0.8256  0.1365 -1.9718
   89SAPS    HB 8564   1.387   6.807  10.355 -0.5772  0.5193  0.4253
   89SAPS    C2 8565   1.363   6.594  10.356 -0.1524  0.2267 -0.6603
   89SAPS    HS 8566   1.357   6.525  10.443  2.0851  0.4618 -0.2464
   89SAPS   O21 8567   1.493   6.585  10.295 -0.2761  0.3479  0.3889
   89SAPS   C21 8568   1.508   6.467  10.251  0.6802  0.2300  0.3422
   89SAPS   O22 8569   1.437   6.370  10.268 -0.2393  0.3134 -0.0106
   89SAPS   C22 8570   1.629   6.478  10.153 -0.1659  0.2753 -0.0209
   89SAPS   H2R 8571   1.612   6.558  10.078  0.0414 -0.1631 -0.5355
   89SAPS   H2S 8572   1.713   6.503  10.220 -1.1311 -0.5031  1.5440
   89SAPS    C3 8573   1.239   6.578  10.258 -0.0074 -0.2831 -0.4922
   89SAPS    HX 8574   1.138   6.596  10.301 -0.5824 -0.5425 -1.6859
   89SAPS    HY 8575   1.242   6.471  10.229  1.3887 -1.2907  2.8715
   89SAPS   O31 8576   1.263   6.664  10.147 -0.6322 -0.3456 -0.0535
   89SAPS   C31 8577   1.284   6.600  10.029 -0.0104 -0.3634  0.3218
   89SAPS   O32 8578   1.266   6.479  10.014  0.0502  0.2365  0.2136
   89SAPS   C32 8579   1.357   6.691   9.928  0.1102 -0.3774  0.5269
   89SAPS   H2X 8580   1.458   6.715   9.967 -0.7429  3.2856  0.8326
   89SAPS   H2Y 8581   1.301   6.787   9.930 -1.0634 -1.0421  0.7586
   89SAPS   C23 8582   1.658   6.340  10.092  0.0013  0.2688 -1.2386
   89SAPS   H3R 8583   1.632   6.259  10.163  2.6559  0.3407 -0.0646
   89SAPS   H3S 8584   1.764   6.319  10.065 -0.1708 -2.1027 -0.2953
   89SAPS   C24 8585   1.571   6.309   9.968 -0.9571 -0.2588 -0.2676
   89SAPS   H4R 8586   1.598   6.385   9.892  1.0021  0.1274  0.7258
   89SAPS   H4S 8587   1.465   6.336   9.988 -0.9434 -1.0311  1.0281
   89SAPS   C25 8588   1.591   6.170   9.921  0.3436 -0.3490  0.4106
   89SAPS   H5R 8589   1.617   6.100  10.003  0.4993 -1.4984 -0.5816
   89SAPS   C26 8590   1.590   6.119   9.794 -0.4477 -0.2432  0.2671
   89SAPS   H6R 8591   1.608   6.012   9.778 -3.9715 -1.0189  0.5424
   89SAPS   C27 8592   1.563   6.203   9.669  0.0695  0.1104  0.7630
   89SAPS   H7R 8593   1.563   6.314   9.675  2.5717  0.1957  0.4355
   89SAPS   H7S 8594   1.458   6.182   9.643 -0.4243  0.3845  2.3785
   89SAPS   C28 8595   1.655   6.162   9.554  0.1495  0.0747 -1.4195
   89SAPS   H8R 8596   1.740   6.096   9.571  1.6938  2.1246 -0.7450
   89SAPS   C29 8597   1.645   6.211   9.429 -0.2120 -0.3788 -0.2644
   89SAPS   H9R 8598   1.722   6.191   9.352 -2.3608 -1.1448 -2.3331
   89SAPS  C210 8599   1.544   6.315   9.378  0.1478  0.2247 -0.4953
   89SAPS  H10R 8600   1.560   6.412   9.431 -3.1300  2.2440 -2.8594
   89SAPS  H10S 8601   1.444   6.271   9.395 -0.3136  0.4715 -2.3857
   89SAPS  C211 8602   1.541   6.344   9.230  0.2553  0.0349  0.3222
   89SAPS  H11R 8603   1.613   6.418   9.193 -0.7863  1.9622  1.9856
   89SAPS  C212 8604   1.468   6.285   9.133 -0.1176 -0.7966  0.0717
   89SAPS  H12R 8605   1.483   6.325   9.032 -0.8020  1.2687  0.7386
   89SAPS  C213 8606   1.361   6.178   9.144 -0.3678 -0.4813 -0.3195
   89SAPS  H13R 8607   1.261   6.204   9.104  0.0052  0.4284 -0.6671
   89SAPS  H13S 8608   1.339   6.173   9.253  0.1958 -1.4152 -0.2325
   89SAPS  C214 8609   1.403   6.050   9.084  0.3352 -0.7618  0.3119
   89SAPS  H14R 8610   1.504   6.016   9.109  1.4120  0.3547 -2.1348
   89SAPS  C215 8611   1.328   5.973   9.005  0.1402 -0.8562 -0.7033
   89SAPS  H15R 8612   1.365   5.875   8.970  0.8692 -1.0068  0.4491
   89SAPS  C216 8613   1.190   5.992   8.957  0.9931 -0.4290  0.4555
   89SAPS  H16R 8614   1.160   6.097   8.935  0.8960 -0.5973 -0.2445
   89SAPS  H16S 8615   1.118   5.963   9.037 -0.3608 -1.1249 -0.9629
   89SAPS  C217 8616   1.134   5.894   8.846 -0.0493  0.5651 -0.0308
   89SAPS  H17R 8617   1.025   5.915   8.850 -0.0695  0.3959  0.3172
   89SAPS  H17S 8618   1.140   5.795   8.895  0.1240  2.0248  3.1492
   89SAPS  C218 8619   1.192   5.909   8.699 -0.8738  0.3815 -0.3163
   89SAPS  H18R 8620   1.303   5.916   8.709 -0.6721 -3.0607  1.7756
   89SAPS  H18S 8621   1.160   6.008   8.662  2.5712  1.1040 -1.7877
   89SAPS  C219 8622   1.145   5.801   8.600 -0.7161 -1.1639 -0.3478
   89SAPS  H19R 8623   1.036   5.816   8.585 -1.1016 -1.5906  1.7347
   89SAPS  H19S 8624   1.165   5.699   8.639 -1.3763 -2.3612 -2.9079
   89SAPS  C220 8625   1.210   5.812   8.453  0.6149  0.3070 -0.4134
   89SAPS  H20R 8626   1.224   5.916   8.419  0.0288  0.2313 -0.9294
   89SAPS  H20S 8627   1.157   5.750   8.376  0.3268  2.4666 -2.0510
   89SAPS  H20T 8628   1.317   5.785   8.464 -0.1775 -2.3885  1.7888
   89SAPS   C33 8629   1.367   6.638   9.777 -0.0523 -0.2661  0.4540
   89SAPS   H3X 8630   1.402   6.533   9.767  3.9252  0.6756  2.2128
   89SAPS   H3Y 8631   1.456   6.688   9.733  1.5451 -2.4818  1.0205
   89SAPS   C34 8632   1.241   6.662   9.693  0.2335  0.8286  0.6701
   89SAPS   H4X 8633   1.226   6.772   9.680  1.2068  0.7912 -1.0991
   89SAPS   H4Y 8634   1.152   6.619   9.744 -0.6408  0.5358 -1.0182
   89SAPS   C35 8635   1.254   6.601   9.549  0.5011 -0.5790  0.1455
   89SAPS   H5X 8636   1.151   6.600   9.508  1.1739 -0.2826 -1.6473
   89SAPS   H5Y 8637   1.294   6.498   9.565 -1.3694 -1.3625 -0.0029
   89SAPS   C36 8638   1.352   6.689   9.460 -0.1646  0.0840 -0.1315
   89SAPS   H6X 8639   1.452   6.693   9.508 -0.2676  1.1047  0.0196
   89SAPS   H6Y 8640   1.304   6.789   9.459 -1.1976 -0.3876 -1.3294
   89SAPS   C37 8641   1.367   6.649   9.316 -0.3019 -0.5008 -0.0237
   89SAPS   H7X 8642   1.415   6.549   9.317 -1.3444 -1.0300  1.2749
   89SAPS   H7Y 8643   1.433   6.720   9.262  1.6004 -1.7715  0.5419
   89SAPS   C38 8644   1.228   6.628   9.243  0.4449 -0.3675  0.1549
   89SAPS   H8X 8645   1.187   6.732   9.247  1.3324  0.2587 -3.2954
   89SAPS   H8Y 8646   1.170   6.555   9.303  0.8564  0.7797  2.0416
   89SAPS   C39 8647   1.228   6.569   9.098  0.2329  0.0613  0.9780
   89SAPS   H9X 8648   1.320   6.514   9.069 -0.1093  0.4616 -1.0553
   89SAPS   H9Y 8649   1.230   6.656   9.029 -1.0886 -0.8314 -0.2569
   89SAPS  C310 8650   1.103   6.484   9.080 -0.4613  0.8965  0.6587
   89SAPS  H10X 8651   1.014   6.538   9.120 -2.3393 -1.6506  0.1422
   89SAPS  H10Y 8652   1.111   6.379   9.114 -2.3708  0.8865  1.1920
   89SAPS  C311 8653   1.081   6.468   8.925 -0.2994 -0.6718  0.2284
   89SAPS  H11X 8654   1.159   6.402   8.881 -1.6706 -1.4546 -1.1404
   89SAPS  H11Y 8655   1.101   6.567   8.879  2.4935 -1.5121 -0.5688
   89SAPS  C312 8656   0.940   6.439   8.886  0.7332  0.8032  0.0560
   89SAPS  H12X 8657   0.860   6.503   8.928  0.1204 -1.7083  3.0169
   89SAPS  H12Y 8658   0.918   6.341   8.932  3.3944  0.0805 -0.0024
   89SAPS  C313 8659   0.913   6.421   8.733 -0.1661 -0.4535  0.2837
   89SAPS  H13X 8660   0.915   6.520   8.682  0.9340 -1.3052 -1.4244
   89SAPS  H13Y 8661   0.815   6.370   8.738 -0.2993 -0.3427 -0.9194
   89SAPS  C314 8662   1.007   6.321   8.655 -0.5070 -0.4016 -0.7597
   89SAPS  H14X 8663   0.989   6.218   8.693 -1.7377  0.0629 -0.0185
   89SAPS  H14Y 8664   1.116   6.335   8.666 -0.8734  3.6481 -0.9691
   89SAPS  C315 8665   0.963   6.316   8.505 -0.3464 -0.7380 -0.0817
   89SAPS  H15X 8666   0.995   6.412   8.459  1.9677 -0.5358  1.7516
   89SAPS  H15Y 8667   0.852   6.308   8.506 -0.3247 -1.7188  2.1528
   89SAPS  C316 8668   1.030   6.219   8.418  0.6014  0.4047 -0.4599
   89SAPS  H16X 8669   1.037   6.115   8.456 -0.2046  0.6787  0.4824
   89SAPS  H16Y 8670   1.133   6.260   8.406  1.0404 -0.3223  0.6636
   89SAPS  C317 8671   0.960   6.221   8.280 -0.3052 -0.3704  0.2352
   89SAPS  H17X 8672   0.956   6.322   8.234 -2.6163 -0.5177  0.0040
   89SAPS  H17Y 8673   0.854   6.189   8.283 -0.3473 -0.2117  0.4274
   89SAPS  C318 8674   1.040   6.130   8.186  0.0001  0.0033  0.0978
   89SAPS  H18X 8675   1.014   6.148   8.080  2.0590  2.7679 -0.0580
   89SAPS  H18Y 8676   1.019   6.024   8.214  1.6938 -0.3909 -0.0083
   89SAPS  H18Z 8677   1.147   6.157   8.177  0.3041 -1.3824 -0.7702
   90SAPS     N 8678   3.167   5.952  11.028  0.3818  0.0968 -0.5157
   90SAPS   HN1 8679   3.182   5.918  11.126 -0.0880  0.2773 -0.3772
   90SAPS   HN2 8680   3.252   6.007  11.005 -0.1089  0.3547 -1.7591
   90SAPS   HN3 8681   3.088   6.019  11.041  0.0284 -0.2815 -0.6808
   90SAPS   C12 8682   3.117   5.846  10.938  0.0452 -0.2156  0.3024
   90SAPS  H12A 8683   3.195   5.771  10.934  0.2566 -0.0501  1.1151
   90SAPS   C13 8684   2.971   5.791  10.962 -0.3746 -0.4345 -0.5253
   90SAPS  O13A 8685   2.899   5.862  11.038 -0.1312  0.0408  0.2249
   90SAPS  O13B 8686   2.930   5.701  10.881 -0.2586 -0.3803 -0.2642
   90SAPS   C11 8687   3.124   5.910  10.799 -0.5264 -0.7261  0.2700
   90SAPS  H11A 8688   3.054   5.996  10.788 -3.3283 -2.9914 -0.5745
   90SAPS  H11B 8689   3.094   5.830  10.728 -0.8554 -0.2701 -0.1116
   90SAPS     P 8690   3.349   5.859  10.683 -0.4918  0.0820 -0.2820
   90SAPS   O13 8691   3.461   5.947  10.644  0.6086  0.4090  0.3522
   90SAPS   O14 8692   3.381   5.735  10.759  0.2453  0.1659 -0.3004
   90SAPS   O12 8693   3.265   5.947  10.778  0.1968  0.0967 -0.2727
   90SAPS   O11 8694   3.271   5.830  10.553 -0.2246 -0.2929 -0.3776
   90SAPS    C1 8695   3.239   5.928  10.463 -0.4534  0.3216  0.2208
   90SAPS    HA 8696   3.134   5.962  10.472 -0.3121  0.3696  2.0864
   90SAPS    HB 8697   3.294   6.024  10.479  0.5053 -0.4656  1.9114
   90SAPS    C2 8698   3.272   5.884  10.322  0.4796  0.0590  0.2970
   90SAPS    HS 8699   3.207   5.795  10.307 -0.7239  1.1457 -1.1756
   90SAPS   O21 8700   3.415   5.846  10.303  0.3504 -0.5894 -0.9869
   90SAPS   C21 8701   3.444   5.749  10.214 -0.4014 -0.3453  0.3008
   90SAPS   O22 8702   3.361   5.681  10.157 -0.0955 -0.5530  0.2146
   90SAPS   C22 8703   3.592   5.727  10.197 -0.3671  0.9234  0.6088
   90SAPS   H2R 8704   3.649   5.766  10.284 -0.7318  1.5358  0.5818
   90SAPS   H2S 8705   3.610   5.619  10.178 -0.4006  1.0081  0.0925
   90SAPS    C3 8706   3.231   5.992  10.221  0.1193  0.3173 -0.3276
   90SAPS    HX 8707   3.305   6.071  10.242 -0.2994  0.8127 -0.6953
   90SAPS    HY 8708   3.136   6.042  10.250  0.1900  1.5773 -2.1520
   90SAPS   O31 8709   3.234   5.941  10.090  0.2100  0.1227  0.2997
   90SAPS   C31 8710   3.124   5.873  10.056 -0.0273 -0.5928  0.5810
   90SAPS   O32 8711   3.039   5.823  10.122  0.3045 -0.2399 -0.2833
   90SAPS   C32 8712   3.143   5.856   9.901  0.0185 -0.1058  0.4259
   90SAPS   H2X 8713   3.206   5.765   9.893  0.4592  0.1374  1.0891
   90SAPS   H2Y 8714   3.200   5.940   9.857 -2.0107 -0.1090 -2.5636
   90SAPS   C23 8715   3.666   5.801  10.075  0.4766 -0.0658  0.0500
   90SAPS   H3R 8716   3.752   5.733  10.056  1.4458  0.8042  1.1902
   90SAPS   H3S 8717   3.700   5.898  10.116  1.8087 -1.1420  1.6146
   90SAPS   C24 8718   3.574   5.832   9.957  0.0578  0.1358 -0.5645
   90SAPS   H4R 8719   3.512   5.917   9.993  1.2446  0.3898  0.9714
   90SAPS   H4S 8720   3.508   5.744   9.940  0.9459 -0.9041  1.1001
   90SAPS   C25 8721   3.639   5.859   9.825  0.2958 -0.3663  0.0343
   90SAPS   H5R 8722   3.630   5.964   9.794  2.1423  0.0124  0.6310
   90SAPS   C26 8723   3.700   5.781   9.735 -0.2322  0.0179  0.3529
   90SAPS   H6R 8724   3.723   5.814   9.633 -0.6722 -0.6294  0.0364
   90SAPS   C27 8725   3.721   5.638   9.752  0.3163 -0.1929 -0.7568
   90SAPS   H7R 8726   3.650   5.587   9.683  1.4657 -1.2949 -1.1587
   90SAPS   H7S 8727   3.701   5.604   9.856 -0.9703  2.6600  0.0268
   90SAPS   C28 8728   3.863   5.596   9.708 -0.6312 -0.1030 -0.1837
   90SAPS   H8R 8729   3.935   5.580   9.790  0.5381 -1.2659 -1.3984
   90SAPS   C29 8730   3.916   5.582   9.582  0.0726  0.0033  0.4061
   90SAPS   H9R 8731   4.018   5.543   9.568  0.2266  0.6844 -0.4292
   90SAPS  C210 8732   3.838   5.610   9.461 -0.4450 -1.0359 -0.3456
   90SAPS  H10R 8733   3.758   5.683   9.485  0.0899 -0.7643  0.6713
   90SAPS  H10S 8734   3.789   5.513   9.439  0.7926 -1.6718 -0.3705
   90SAPS  C211 8735   3.932   5.646   9.344 -0.6071 -0.8893  0.0420
   90SAPS  H11R 8736   4.001   5.731   9.356  0.5606 -1.4498 -2.1885
   90SAPS  C212 8737   3.935   5.592   9.216  0.1216  0.2139 -0.2970
   90SAPS  H12R 8738   4.003   5.634   9.140 -0.7446 -0.4914 -1.5025
   90SAPS  C213 8739   3.846   5.474   9.166 -0.4154 -0.5481 -0.7165
   90SAPS  H13R 8740   3.793   5.426   9.250 -0.1315 -2.0891 -1.3812
   90SAPS  H13S 8741   3.911   5.406   9.106 -0.6003  0.4672 -2.1151
   90SAPS  C214 8742   3.731   5.528   9.085  0.6302  0.8219  0.0226
   90SAPS  H14R 8743   3.671   5.605   9.137  1.1667  0.7854  0.7015
   90SAPS  C215 8744   3.699   5.496   8.960  0.1039  0.6126  0.0616
   90SAPS  H15R 8745   3.611   5.541   8.913  0.9923  1.3700 -0.9456
   90SAPS  C216 8746   3.760   5.390   8.872 -0.1276  0.5717 -0.5894
   90SAPS  H16R 8747   3.821   5.317   8.930  1.3039 -0.4679 -3.2134
   90SAPS  H16S 8748   3.831   5.435   8.798  0.1344 -1.7708 -1.8893
   90SAPS  C217 8749   3.645   5.307   8.802 -0.3633 -0.7284 -0.5374
   90SAPS  H17R 8750   3.575   5.374   8.749  1.3625  0.7651 -1.0353
   90SAPS  H17S 8751   3.588   5.259   8.885 -1.2594 -0.4688 -0.9895
   90SAPS  C218 8752   3.704   5.205   8.712  0.1324  0.4280 -0.4185
   90SAPS  H18R 8753   3.766   5.133   8.770 -0.7994  1.5615  2.1326
   90SAPS  H18S 8754   3.779   5.259   8.651  0.5497 -0.6246 -0.8608
   90SAPS  C219 8755   3.612   5.133   8.616 -0.6352  0.8166 -0.1552
   90SAPS  H19R 8756   3.558   5.214   8.561  0.6046  2.7531  1.3600
   90SAPS  H19S 8757   3.535   5.071   8.666  0.1883 -1.4784 -1.5593
   90SAPS  C220 8758   3.693   5.047   8.520 -0.5749  0.3937  0.5921
   90SAPS  H20R 8759   3.764   4.983   8.576  1.4569  0.9379 -1.2039
   90SAPS  H20S 8760   3.757   5.106   8.450 -0.9334  0.2011  0.0907
   90SAPS  H20T 8761   3.634   4.977   8.457  0.4004  0.6474 -0.6532
   90SAPS   C33 8762   3.010   5.831   9.827 -0.1027  0.0603 -0.6201
   90SAPS   H3X 8763   2.936   5.908   9.860  1.4508  1.6310 -0.6936
   90SAPS   H3Y 8764   2.968   5.733   9.858  1.1375 -0.0122  0.9108
   90SAPS   C34 8765   3.014   5.852   9.677  0.1102 -0.2345  0.0105
   90SAPS   H4X 8766   3.043   5.956   9.650  0.0814 -0.1118  0.4294
   90SAPS   H4Y 8767   2.909   5.838   9.644  1.2076 -0.6157 -3.7441
   90SAPS   C35 8768   3.091   5.754   9.585 -0.4548 -0.0645  0.6372
   90SAPS   H5X 8769   3.071   5.650   9.616  0.3542 -0.2132  0.6853
   90SAPS   H5Y 8770   3.199   5.773   9.602 -0.4103  0.4700 -0.2229
   90SAPS   C36 8771   3.058   5.772   9.434 -0.0112  0.0270  0.5058
   90SAPS   H6X 8772   3.081   5.878   9.410  0.4058 -0.0053  0.7661
   90SAPS   H6Y 8773   2.952   5.753   9.406 -0.0774 -1.2184  1.5420
   90SAPS   C37 8774   3.156   5.696   9.339  1.0390  0.2233  0.0774
   90SAPS   H7X 8775   3.129   5.588   9.334 -1.6399  0.7903  0.6939
   90SAPS   H7Y 8776   3.258   5.704   9.382 -0.3315 -0.9245  4.0614
   90SAPS   C38 8777   3.146   5.747   9.195  0.0171 -0.0315  0.0867
   90SAPS   H8X 8778   3.203   5.842   9.190  0.6317 -0.1835  2.5606
   90SAPS   H8Y 8779   3.039   5.769   9.177  0.8107  2.7863 -1.9483
   90SAPS   C39 8780   3.204   5.648   9.095 -0.7204 -0.1063 -0.0848
   90SAPS   H9X 8781   3.139   5.558   9.102 -1.6842  0.5667 -0.1458
   90SAPS   H9Y 8782   3.310   5.629   9.122  0.7428  3.5641 -2.4288
   90SAPS  C310 8783   3.195   5.702   8.950 -0.9073  0.8723 -0.6883
   90SAPS  H10X 8784   3.265   5.789   8.946 -0.8622  0.8600 -0.2113
   90SAPS  H10Y 8785   3.095   5.740   8.923 -0.2891  1.7166 -1.9023
   90SAPS  C311 8786   3.228   5.602   8.837  0.5080 -0.3422  0.0827
   90SAPS  H11X 8787   3.138   5.537   8.831 -2.4510  3.5028 -0.6288
   90SAPS  H11Y 8788   3.325   5.551   8.856  0.2494 -1.3582 -1.1783
   90SAPS  C312 8789   3.257   5.677   8.697 -0.0707  0.2499 -0.0404
   90SAPS  H12X 8790   3.339   5.752   8.695 -0.2938  0.4837 -0.5510
   90SAPS  H12Y 8791   3.164   5.733   8.672 -1.0980 -0.7592  1.3839
   90SAPS  C313 8792   3.280   5.572   8.589 -0.0704 -0.0003  0.0090
   90SAPS  H13X 8793   3.372   5.520   8.622  0.7151 -0.0831 -2.1391
   90SAPS  H13Y 8794   3.308   5.621   8.493 -1.3210 -0.4195 -0.6040
   90SAPS  C314 8795   3.173   5.455   8.574  0.1269 -0.1444 -0.0767
   90SAPS  H14X 8796   3.075   5.507   8.565 -0.5829 -1.6826 -2.4728
   90SAPS  H14Y 8797   3.173   5.400   8.670  0.7933 -1.1151 -0.6199
   90SAPS  C315 8798   3.211   5.379   8.451 -0.2679 -0.4089  0.0111
   90SAPS  H15X 8799   3.315   5.344   8.473 -0.4090 -2.1302 -1.8577
   90SAPS  H15Y 8800   3.217   5.448   8.365 -0.7443 -0.0660  0.2491
   90SAPS  C316 8801   3.122   5.264   8.433  0.7319  0.7016  0.1617
   90SAPS  H16X 8802   3.023   5.298   8.395  0.2139  1.3998  2.0107
   90SAPS  H16Y 8803   3.093   5.202   8.521  2.2186  0.6685  0.6516
   90SAPS  C317 8804   3.177   5.167   8.326  0.5589 -0.0890 -0.5084
   90SAPS  H17X 8805   3.124   5.070   8.335  1.0866 -0.3688 -0.4019
   90SAPS  H17Y 8806   3.284   5.148   8.345  0.8616  0.7317 -1.3133
   90SAPS  C318 8807   3.166   5.217   8.183 -0.0415 -0.6744  0.6420
   90SAPS  H18X 8808   3.197   5.322   8.163 -1.1605 -0.5022 -0.2643
   90SAPS  H18Y 8809   3.059   5.221   8.155  0.4869 -1.0620 -1.6491
   90SAPS  H18Z 8810   3.221   5.151   8.113  0.0431  0.1584 -0.0915
   91SAPS     N 8811   0.377   5.220   6.060  0.6561  0.1396 -0.4322
   91SAPS   HN1 8812   0.412   5.314   6.032  1.9202 -0.2965 -0.3770
   91SAPS   HN2 8813   0.294   5.222   6.122 -0.5246 -3.3138 -1.6477
   91SAPS   HN3 8814   0.455   5.170   6.106 -1.1256 -0.8990  1.6629
   91SAPS   C12 8815   0.356   5.141   5.935  0.2528 -0.4129  0.1362
   91SAPS  H12A 8816   0.249   5.140   5.919  0.3147  0.7899 -0.4550
   91SAPS   C13 8817   0.414   5.208   5.810 -0.4700 -0.0101  0.4905
   91SAPS  O13A 8818   0.448   5.331   5.814  0.0030  0.1731 -0.2782
   91SAPS  O13B 8819   0.453   5.147   5.709  0.7839  0.5475  0.0852
   91SAPS   C11 8820   0.411   5.002   5.966 -0.0749 -0.6326 -0.0284
   91SAPS  H11A 8821   0.521   4.982   5.967 -0.4674 -3.3567 -1.3206
   91SAPS  H11B 8822   0.383   4.933   5.883  0.8288 -1.1745  0.0987
   91SAPS     P 8823   0.300   4.811   6.118 -0.1582  0.2128  0.0506
   91SAPS   O13 8824   0.157   4.814   6.131  0.2173 -0.1428  0.2965
   91SAPS   O14 8825   0.354   4.720   6.017 -0.2866  0.4540 -0.6194
   91SAPS   O12 8826   0.356   4.956   6.088  0.2261  0.3544 -0.0059
   91SAPS   O11 8827   0.355   4.771   6.261 -0.0472  0.0719  0.1928
   91SAPS    C1 8828   0.501   4.767   6.275  0.4464 -0.2495  0.2487
   91SAPS    HA 8829   0.555   4.680   6.232  1.0717  1.1541 -2.0010
   91SAPS    HB 8830   0.552   4.851   6.223  0.2217 -0.4947 -0.3787
   91SAPS    C2 8831   0.518   4.766   6.429 -0.5019 -0.4343  0.2629
   91SAPS    HS 8832   0.489   4.667   6.470 -0.0166 -0.6301  0.1423
   91SAPS   O21 8833   0.451   4.882   6.488 -0.0391  0.2639 -0.0086
   91SAPS   C21 8834   0.349   4.846   6.566  0.0317  0.3202 -0.7152
   91SAPS   O22 8835   0.322   4.730   6.593  0.3735 -0.5188  0.2435
   91SAPS   C22 8836   0.300   4.964   6.646 -0.5166 -0.6190  0.6359
   91SAPS   H2R 8837   0.387   5.003   6.703  1.9149 -3.1981 -1.0569
   91SAPS   H2S 8838   0.259   5.045   6.582 -0.5341  0.2393  1.7037
   91SAPS    C3 8839   0.670   4.776   6.458  0.6366 -0.0476  0.3862
   91SAPS    HX 8840   0.711   4.863   6.403  0.2794 -1.9376 -3.1663
   91SAPS    HY 8841   0.716   4.685   6.415 -0.4577 -0.9553  1.0684
   91SAPS   O31 8842   0.696   4.767   6.597 -0.2576  0.0419  0.0243
   91SAPS   C31 8843   0.711   4.886   6.668 -0.3101 -0.6442  0.4036
   91SAPS   O32 8844   0.702   4.996   6.627 -0.2016 -0.1624 -0.4430
   91SAPS   C32 8845   0.755   4.850   6.807 -0.4995 -0.5288 -0.3072
   91SAPS   H2X 8846   0.845   4.910   6.830 -0.7019  0.0139 -0.8772
   91SAPS   H2Y 8847   0.772   4.740   6.814 -0.8898 -0.5131  1.0277
   91SAPS   C23 8848   0.187   4.926   6.746  0.0146  0.4009  0.3798
   91SAPS   H3R 8849   0.159   5.022   6.795  1.6159  1.3520 -0.4916
   91SAPS   H3S 8850   0.219   4.862   6.831 -1.6596  0.1986  0.9083
   91SAPS   C24 8851   0.056   4.894   6.679  0.2271  0.8736  0.4320
   91SAPS   H4R 8852  -0.007   4.856   6.762 -1.2150  1.7056 -0.2265
   91SAPS   H4S 8853   0.058   4.806   6.611 -4.0029  0.2441  0.7893
   91SAPS   C25 8854  -0.018   5.007   6.615  0.8935  0.6047  0.2003
   91SAPS   H5R 8855  -0.015   5.010   6.505 -0.9656 -1.7780  0.0004
   91SAPS   C26 8856  -0.101   5.097   6.669  0.6973  0.2806 -0.3669
   91SAPS   H6R 8857  -0.150   5.166   6.598 -1.3379  1.3545  1.9384
   91SAPS   C27 8858  -0.138   5.111   6.814 -0.1073  0.1192  0.3937
   91SAPS   H7R 8859  -0.054   5.097   6.886 -1.4404 -0.9287  1.8025
   91SAPS   H7S 8860  -0.210   5.028   6.828 -0.8217  0.6363 -0.1203
   91SAPS   C28 8861  -0.206   5.245   6.833  0.1722  0.0594  0.3907
   91SAPS   H8R 8862  -0.229   5.303   6.742  0.9024 -1.3391 -0.7421
   91SAPS   C29 8863  -0.264   5.292   6.947 -0.4024 -0.2038 -0.9734
   91SAPS   H9R 8864  -0.301   5.395   6.940  0.0663  0.0174 -0.3487
   91SAPS  C210 8865  -0.249   5.230   7.081 -0.0079  0.7431 -0.2180
   91SAPS  H10R 8866  -0.140   5.206   7.090 -0.6336 -2.7734 -0.3253
   91SAPS  H10S 8867  -0.292   5.127   7.083 -0.6034  0.9887  1.7038
   91SAPS  C211 8868  -0.307   5.320   7.187  0.0239  0.2496 -0.3270
   91SAPS  H11R 8869  -0.413   5.294   7.202  0.3442 -1.4401 -0.8416
   91SAPS  C212 8870  -0.254   5.423   7.257 -0.7130  0.0057  0.8793
   91SAPS  H12R 8871  -0.314   5.484   7.326 -2.5020 -2.2375  1.4324
   91SAPS  C213 8872  -0.112   5.475   7.243 -0.1409  0.0894  0.7269
   91SAPS  H13R 8873  -0.088   5.477   7.134 -0.5274 -0.5062  0.6264
   91SAPS  H13S 8874  -0.052   5.394   7.290  0.3149  0.7998  1.3852
   91SAPS  C214 8875  -0.092   5.612   7.312  0.2143 -0.1212  0.6489
   91SAPS  H14R 8876  -0.087   5.704   7.251  0.2623  1.8085  3.3708
   91SAPS  C215 8877  -0.065   5.631   7.445 -0.1993  0.2503 -0.4230
   91SAPS  H15R 8878  -0.037   5.732   7.479  0.8082 -0.1150 -0.1224
   91SAPS  C216 8879  -0.061   5.531   7.558  0.0667  0.3671  0.3699
   91SAPS  H16R 8880   0.035   5.549   7.611 -1.3016 -1.6671  3.9392
   91SAPS  H16S 8881  -0.075   5.429   7.518 -1.7818  1.1342 -1.0630
   91SAPS  C217 8882  -0.158   5.569   7.672 -0.9492  0.4371  0.0494
   91SAPS  H17R 8883  -0.262   5.570   7.632 -0.1391  0.9190 -2.1824
   91SAPS  H17S 8884  -0.140   5.678   7.689  0.0280  0.4179 -0.8088
   91SAPS  C218 8885  -0.152   5.493   7.811  0.2516  0.1681  0.7398
   91SAPS  H18R 8886  -0.223   5.537   7.885  1.4916  0.8623  1.5508
   91SAPS  H18S 8887  -0.047   5.486   7.848  0.3739  0.0989  0.3824
   91SAPS  C219 8888  -0.211   5.350   7.804 -0.1656 -0.9658  0.4102
   91SAPS  H19R 8889  -0.150   5.293   7.731 -0.7908 -0.8034 -0.2513
   91SAPS  H19S 8890  -0.314   5.358   7.766 -0.3389  0.5976  1.0983
   91SAPS  C220 8891  -0.223   5.288   7.940  0.2694 -0.1879 -0.0565
   91SAPS  H20R 8892  -0.118   5.271   7.975  0.0752  0.4862  0.9001
   91SAPS  H20S 8893  -0.278   5.192   7.938 -0.7503  0.3290  1.7012
   91SAPS  H20T 8894  -0.264   5.360   8.013 -0.3195 -2.5392  2.0751
   91SAPS   C33 8895   0.643   4.886   6.911  0.0469  0.1810 -0.2047
   91SAPS   H3X 8896   0.556   4.817   6.910  1.4002 -1.5835 -1.0309
   91SAPS   H3Y 8897   0.618   4.994   6.904 -0.2735  0.0450 -1.3111
   91SAPS   C34 8898   0.699   4.877   7.053 -0.2955  0.6099 -0.5517
   91SAPS   H4X 8899   0.788   4.943   7.056 -0.0848  0.3005  1.6348
   91SAPS   H4Y 8900   0.736   4.776   7.078  0.3991  1.2865  1.2362
   91SAPS   C35 8901   0.606   4.910   7.177 -0.1319  0.6892 -0.1950
   91SAPS   H5X 8902   0.529   4.832   7.193  0.0048  0.3325 -1.1803
   91SAPS   H5Y 8903   0.554   5.008   7.178  0.7461  1.1712  0.6423
   91SAPS   C36 8904   0.695   4.910   7.302 -0.1750 -0.3744  0.1630
   91SAPS   H6X 8905   0.774   4.987   7.308 -0.4347 -0.0855 -0.0462
   91SAPS   H6Y 8906   0.741   4.810   7.315  1.2416  0.4106  1.5233
   91SAPS   C37 8907   0.598   4.920   7.422 -0.6688  0.7034 -0.6180
   91SAPS   H7X 8908   0.501   4.869   7.405 -0.6030 -0.0760  1.1370
   91SAPS   H7Y 8909   0.585   5.029   7.439  1.5456  1.1305 -1.3315
   91SAPS   C38 8910   0.660   4.854   7.554  0.2209 -0.2471  1.0521
   91SAPS   H8X 8911   0.754   4.905   7.585  2.0988 -1.5393 -1.9926
   91SAPS   H8Y 8912   0.691   4.750   7.528 -1.3641  0.0071 -2.4935
   91SAPS   C39 8913   0.558   4.868   7.667  0.0396 -0.6924 -0.0959
   91SAPS   H9X 8914   0.451   4.843   7.652  0.0168 -0.5917 -0.1018
   91SAPS   H9Y 8915   0.550   4.978   7.679  2.0614 -0.0266 -3.4531
   91SAPS  C310 8916   0.625   4.820   7.797 -0.0440  0.7463 -0.7173
   91SAPS  H10X 8917   0.711   4.883   7.827 -0.0485  1.1014 -1.4326
   91SAPS  H10Y 8918   0.660   4.715   7.787  0.4340  0.6382  1.5545
   91SAPS  C311 8919   0.534   4.829   7.921  0.6072 -0.2826  0.7511
   91SAPS  H11X 8920   0.427   4.813   7.897  0.3415  0.9873  1.0202
   91SAPS  H11Y 8921   0.542   4.925   7.976  0.3512 -0.8784  1.8459
   91SAPS  C312 8922   0.562   4.715   8.019 -0.3274 -0.2527  0.3143
   91SAPS  H12X 8923   0.571   4.618   7.966 -1.5354 -0.9263  1.2879
   91SAPS  H12Y 8924   0.475   4.712   8.088 -0.2230  3.2503  0.7910
   91SAPS  C313 8925   0.703   4.735   8.078 -0.4249  0.6229 -0.3003
   91SAPS  H13X 8926   0.713   4.831   8.134 -0.0002 -0.2496  1.1913
   91SAPS  H13Y 8927   0.770   4.749   7.991 -0.5416 -2.8027 -1.0826
   91SAPS  C314 8928   0.767   4.615   8.157 -0.1090 -0.5649 -0.5754
   91SAPS  H14X 8929   0.772   4.520   8.100  0.7734 -1.5041  0.9859
   91SAPS  H14Y 8930   0.713   4.585   8.249 -0.3569  0.0906 -0.4964
   91SAPS  C315 8931   0.915   4.637   8.213 -0.0038 -0.7108  0.2348
   91SAPS  H15X 8932   0.911   4.697   8.307  0.7625  0.5720 -0.5187
   91SAPS  H15Y 8933   0.962   4.696   8.131  0.9923 -0.1662  1.1686
   91SAPS  C316 8934   1.005   4.519   8.243  0.0959 -0.0483  0.1648
   91SAPS  H16X 8935   0.979   4.446   8.163  1.0634  2.3067 -2.4569
   91SAPS  H16Y 8936   0.985   4.472   8.342  0.9248 -1.1297 -0.1536
   91SAPS  C317 8937   1.149   4.537   8.237  0.3589 -0.1928 -0.0668
   91SAPS  H17X 8938   1.194   4.597   8.319 -1.9250 -0.6376  1.6100
   91SAPS  H17Y 8939   1.173   4.592   8.144  0.4627  1.0059  0.6428
   91SAPS  C318 8940   1.221   4.402   8.235  0.6948 -0.3339  0.5678
   91SAPS  H18X 8941   1.195   4.340   8.323  1.7139 -2.2978 -0.4291
   91SAPS  H18Y 8942   1.329   4.430   8.235  0.1558  2.1814 -1.3784
   91SAPS  H18Z 8943   1.192   4.348   8.142  1.2284  1.2973 -0.5893
   92SAPS     N 8944   4.792   3.083   6.428 -0.6239  0.3283 -0.3639
   92SAPS   HN1 8945   4.855   3.101   6.346 -1.4089 -1.3035 -1.3874
   92SAPS   HN2 8946   4.830   3.016   6.497 -0.5263  1.8668  1.1381
   92SAPS   HN3 8947   4.695   3.066   6.395 -0.3352 -1.8732 -0.2056
   92SAPS   C12 8948   4.782   3.207   6.513 -0.2360  0.5144 -0.8471
   92SAPS  H12A 8949   4.723   3.280   6.459 -0.2905  0.2504 -1.1447
   92SAPS   C13 8950   4.707   3.170   6.645 -0.2429 -0.0778  0.2825
   92SAPS  O13A 8951   4.674   3.053   6.667 -0.2396  0.1734  0.2264
   92SAPS  O13B 8952   4.669   3.255   6.729 -0.7893 -0.5171 -0.3227
   92SAPS   C11 8953   4.914   3.252   6.563  0.1043  0.5024  0.1040
   92SAPS  H11A 8954   4.949   3.174   6.633 -0.6738 -0.4348 -0.5377
   92SAPS  H11B 8955   4.901   3.344   6.623  1.7658  1.6672 -1.1967
   92SAPS     P 8956   5.100   3.393   6.432 -0.0302  0.0177  0.2485
   92SAPS   O13 8957   5.225   3.358   6.365 -0.0982  0.3179  0.1305
   92SAPS   O14 8958   5.008   3.485   6.363 -0.0735 -0.1531 -0.8417
   92SAPS   O12 8959   5.015   3.264   6.461  0.4965 -0.0241 -0.5965
   92SAPS   O11 8960   5.135   3.454   6.570 -0.6166 -0.3126 -0.4770
   92SAPS    C1 8961   5.222   3.385   6.661  0.3399 -0.3666 -0.2062
   92SAPS    HA 8962   5.216   3.274   6.656 -2.5439 -0.2187 -1.5948
   92SAPS    HB 8963   5.328   3.415   6.650  0.1927  0.5243  0.6787
   92SAPS    C2 8964   5.181   3.426   6.804 -0.1802 -0.3471  0.0509
   92SAPS    HS 8965   5.264   3.397   6.873  0.4522  0.7366 -0.2266
   92SAPS   O21 8966   5.058   3.360   6.844 -0.6132 -0.0045  0.5756
   92SAPS   C21 8967   5.075   3.242   6.889 -0.3780  0.2170  0.3638
   92SAPS   O22 8968   5.178   3.173   6.869 -0.5987 -0.3668 -0.5098
   92SAPS   C22 8969   4.957   3.191   6.971  0.0455 -0.4988  0.1493
   92SAPS   H2R 8970   4.920   3.276   7.032  2.7791  0.3955  0.6755
   92SAPS   H2S 8971   4.879   3.177   6.892 -0.4400  0.4800  0.4377
   92SAPS    C3 8972   5.160   3.582   6.822 -0.0927 -0.3046 -0.4266
   92SAPS    HX 8973   5.083   3.615   6.749  0.6504  0.1219 -1.0307
   92SAPS    HY 8974   5.253   3.627   6.784  1.3990 -2.9958 -0.2035
   92SAPS   O31 8975   5.138   3.609   6.958 -0.1883  0.8023 -0.4260
   92SAPS   C31 8976   5.014   3.613   7.009  0.0026  0.1133  0.3250
   92SAPS   O32 8977   4.918   3.570   6.946  0.3119  0.3361 -0.1245
   92SAPS   C32 8978   5.005   3.664   7.151 -0.2830  0.5059 -0.8015
   92SAPS   H2X 8979   4.940   3.754   7.145 -0.7989  0.0834 -1.7480
   92SAPS   H2Y 8980   5.100   3.704   7.192 -0.5157  3.0123 -2.5059
   92SAPS   C23 8981   4.982   3.069   7.065  0.0059  0.5578 -0.6579
   92SAPS   H3R 8982   5.027   3.111   7.157  0.6720 -0.6130 -0.4305
   92SAPS   H3S 8983   5.064   3.012   7.016 -0.5717 -1.2988  0.4397
   92SAPS   C24 8984   4.867   2.973   7.098 -0.4997 -0.3587  0.4094
   92SAPS   H4R 8985   4.921   2.881   7.130  0.1210 -0.4566 -0.8510
   92SAPS   H4S 8986   4.819   2.944   7.002 -0.0670 -0.7567  0.3066
   92SAPS   C25 8987   4.768   3.035   7.192 -0.0189 -0.5885  0.0705
   92SAPS   H5R 8988   4.687   3.098   7.154  0.3102  0.1844  0.6376
   92SAPS   C26 8989   4.790   3.041   7.321  0.3341 -0.1176  0.2284
   92SAPS   H6R 8990   4.708   3.082   7.383 -0.5257 -1.6103  0.1480
   92SAPS   C27 8991   4.895   2.958   7.392  0.4339 -0.1242 -0.3983
   92SAPS   H7R 8992   4.926   3.004   7.488  0.4353  0.0161 -0.4646
   92SAPS   H7S 8993   4.985   2.949   7.327 -0.2472  1.1246 -1.5830
   92SAPS   C28 8994   4.849   2.813   7.412  0.2434 -0.2176  0.0642
   92SAPS   H8R 8995   4.829   2.771   7.312 -1.0709 -0.5875  0.4739
   92SAPS   C29 8996   4.818   2.738   7.517 -0.0881  0.3288 -0.4148
   92SAPS   H9R 8997   4.800   2.630   7.507  1.7220 -0.1571  0.9208
   92SAPS  C210 8998   4.834   2.774   7.663 -0.1241 -1.0168 -0.1588
   92SAPS  H10R 8999   4.863   2.880   7.674 -0.5713 -0.7239 -1.5391
   92SAPS  H10S 9000   4.922   2.715   7.695  0.4532 -0.8568 -1.4047
   92SAPS  C211 9001   4.713   2.750   7.748  0.1804 -0.1798  0.1002
   92SAPS  H11R 9002   4.616   2.783   7.709  0.6686  2.3079  0.7902
   92SAPS  C212 9003   4.715   2.679   7.863 -0.6057 -0.5745  0.2239
   92SAPS  H12R 9004   4.628   2.677   7.929  0.9914  2.3967  2.7134
   92SAPS  C213 9005   4.842   2.615   7.917  0.0904 -0.7160 -0.5861
   92SAPS  H13R 9006   4.907   2.694   7.958  0.0800 -1.3103  0.6044
   92SAPS  H13S 9007   4.899   2.571   7.832  0.5022  0.5585 -0.9897
   92SAPS  C214 9008   4.816   2.503   8.010 -0.0219  0.1480  0.4496
   92SAPS  H14R 9009   4.811   2.404   7.964 -3.8162  0.3941  0.0382
   92SAPS  C215 9010   4.799   2.516   8.141 -0.0388 -0.3407 -0.0451
   92SAPS  H15R 9011   4.778   2.421   8.192 -0.7123 -0.3172 -0.2737
   92SAPS  C216 9012   4.787   2.647   8.219 -0.4499 -0.6922 -0.5685
   92SAPS  H16R 9013   4.687   2.662   8.264  1.2593  0.7362  3.2143
   92SAPS  H16S 9014   4.805   2.743   8.165  2.8379  0.3891  2.0568
   92SAPS  C217 9015   4.881   2.654   8.342 -0.1023 -0.4109  0.3699
   92SAPS  H17R 9016   4.867   2.759   8.376 -2.5561 -0.6023  0.1206
   92SAPS  H17S 9017   4.987   2.642   8.309 -0.5589  0.6355 -1.6322
   92SAPS  C218 9018   4.849   2.551   8.444 -0.0915 -0.6105 -0.4901
   92SAPS  H18R 9019   4.873   2.452   8.401 -2.0054 -0.9372 -0.8826
   92SAPS  H18S 9020   4.739   2.548   8.463  0.0942 -0.4290  0.7072
   92SAPS  C219 9021   4.922   2.582   8.575  0.1171 -0.3615  0.2715
   92SAPS  H19R 9022   4.931   2.691   8.596 -0.7902  0.2281 -2.0261
   92SAPS  H19S 9023   5.027   2.549   8.560  0.5486  0.4239  1.4171
   92SAPS  C220 9024   4.883   2.509   8.704 -0.7506 -0.3742 -0.5217
   92SAPS  H20R 9025   4.963   2.526   8.778  0.2658  0.1986 -1.7069
   92SAPS  H20S 9026   4.859   2.404   8.675  0.8887 -0.8060 -0.3621
   92SAPS  H20T 9027   4.793   2.559   8.745 -0.7418 -0.2210 -0.6864
   92SAPS   C33 9028   4.948   3.549   7.240  0.1937 -0.1432 -0.0864
   92SAPS   H3X 9029   5.015   3.461   7.242  1.5667  0.7486 -2.3759
   92SAPS   H3Y 9030   4.849   3.527   7.195  0.9972  0.2467 -2.1831
   92SAPS   C34 9031   4.933   3.598   7.385 -0.5128 -0.2735  0.0125
   92SAPS   H4X 9032   4.857   3.535   7.434  1.3575 -1.2436  1.7876
   92SAPS   H4Y 9033   4.902   3.705   7.375  1.5159  0.3559  0.0217
   92SAPS   C35 9034   5.047   3.580   7.482 -0.1132  0.0073 -0.5723
   92SAPS   H5X 9035   5.136   3.625   7.435 -0.4251  0.4699 -0.7298
   92SAPS   H5Y 9036   5.065   3.470   7.484 -0.8656 -0.1108  0.5489
   92SAPS   C36 9037   5.021   3.639   7.626 -0.1528  0.3338  0.1670
   92SAPS   H6X 9038   5.001   3.747   7.608  1.1573  1.2418  3.4536
   92SAPS   H6Y 9039   5.116   3.624   7.681  0.0720  1.4677  0.1091
   92SAPS   C37 9040   4.900   3.577   7.699 -0.4553  0.4496 -0.3993
   92SAPS   H7X 9041   4.902   3.466   7.697 -1.9231  0.4102 -1.1642
   92SAPS   H7Y 9042   4.809   3.617   7.649 -0.0574  0.0474 -1.4506
   92SAPS   C38 9043   4.901   3.613   7.847  0.2077  0.0220  0.5513
   92SAPS   H8X 9044   4.797   3.610   7.886 -0.5549  1.5472 -1.2417
   92SAPS   H8Y 9045   4.927   3.720   7.862 -2.8064  1.1976 -1.6601
   92SAPS   C39 9046   5.000   3.531   7.934  0.7757  0.0064 -0.4952
   92SAPS   H9X 9047   5.106   3.560   7.918  0.4506  1.0171 -0.8916
   92SAPS   H9Y 9048   4.980   3.422   7.922 -2.2336  0.1574  1.8854
   92SAPS  C310 9049   4.977   3.551   8.085  0.1228  0.0027  0.0127
   92SAPS  H10X 9050   4.993   3.656   8.118  1.0133 -0.2328  0.3669
   92SAPS  H10Y 9051   5.045   3.477   8.133  0.1930 -0.8190 -1.3095
   92SAPS  C311 9052   4.834   3.509   8.133 -0.4090 -1.1926 -0.0468
   92SAPS  H11X 9053   4.801   3.408   8.102  0.3266 -1.3446 -0.3383
   92SAPS  H11Y 9054   4.766   3.591   8.100  0.3152 -0.5356  0.0538
   92SAPS  C312 9055   4.822   3.523   8.288  0.0381  0.5623 -0.6185
   92SAPS  H12X 9056   4.919   3.504   8.339 -0.9566 -0.7230  0.8820
   92SAPS  H12Y 9057   4.759   3.435   8.314  0.0688  0.3961 -1.0927
   92SAPS  C313 9058   4.749   3.645   8.344 -0.3796 -0.1256 -0.3268
   92SAPS  H13X 9059   4.641   3.620   8.348  0.1959 -2.8078  1.1904
   92SAPS  H13Y 9060   4.758   3.736   8.281  1.1876  1.0202  1.4329
   92SAPS  C314 9061   4.796   3.691   8.485  0.5166  0.3173  0.5098
   92SAPS  H14X 9062   4.894   3.743   8.490 -0.1283  1.5038  1.3717
   92SAPS  H14Y 9063   4.807   3.609   8.559  1.8047  0.9908  1.0905
   92SAPS  C315 9064   4.696   3.784   8.551 -0.1449 -0.3554 -0.5751
   92SAPS  H15X 9065   4.612   3.714   8.569  0.5306 -1.2842 -1.0092
   92SAPS  H15Y 9066   4.667   3.858   8.474  1.6919 -0.9909 -1.9521
   92SAPS  C316 9067   4.746   3.857   8.682  0.4807  0.1427 -0.7688
   92SAPS  H16X 9068   4.826   3.928   8.652  1.6490 -0.4288  0.8704
   92SAPS  H16Y 9069   4.801   3.792   8.752  0.7389  1.9705  0.8148
   92SAPS  C317 9070   4.634   3.917   8.759 -0.2501  0.3256  0.5649
   92SAPS  H17X 9071   4.670   3.943   8.861  1.3545  0.7241 -0.0742
   92SAPS  H17Y 9072   4.547   3.849   8.774 -1.1542  1.0860 -0.9306
   92SAPS  C318 9073   4.594   4.047   8.695 -0.4583  0.7790 -0.8727
   92SAPS  H18X 9074   4.554   4.111   8.776 -3.4012 -1.2453 -0.5753
   92SAPS  H18Y 9075   4.511   4.019   8.626 -1.8034  1.3584  0.4569
   92SAPS  H18Z 9076   4.676   4.094   8.637  0.3271  0.4436 -0.0506
   93SAPS     N 9077   4.737   3.994   6.402  1.0948  0.4603 -0.0126
   93SAPS   HN1 9078   4.695   4.080   6.361  0.8612 -0.0024 -0.7588
   93SAPS   HN2 9079   4.659   3.937   6.439  2.1051 -2.0603 -1.4797
   93SAPS   HN3 9080   4.798   4.010   6.484  0.4280  0.2092  0.5358
   93SAPS   C12 9081   4.825   3.933   6.299 -0.0922  0.3792 -0.0341
   93SAPS  H12A 9082   4.865   3.839   6.335 -1.7270 -0.9620 -1.5258
   93SAPS   C13 9083   4.763   3.895   6.164  0.0592 -0.0301  0.3650
   93SAPS  O13A 9084   4.653   3.944   6.122  0.9653  0.1013 -0.2410
   93SAPS  O13B 9085   4.834   3.806   6.103 -0.5643  0.4477 -0.0545
   93SAPS   C11 9086   4.941   4.027   6.255 -0.2836 -0.6579 -0.0757
   93SAPS  H11A 9087   4.911   4.122   6.204 -1.4882 -0.0167  1.7331
   93SAPS  H11B 9088   5.002   3.967   6.183 -1.1434 -1.3596 -0.2321
   93SAPS     P 9089   5.167   4.111   6.371  0.2628 -0.0061  0.1946
   93SAPS   O13 9090   5.262   4.008   6.418 -0.1700 -0.4704  0.1611
   93SAPS   O14 9091   5.191   4.160   6.232 -0.0919 -0.5137  0.8438
   93SAPS   O12 9092   5.020   4.048   6.373  0.5900  0.6401 -0.2302
   93SAPS   O11 9093   5.159   4.228   6.470 -0.5205 -1.0013  0.0752
   93SAPS    C1 9094   5.047   4.241   6.564  0.0223  0.1561  0.5639
   93SAPS    HA 9095   5.046   4.340   6.614  4.5650 -0.7328  2.9414
   93SAPS    HB 9096   4.955   4.232   6.503  1.0510 -0.2612 -0.9952
   93SAPS    C2 9097   5.053   4.140   6.682 -0.3695 -0.8852  0.4718
   93SAPS    HS 9098   5.052   4.038   6.637  1.6920 -0.4979 -0.6080
   93SAPS   O21 9099   4.957   4.166   6.782 -0.7178 -0.1198  0.0719
   93SAPS   C21 9100   4.840   4.118   6.751 -0.2321  0.1017  0.3576
   93SAPS   O22 9101   4.814   4.051   6.648  0.2356  0.0917 -0.0998
   93SAPS   C22 9102   4.732   4.153   6.845 -0.5210  0.4262  0.1659
   93SAPS   H2R 9103   4.723   4.263   6.851  1.5069  0.6669 -0.5011
   93SAPS   H2S 9104   4.641   4.107   6.799 -0.3595  1.7003 -1.5481
   93SAPS    C3 9105   5.187   4.142   6.756 -0.6668  1.0428  0.8944
   93SAPS    HX 9106   5.200   4.245   6.796 -1.6631  2.0237 -1.1300
   93SAPS    HY 9107   5.264   4.117   6.680 -2.3629 -1.0341 -0.2810
   93SAPS   O31 9108   5.191   4.044   6.862  0.4048  0.4226  0.1268
   93SAPS   C31 9109   5.284   4.069   6.952  0.5308  0.5468  0.0496
   93SAPS   O32 9110   5.371   4.150   6.943  0.2664  0.3553  0.3953
   93SAPS   C32 9111   5.264   3.967   7.059 -0.4291 -0.4598 -0.0574
   93SAPS   H2X 9112   5.348   3.967   7.133 -1.3315  1.2199  1.0421
   93SAPS   H2Y 9113   5.251   3.871   7.006  1.0346  0.1103 -1.5342
   93SAPS   C23 9114   4.745   4.106   6.990 -0.1856 -0.0436  0.0866
   93SAPS   H3R 9115   4.647   4.124   7.039 -1.0117  0.1489 -1.5769
   93SAPS   H3S 9116   4.823   4.156   7.051  0.3672 -3.3086  2.2813
   93SAPS   C24 9117   4.783   3.960   7.013 -0.3847  0.0672 -0.7873
   93SAPS   H4R 9118   4.778   3.950   7.123  0.4469  1.3809 -0.5991
   93SAPS   H4S 9119   4.886   3.934   6.980 -0.8146 -0.4536 -1.7590
   93SAPS   C25 9120   4.686   3.863   6.952  0.6268 -0.5812  0.2771
   93SAPS   H5R 9121   4.675   3.888   6.846  1.0631  1.1741  0.5981
   93SAPS   C26 9122   4.617   3.763   7.005  0.5594  0.2324  0.1018
   93SAPS   H6R 9123   4.544   3.711   6.941 -0.1253 -0.7198  1.5832
   93SAPS   C27 9124   4.601   3.719   7.153 -0.7167 -0.2442  0.4395
   93SAPS   H7R 9125   4.692   3.757   7.205  0.1719 -1.1090 -0.4334
   93SAPS   H7S 9126   4.611   3.610   7.168  0.8803  0.0224  1.6343
   93SAPS   C28 9127   4.471   3.745   7.219 -0.0527 -0.4071 -0.2623
   93SAPS   H8R 9128   4.378   3.727   7.163 -1.3019 -0.3732  1.7095
   93SAPS   C29 9129   4.466   3.788   7.348 -0.2043 -0.7891  0.0164
   93SAPS   H9R 9130   4.367   3.804   7.394  0.1361  1.3788  0.1349
   93SAPS  C210 9131   4.582   3.821   7.445  0.3280 -0.0436 -0.0124
   93SAPS  H10R 9132   4.669   3.752   7.434 -0.6312 -1.1594 -0.8040
   93SAPS  H10S 9133   4.558   3.793   7.550 -0.3314  1.7808  0.3457
   93SAPS  C211 9134   4.636   3.966   7.430  0.3790  0.3772  0.3251
   93SAPS  H11R 9135   4.674   3.980   7.328 -0.9100 -1.8610 -0.5286
   93SAPS  C212 9136   4.628   4.057   7.524  0.2133 -1.0870  0.3638
   93SAPS  H12R 9137   4.653   4.163   7.508 -2.8112 -0.2303  0.7510
   93SAPS  C213 9138   4.571   4.050   7.667 -0.7199 -1.1380  0.2764
   93SAPS  H13R 9139   4.466   4.013   7.661 -0.5324 -1.4737 -3.1315
   93SAPS  H13S 9140   4.570   4.152   7.711  1.9986 -0.0016 -1.9755
   93SAPS  C214 9141   4.669   3.972   7.747 -0.4649  0.7899  0.1365
   93SAPS  H14R 9142   4.768   3.961   7.701 -1.2834 -1.9709 -1.2380
   93SAPS  C215 9143   4.653   3.926   7.870  0.2990  0.4984 -0.4175
   93SAPS  H15R 9144   4.730   3.860   7.912  0.4125 -0.7157 -2.4212
   93SAPS  C216 9145   4.531   3.940   7.955  0.0926  0.2533  0.2403
   93SAPS  H16R 9146   4.480   3.842   7.969  1.4612 -0.5937 -0.4999
   93SAPS  H16S 9147   4.462   4.009   7.902 -0.3968 -0.4348 -0.0255
   93SAPS  C217 9148   4.549   3.994   8.093 -0.2143  0.2401 -0.5378
   93SAPS  H17R 9149   4.580   4.101   8.102 -0.8936  0.3057  1.3784
   93SAPS  H17S 9150   4.631   3.943   8.146 -1.1949 -1.3478 -0.4992
   93SAPS  C218 9151   4.420   3.977   8.172  0.3025 -0.1415  0.1205
   93SAPS  H18R 9152   4.348   3.908   8.123 -0.2508  1.9009 -2.1602
   93SAPS  H18S 9153   4.372   4.077   8.177 -1.1191 -0.8339  1.4219
   93SAPS  C219 9154   4.440   3.931   8.318 -0.7325  0.0753  0.1848
   93SAPS  H19R 9155   4.486   4.012   8.378 -1.5667  2.8001 -2.6109
   93SAPS  H19S 9156   4.508   3.844   8.327 -2.2807 -1.1229  0.8066
   93SAPS  C220 9157   4.303   3.906   8.377  0.6440  0.1775 -0.2845
   93SAPS  H20R 9158   4.238   3.833   8.325  1.4012  0.3055 -1.4595
   93SAPS  H20S 9159   4.239   3.997   8.381 -1.1011 -0.9746 -0.8048
   93SAPS  H20T 9160   4.315   3.874   8.483 -0.8301 -0.2862 -0.2430
   93SAPS   C33 9161   5.132   4.002   7.131 -0.5320 -0.2721  0.2058
   93SAPS   H3X 9162   5.110   3.920   7.203 -0.9265 -1.6295 -1.3848
   93SAPS   H3Y 9163   5.049   4.021   7.060 -2.1971 -0.5375  1.9847
   93SAPS   C34 9164   5.145   4.132   7.222 -0.1708 -0.2028  0.5529
   93SAPS   H4X 9165   5.122   4.215   7.152  1.0059  0.0145  0.4116
   93SAPS   H4Y 9166   5.250   4.150   7.253  0.3402  0.7008 -1.5624
   93SAPS   C35 9167   5.058   4.130   7.351 -0.1214 -0.1641 -0.6809
   93SAPS   H5X 9168   4.951   4.102   7.333 -0.2020  0.6887 -1.6007
   93SAPS   H5Y 9169   5.054   4.236   7.383  0.9155 -0.2378 -0.2842
   93SAPS   C36 9170   5.125   4.055   7.468  0.1491 -0.1873  0.2856
   93SAPS   H6X 9171   5.221   4.103   7.498  0.7170 -2.1637  1.9242
   93SAPS   H6Y 9172   5.140   3.952   7.431 -0.5693  0.6147 -2.4441
   93SAPS   C37 9173   5.030   4.044   7.587  0.0064  0.3249 -0.1025
   93SAPS   H7X 9174   4.949   3.969   7.578  2.3624 -3.0153  3.3882
   93SAPS   H7Y 9175   4.990   4.145   7.613 -1.1980 -0.3496  0.7122
   93SAPS   C38 9176   5.116   3.993   7.707  0.3864 -0.0147  0.4784
   93SAPS   H8X 9177   5.212   4.046   7.720  0.4586 -0.5367  2.4196
   93SAPS   H8Y 9178   5.138   3.884   7.700  0.0305 -0.0060 -1.4613
   93SAPS   C39 9179   5.047   4.008   7.849 -0.3268  0.5427  0.2244
   93SAPS   H9X 9180   4.972   3.926   7.852 -0.2457  0.4846  0.8068
   93SAPS   H9Y 9181   5.006   4.111   7.852  1.8185  1.4305  1.5846
   93SAPS  C310 9182   5.148   3.999   7.962  0.3487  0.6174 -0.0255
   93SAPS  H10X 9183   5.217   4.085   7.973 -2.0846  2.5739  0.8070
   93SAPS  H10Y 9184   5.211   3.909   7.943 -0.5799  0.2184 -1.4357
   93SAPS  C311 9185   5.079   3.985   8.100  0.1403  0.0414  0.2053
   93SAPS  H11X 9186   5.011   3.897   8.098 -0.7722  0.7152  1.0234
   93SAPS  H11Y 9187   5.006   4.068   8.107 -3.8371 -3.0332 -0.7450
   93SAPS  C312 9188   5.185   3.977   8.208  0.3746 -0.4836  0.2668
   93SAPS  H12X 9189   5.271   3.911   8.183  0.7970  0.3225 -0.4901
   93SAPS  H12Y 9190   5.136   3.935   8.298  0.8361 -1.3763  0.1137
   93SAPS  C313 9191   5.248   4.112   8.251  0.0348  1.1783  0.0481
   93SAPS  H13X 9192   5.292   4.159   8.161 -0.6625 -1.8042 -2.0149
   93SAPS  H13Y 9193   5.333   4.084   8.317 -0.2116 -0.4902 -0.2978
   93SAPS  C314 9194   5.144   4.205   8.311 -0.1840 -0.0658 -0.1972
   93SAPS  H14X 9195   5.121   4.165   8.412  1.5307 -2.2726 -0.6070
   93SAPS  H14Y 9196   5.049   4.213   8.253  1.0085 -0.0838 -2.2609
   93SAPS  C315 9197   5.201   4.346   8.344 -0.2715 -0.4698 -0.1275
   93SAPS  H15X 9198   5.218   4.392   8.244  0.7061  1.1762  0.7549
   93SAPS  H15Y 9199   5.304   4.335   8.384  0.2430 -0.8225 -1.4854
   93SAPS  C316 9200   5.120   4.433   8.447 -0.2143 -0.4147  0.7133
   93SAPS  H16X 9201   5.015   4.426   8.411 -0.9962  1.7036  2.4002
   93SAPS  H16Y 9202   5.133   4.542   8.431  0.3774 -0.3549  1.5566
   93SAPS  C317 9203   5.139   4.389   8.592  0.6948  0.4677  0.2344
   93SAPS  H17X 9204   5.244   4.399   8.627  0.7868 -1.8458  0.8270
   93SAPS  H17Y 9205   5.102   4.284   8.592 -1.4627  1.1865 -0.0206
   93SAPS  C318 9206   5.051   4.460   8.693 -0.3604 -0.0231 -0.5669
   93SAPS  H18X 9207   5.052   4.417   8.795  1.2379  1.7171  0.2185
   93SAPS  H18Y 9208   4.946   4.444   8.662 -0.7596 -2.5597  1.7624
   93SAPS  H18Z 9209   5.075   4.566   8.715  1.2425 -1.1776  4.3442
   94SAPS     N 9210   6.508   5.703   5.669 -0.0970 -0.4940 -0.1590
   94SAPS   HN1 9211   6.591   5.682   5.728  0.6311  3.6256  0.6209
   94SAPS   HN2 9212   6.476   5.613   5.628  0.5991 -0.9293  0.2343
   94SAPS   HN3 9213   6.535   5.767   5.591 -1.2161  2.7577  1.9328
   94SAPS   C12 9214   6.414   5.763   5.763 -0.8146  0.2201 -0.6981
   94SAPS  H12A 9215   6.336   5.820   5.714 -1.6710 -0.7433 -0.4964
   94SAPS   C13 9216   6.352   5.651   5.854 -0.0660 -0.2214  0.0239
   94SAPS  O13A 9217   6.416   5.546   5.881 -0.5258  0.3769  0.2200
   94SAPS  O13B 9218   6.248   5.679   5.919  0.5284  0.1083  0.3489
   94SAPS   C11 9219   6.493   5.870   5.844 -0.0102 -0.2135 -0.6466
   94SAPS  H11A 9220   6.584   5.827   5.891  1.4101  1.3913 -1.8425
   94SAPS  H11B 9221   6.423   5.900   5.925  1.2211  0.1348  0.3300
   94SAPS     P 9222   6.524   6.133   5.812 -0.0248 -0.1704 -0.1722
   94SAPS   O13 9223   6.625   6.192   5.724 -0.3353  0.3175  0.7912
   94SAPS   O14 9224   6.389   6.189   5.802  0.6218  0.0667  0.0781
   94SAPS   O12 9225   6.521   5.982   5.763 -0.0523  0.3391 -0.5308
   94SAPS   O11 9226   6.559   6.138   5.959  0.3102  0.4673  0.8737
   94SAPS    C1 9227   6.689   6.131   6.016 -0.7834  0.1881 -0.3984
   94SAPS    HA 9228   6.713   6.034   6.065 -0.0521  1.9505  3.0755
   94SAPS    HB 9229   6.772   6.151   5.946 -1.1095 -0.4889 -0.9946
   94SAPS    C2 9230   6.698   6.220   6.149 -0.1388 -0.1600 -0.4144
   94SAPS    HS 9231   6.793   6.201   6.203 -1.2454  0.2911  1.8511
   94SAPS   O21 9232   6.591   6.179   6.236  0.1706  0.4017 -0.3612
   94SAPS   C21 9233   6.617   6.199   6.372  0.4780  0.5427  0.0099
   94SAPS   O22 9234   6.713   6.255   6.414  0.9789 -0.1186  0.4045
   94SAPS   C22 9235   6.506   6.139   6.460 -0.5623 -0.1381  0.3313
   94SAPS   H2R 9236   6.419   6.209   6.465 -0.4012  0.0064  1.6505
   94SAPS   H2S 9237   6.478   6.040   6.418  1.3269 -1.0069  1.0031
   94SAPS    C3 9238   6.693   6.376   6.124  0.0724 -0.8317 -0.1119
   94SAPS    HX 9239   6.600   6.400   6.068  0.6544  0.0883 -0.7327
   94SAPS    HY 9240   6.772   6.404   6.050 -1.2070  1.6918 -0.6569
   94SAPS   O31 9241   6.718   6.462   6.241  0.4070  0.0012 -0.0614
   94SAPS   C31 9242   6.849   6.476   6.279  0.0731  0.4659 -1.3781
   94SAPS   O32 9243   6.942   6.438   6.212  0.5368 -0.4030 -0.3287
   94SAPS   C32 9244   6.860   6.558   6.409 -0.8372  0.6680 -0.7430
   94SAPS   H2X 9245   6.869   6.489   6.496 -0.8379  1.7890  0.1675
   94SAPS   H2Y 9246   6.764   6.613   6.417 -1.0506  0.2860 -0.6633
   94SAPS   C23 9247   6.552   6.125   6.606 -0.9411  0.2657  0.6577
   94SAPS   H3R 9248   6.610   6.214   6.639 -0.5164  0.1571  0.2021
   94SAPS   H3S 9249   6.620   6.038   6.611  2.0235  2.3465 -0.7301
   94SAPS   C24 9250   6.429   6.113   6.703  0.7572 -0.3524 -0.0079
   94SAPS   H4R 9251   6.352   6.190   6.679 -0.3975 -0.8261  1.9645
   94SAPS   H4S 9252   6.461   6.141   6.805  2.0029  0.2148 -0.5331
   94SAPS   C25 9253   6.357   5.978   6.701  0.5874  0.2498 -0.6652
   94SAPS   H5R 9254   6.302   5.957   6.608 -0.6005 -0.4449  0.1678
   94SAPS   C26 9255   6.343   5.895   6.810  0.0187  0.2045 -0.1145
   94SAPS   H6R 9256   6.283   5.804   6.794 -2.3422  2.0088 -2.2774
   94SAPS   C27 9257   6.410   5.914   6.938 -0.2962 -0.6100 -0.2876
   94SAPS   H7R 9258   6.361   5.988   7.004  2.4023  2.3191 -1.3563
   94SAPS   H7S 9259   6.512   5.956   6.923 -0.3718  1.4000  3.5800
   94SAPS   C28 9260   6.425   5.778   7.008 -0.3243  0.3556  0.6431
   94SAPS   H8R 9261   6.403   5.686   6.953  0.8857  1.9117 -2.6982
   94SAPS   C29 9262   6.436   5.761   7.139  0.5305  0.1950 -0.2213
   94SAPS   H9R 9263   6.438   5.658   7.178 -1.2927 -0.0399 -0.6399
   94SAPS  C210 9264   6.451   5.866   7.239  0.0917  0.6626  0.2295
   94SAPS  H10R 9265   6.499   5.956   7.196  1.0156  0.8613  1.5978
   94SAPS  H10S 9266   6.526   5.834   7.315  0.1437 -1.1352 -0.5294
   94SAPS  C211 9267   6.330   5.910   7.323 -0.4377  0.0988  0.2320
   94SAPS  H11R 9268   6.233   5.884   7.278 -0.4397 -0.6621  0.6612
   94SAPS  C212 9269   6.341   5.958   7.446  0.1901 -0.6386 -1.1532
   94SAPS  H12R 9270   6.249   5.996   7.491  1.1771  1.0495 -0.4597
   94SAPS  C213 9271   6.462   5.971   7.533  0.3785  0.8458 -0.0997
   94SAPS  H13R 9272   6.560   5.987   7.483  1.4686 -2.1043  0.8653
   94SAPS  H13S 9273   6.478   5.869   7.575  0.0593  0.0673 -1.7818
   94SAPS  C214 9274   6.446   6.061   7.649 -0.1416  0.1460  0.2119
   94SAPS  H14R 9275   6.434   6.167   7.622  1.2254 -0.1303 -1.6990
   94SAPS  C215 9276   6.441   6.031   7.782 -0.3041  0.2218  0.4714
   94SAPS  H15R 9277   6.426   6.109   7.859 -1.1670  0.3895  0.1403
   94SAPS  C216 9278   6.460   5.895   7.834 -0.4481 -1.0039  0.6907
   94SAPS  H16R 9279   6.566   5.867   7.815 -0.1335  0.2185  0.5169
   94SAPS  H16S 9280   6.395   5.823   7.781 -0.1115 -0.2388 -0.8349
   94SAPS  C217 9281   6.448   5.901   7.994 -0.3931  0.7263 -0.2591
   94SAPS  H17R 9282   6.510   5.986   8.031  0.2676 -0.3938  1.2854
   94SAPS  H17S 9283   6.494   5.805   8.025  0.2016  1.1435  0.1873
   94SAPS  C218 9284   6.307   5.923   8.051  0.0370  0.2207  0.0261
   94SAPS  H18R 9285   6.262   5.822   8.058  0.0066  0.2305 -0.0325
   94SAPS  H18S 9286   6.242   5.989   7.989  0.4323 -1.8595 -2.7741
   94SAPS  C219 9287   6.304   5.965   8.202 -0.6217 -0.4931  0.2418
   94SAPS  H19R 9288   6.379   6.047   8.210  0.8209 -1.7013 -0.4121
   94SAPS  H19S 9289   6.336   5.881   8.268  0.3530 -0.0021  0.4211
   94SAPS  C220 9290   6.169   6.019   8.247 -0.7135 -0.4290 -0.5635
   94SAPS  H20R 9291   6.177   6.049   8.353 -0.4215  0.6693 -0.8838
   94SAPS  H20S 9292   6.085   5.950   8.225 -1.4442  1.1397 -3.2057
   94SAPS  H20T 9293   6.142   6.115   8.197 -1.7291 -1.1245 -1.3898
   94SAPS   C33 9294   6.980   6.652   6.423  0.3712 -1.0611 -0.0809
   94SAPS   H3X 9295   6.983   6.728   6.342  2.6333  0.2761  1.1261
   94SAPS   H3Y 9296   7.075   6.597   6.408  1.3605  0.4723  0.2716
   94SAPS   C34 9297   6.982   6.721   6.562  0.4134 -0.3371  0.4187
   94SAPS   H4X 9298   6.887   6.776   6.580 -1.5107 -3.5443  0.6705
   94SAPS   H4Y 9299   7.070   6.789   6.555  0.1714 -0.1188 -1.0766
   94SAPS   C35 9300   7.009   6.632   6.680 -0.4384 -0.6963 -0.3850
   94SAPS   H5X 9301   7.110   6.587   6.668  0.1070  0.8382 -1.9900
   94SAPS   H5Y 9302   6.942   6.544   6.673 -0.6310 -0.5048 -1.0150
   94SAPS   C36 9303   6.991   6.705   6.816 -0.8967  0.0456  0.7124
   94SAPS   H6X 9304   6.887   6.743   6.824 -1.1547 -0.6971  0.9180
   94SAPS   H6Y 9305   7.055   6.796   6.817 -1.4184  0.5096  4.3644
   94SAPS   C37 9306   7.020   6.603   6.934  0.8495  0.6705  0.8871
   94SAPS   H7X 9307   7.128   6.590   6.957 -0.0525 -2.4937  4.1181
   94SAPS   H7Y 9308   6.977   6.507   6.898  0.2393  1.4822 -0.6495
   94SAPS   C38 9309   6.948   6.650   7.058 -0.1688 -0.6258  0.1181
   94SAPS   H8X 9310   6.837   6.660   7.056 -0.3231 -1.8525  1.2090
   94SAPS   H8Y 9311   6.982   6.747   7.101 -0.2316 -1.3120  1.8105
   94SAPS   C39 9312   6.977   6.545   7.171 -0.0887  0.1142  0.4822
   94SAPS   H9X 9313   7.082   6.509   7.170 -0.4211 -1.3104  3.5708
   94SAPS   H9Y 9314   6.921   6.451   7.151 -1.8695  0.4093  3.4161
   94SAPS  C310 9315   6.941   6.590   7.311 -0.0423  0.5492 -0.1490
   94SAPS  H10X 9316   6.836   6.627   7.312  0.1255  1.1118 -1.1704
   94SAPS  H10Y 9317   7.009   6.669   7.349  0.1987 -0.3434  1.3524
   94SAPS  C311 9318   6.953   6.469   7.406  0.4200  0.5278  0.3313
   94SAPS  H11X 9319   7.030   6.398   7.370  2.7523  3.5374 -1.0872
   94SAPS  H11Y 9320   6.856   6.416   7.412  1.1280 -0.7016  1.3427
   94SAPS  C312 9321   6.991   6.514   7.546 -0.0155 -1.0806 -0.6579
   94SAPS  H12X 9322   6.902   6.565   7.589  0.2256 -0.5602 -0.7639
   94SAPS  H12Y 9323   7.062   6.598   7.532 -0.7604 -0.1808  0.7182
   94SAPS  C313 9324   7.046   6.406   7.638 -0.0522 -0.2173  0.4742
   94SAPS  H13X 9325   7.123   6.341   7.591  0.2248  1.1948 -1.1232
   94SAPS  H13Y 9326   6.966   6.332   7.658 -0.3112 -1.2769 -3.6437
   94SAPS  C314 9327   7.100   6.461   7.771  0.0401  0.1545  0.2603
   94SAPS  H14X 9328   7.040   6.554   7.788 -1.4405 -0.4107 -1.5204
   94SAPS  H14Y 9329   7.202   6.500   7.755 -0.0353  0.0763 -0.4238
   94SAPS  C315 9330   7.084   6.369   7.898  0.8142  0.2856  0.5855
   94SAPS  H15X 9331   7.000   6.298   7.883  2.3308 -1.8536  1.7578
   94SAPS  H15Y 9332   7.057   6.435   7.984 -0.9022 -1.0460  1.1294
   94SAPS  C316 9333   7.218   6.289   7.942  0.1756 -0.0435  0.2681
   94SAPS  H16X 9334   7.297   6.366   7.927  0.8677 -0.9305 -0.8100
   94SAPS  H16Y 9335   7.244   6.207   7.872  0.0526  0.7142 -0.6875
   94SAPS  C317 9336   7.240   6.249   8.086 -0.3869  0.0144 -0.4668
   94SAPS  H17X 9337   7.166   6.173   8.117 -1.0327  1.3695  1.4804
   94SAPS  H17Y 9338   7.235   6.339   8.151 -1.5281 -0.0628 -0.4294
   94SAPS  C318 9339   7.387   6.194   8.104 -1.0228 -0.1844  0.8425
   94SAPS  H18X 9340   7.402   6.184   8.213 -2.6064  3.3583  1.5311
   94SAPS  H18Y 9341   7.465   6.260   8.061 -0.6901 -2.0793 -1.7561
   94SAPS  H18Z 9342   7.396   6.096   8.052 -0.1739  0.2397  0.1544
   95SAPS     N 9343   2.434   3.215   6.382 -0.7545 -0.5201  0.2981
   95SAPS   HN1 9344   2.381   3.285   6.326 -1.6412  0.3763  2.1690
   95SAPS   HN2 9345   2.414   3.242   6.480 -0.5644  0.7274  0.0134
   95SAPS   HN3 9346   2.537   3.234   6.384 -0.8121 -0.2175  0.3949
   95SAPS   C12 9347   2.403   3.073   6.340 -0.2416  0.4635  0.3188
   95SAPS  H12A 9348   2.341   3.085   6.253  0.7886 -0.2073 -0.5343
   95SAPS   C13 9349   2.521   2.972   6.315 -0.2843  0.3656  0.2694
   95SAPS  O13A 9350   2.635   3.014   6.328  0.2503  0.5106 -0.2438
   95SAPS  O13B 9351   2.503   2.853   6.271  0.9798  0.0125 -0.3058
   95SAPS   C11 9352   2.316   3.001   6.452 -0.1170  0.1151  0.2016
   95SAPS  H11A 9353   2.362   3.023   6.551 -0.8522  1.4579  0.2714
   95SAPS  H11B 9354   2.312   2.893   6.428 -0.0150  0.1564 -0.0022
   95SAPS     P 9355   2.056   3.015   6.384  0.0504 -0.5634  0.2099
   95SAPS   O13 9356   1.996   3.120   6.300 -0.1342 -0.6331  0.0274
   95SAPS   O14 9357   2.076   2.890   6.309 -0.3287 -0.1087 -0.1519
   95SAPS   O12 9358   2.186   3.063   6.455 -0.2607 -0.8557  0.4549
   95SAPS   O11 9359   1.970   2.995   6.514  0.4091  0.5777  0.2825
   95SAPS    C1 9360   1.918   3.110   6.578  0.9882 -0.8115 -1.0755
   95SAPS    HA 9361   1.979   3.111   6.671 -0.8474 -2.1736  0.2357
   95SAPS    HB 9362   1.924   3.203   6.519 -2.7243  0.1673 -0.2001
   95SAPS    C2 9363   1.764   3.091   6.624 -0.3593 -0.0209  0.4528
   95SAPS    HS 9364   1.735   3.183   6.678 -1.7654  0.8654 -1.6902
   95SAPS   O21 9365   1.748   2.966   6.699  0.2683  0.1983  0.0826
   95SAPS   C21 9366   1.763   2.979   6.832 -0.5468  0.2302  0.9128
   95SAPS   O22 9367   1.796   3.082   6.885 -0.0806  0.2223 -0.4248
   95SAPS   C22 9368   1.728   2.855   6.905 -0.7878  0.6100 -0.6807
   95SAPS   H2R 9369   1.618   2.858   6.920 -0.7171 -0.2048  0.1563
   95SAPS   H2S 9370   1.732   2.762   6.845  1.2096  0.2254 -0.0566
   95SAPS    C3 9371   1.661   3.084   6.513 -0.4333 -0.4934  0.2452
   95SAPS    HX 9372   1.685   3.000   6.445 -1.0834  0.2513 -0.9353
   95SAPS    HY 9373   1.674   3.174   6.449  0.9626  1.6244  3.2275
   95SAPS   O31 9374   1.523   3.068   6.558  0.1349 -0.3002  0.2042
   95SAPS   C31 9375   1.474   3.162   6.623  0.3230  0.3091  0.4691
   95SAPS   O32 9376   1.523   3.272   6.643  0.2522  0.4205 -0.1976
   95SAPS   C32 9377   1.339   3.118   6.675  0.8576 -0.8811 -0.1188
   95SAPS   H2X 9378   1.328   3.008   6.667  0.5129 -0.9379  0.9905
   95SAPS   H2Y 9379   1.261   3.160   6.608  0.4915 -0.2636  0.6707
   95SAPS   C23 9380   1.793   2.836   7.039 -0.2247  0.5496 -0.5616
   95SAPS   H3R 9381   1.795   2.935   7.088  0.7220 -0.0371  0.6428
   95SAPS   H3S 9382   1.898   2.802   7.026 -0.0950  0.0958  1.3191
   95SAPS   C24 9383   1.711   2.731   7.126  0.0690  0.0441  0.7708
   95SAPS   H4R 9384   1.686   2.641   7.067 -0.4464  2.4793 -3.0959
   95SAPS   H4S 9385   1.614   2.782   7.143  0.2430  1.0079 -0.8943
   95SAPS   C25 9386   1.777   2.699   7.257 -0.1457  0.2651  0.6146
   95SAPS   H5R 9387   1.847   2.615   7.252 -1.5378 -0.9219  0.5920
   95SAPS   C26 9388   1.751   2.742   7.380  0.1843 -0.2582 -0.2001
   95SAPS   H6R 9389   1.799   2.700   7.470 -1.3270 -1.4784  0.0876
   95SAPS   C27 9390   1.646   2.851   7.402  0.3567  0.4112 -0.3017
   95SAPS   H7R 9391   1.603   2.897   7.311 -0.8785  1.7181  0.8970
   95SAPS   H7S 9392   1.704   2.932   7.451  0.8463 -0.3209  0.3621
   95SAPS   C28 9393   1.536   2.799   7.488 -1.0622 -0.6035  0.4049
   95SAPS   H8R 9394   1.444   2.769   7.434 -1.9361  1.8366  0.4175
   95SAPS   C29 9395   1.538   2.772   7.619  0.4565 -0.6395  0.3155
   95SAPS   H9R 9396   1.441   2.752   7.668 -0.4463 -0.5094 -1.3382
   95SAPS  C210 9397   1.653   2.802   7.712 -0.6303 -0.2767 -0.3511
   95SAPS  H10R 9398   1.717   2.883   7.671 -0.0391 -0.9526 -0.7893
   95SAPS  H10S 9399   1.714   2.709   7.715  0.3087  0.3475  0.3864
   95SAPS  C211 9400   1.606   2.851   7.849 -0.3287  0.8479 -0.6858
   95SAPS  H11R 9401   1.549   2.945   7.848  0.9797  1.6655 -0.7764
   95SAPS  C212 9402   1.626   2.795   7.972 -0.2636  0.3034 -0.1284
   95SAPS  H12R 9403   1.580   2.842   8.060 -1.1001  3.1291 -1.9266
   95SAPS  C213 9404   1.711   2.671   8.002  0.3959  0.0656  0.7561
   95SAPS  H13R 9405   1.792   2.664   7.927  2.1221  0.8682  2.4865
   95SAPS  H13S 9406   1.649   2.578   7.998  1.3019 -0.5567  0.9108
   95SAPS  C214 9407   1.767   2.676   8.139 -0.6467 -0.5996  0.0820
   95SAPS  H14R 9408   1.873   2.705   8.131 -1.2506  1.5151 -1.2984
   95SAPS  C215 9409   1.716   2.651   8.261 -0.0370 -0.6466  0.6734
   95SAPS  H15R 9410   1.774   2.671   8.352  0.2980 -0.3032  0.3850
   95SAPS  C216 9411   1.571   2.603   8.284 -0.2760  0.5192  0.3886
   95SAPS  H16R 9412   1.507   2.617   8.194 -0.1746 -1.0371  0.0527
   95SAPS  H16S 9413   1.523   2.669   8.359  1.9242  2.7098  0.0402
   95SAPS  C217 9414   1.570   2.457   8.336 -0.0306  0.9236  0.5415
   95SAPS  H17R 9415   1.629   2.443   8.429  1.4034  0.1510 -0.4337
   95SAPS  H17S 9416   1.595   2.382   8.258 -0.1448  1.7277 -0.2822
   95SAPS  C218 9417   1.424   2.406   8.379  0.3759 -0.0608  0.9162
   95SAPS  H18R 9418   1.361   2.426   8.289  2.5799  0.4330 -0.6100
   95SAPS  H18S 9419   1.390   2.475   8.459 -3.3218  0.7913 -1.1250
   95SAPS  C219 9420   1.404   2.262   8.418 -0.4293  0.3594  1.0676
   95SAPS  H19R 9421   1.486   2.233   8.487  0.8465 -1.3731 -1.0655
   95SAPS  H19S 9422   1.421   2.190   8.336  0.1115  1.2821  0.3523
   95SAPS  C220 9423   1.278   2.239   8.502 -0.0928  0.0560 -0.7794
   95SAPS  H20R 9424   1.235   2.138   8.481  0.7213 -0.4700 -0.0072
   95SAPS  H20S 9425   1.191   2.305   8.483 -0.2662 -0.1615 -0.7477
   95SAPS  H20T 9426   1.308   2.250   8.608 -1.0582  0.3523 -0.5254
   95SAPS   C33 9427   1.316   3.166   6.824  0.3129 -0.9822  0.4382
   95SAPS   H3X 9428   1.211   3.142   6.853  0.7328 -0.1275  2.8715
   95SAPS   H3Y 9429   1.319   3.277   6.823  0.2075 -0.9567 -1.6693
   95SAPS   C34 9430   1.395   3.097   6.928  0.0663 -0.3667  0.0323
   95SAPS   H4X 9431   1.504   3.110   6.914 -0.0074 -1.6440 -2.2607
   95SAPS   H4Y 9432   1.379   2.988   6.929  0.9297 -0.5032 -0.0981
   95SAPS   C35 9433   1.365   3.142   7.075 -0.4561  0.8132 -1.1239
   95SAPS   H5X 9434   1.257   3.128   7.096 -0.0543 -1.5849 -0.2978
   95SAPS   H5Y 9435   1.386   3.250   7.084 -1.2743  0.8865  0.0917
   95SAPS   C36 9436   1.452   3.069   7.185 -0.2732  0.0509  0.0965
   95SAPS   H6X 9437   1.563   3.072   7.181 -0.2772 -0.4605 -0.6703
   95SAPS   H6Y 9438   1.439   2.959   7.188 -1.1164  0.1285 -0.3404
   95SAPS   C37 9439   1.425   3.128   7.327  0.5148  0.0858  0.4521
   95SAPS   H7X 9440   1.464   3.231   7.322  0.9537 -0.1251 -0.8444
   95SAPS   H7Y 9441   1.485   3.078   7.407  1.9825  1.6897  0.4138
   95SAPS   C38 9442   1.274   3.121   7.374  0.0264  0.1514  0.2528
   95SAPS   H8X 9443   1.257   3.015   7.345 -0.2191  0.0459  0.7700
   95SAPS   H8Y 9444   1.220   3.191   7.306  0.2261 -0.0421 -0.1057
   95SAPS   C39 9445   1.245   3.135   7.524 -0.2227  0.0557  0.2290
   95SAPS   H9X 9446   1.307   3.052   7.566  0.3276  0.0632 -0.5469
   95SAPS   H9Y 9447   1.136   3.125   7.543 -0.2261 -1.0519 -0.2697
   95SAPS  C310 9448   1.307   3.261   7.587  0.1335 -0.5016  0.8630
   95SAPS  H10X 9449   1.261   3.347   7.534  2.4147  1.0338  1.2153
   95SAPS  H10Y 9450   1.416   3.265   7.563 -0.2002  1.0876 -0.6443
   95SAPS  C311 9451   1.296   3.271   7.736  0.3995  0.0176  0.0935
   95SAPS  H11X 9452   1.192   3.242   7.761  0.8786 -0.1855  2.0283
   95SAPS  H11Y 9453   1.318   3.377   7.763 -0.9504  0.1904  0.5953
   95SAPS  C312 9454   1.387   3.183   7.810 -0.2177 -0.0793 -0.6696
   95SAPS  H12X 9455   1.491   3.217   7.790  0.2860 -0.9877  0.3052
   95SAPS  H12Y 9456   1.386   3.073   7.796  0.4141 -0.4175  1.5166
   95SAPS  C313 9457   1.361   3.189   7.968  0.0480  0.3274 -0.5914
   95SAPS  H13X 9458   1.260   3.149   7.989  0.8094 -1.8723 -0.8749
   95SAPS  H13Y 9459   1.355   3.298   7.987 -0.6391  0.2004 -0.0430
   95SAPS  C314 9460   1.447   3.106   8.060 -0.0725 -0.2944 -0.1118
   95SAPS  H14X 9461   1.553   3.108   8.027 -0.3341 -0.5220 -0.9918
   95SAPS  H14Y 9462   1.414   3.001   8.050 -1.5564  0.2235 -0.8949
   95SAPS  C315 9463   1.438   3.135   8.208  0.5399 -0.3622  0.5828
   95SAPS  H15X 9464   1.336   3.115   8.245  0.6733  1.1527  1.8666
   95SAPS  H15Y 9465   1.434   3.244   8.229 -2.4824 -0.3639  0.4402
   95SAPS  C316 9466   1.547   3.071   8.297  0.2686 -0.5023 -0.1208
   95SAPS  H16X 9467   1.644   3.101   8.251  0.1786 -0.2863 -0.1722
   95SAPS  H16Y 9468   1.536   2.961   8.284 -1.5478 -0.1870 -1.5861
   95SAPS  C317 9469   1.541   3.115   8.442 -1.0888  0.3551 -0.1698
   95SAPS  H17X 9470   1.452   3.074   8.495 -0.6663 -0.3658 -0.0041
   95SAPS  H17Y 9471   1.550   3.225   8.441  0.2168  0.2935 -2.3820
   95SAPS  C318 9472   1.663   3.067   8.514  0.4224 -0.8452  0.0362
   95SAPS  H18X 9473   1.748   3.137   8.505 -0.3771 -0.0886 -2.9414
   95SAPS  H18Y 9474   1.692   2.961   8.494 -0.1745 -1.3468  1.6539
   95SAPS  H18Z 9475   1.635   3.058   8.621  0.5442 -1.2540  0.0375
   96SAPS     N 9476   3.306   5.405   6.539  1.2806 -0.2132  0.0371
   96SAPS   HN1 9477   3.264   5.494   6.505 -0.5822 -1.0537 -0.0166
   96SAPS   HN2 9478   3.247   5.325   6.509 -0.9548  0.6639  1.7898
   96SAPS   HN3 9479   3.313   5.412   6.642 -0.1686  1.2214  0.0921
   96SAPS   C12 9480   3.444   5.407   6.480 -0.7581 -0.4480  0.5355
   96SAPS  H12A 9481   3.515   5.437   6.554 -0.0099  0.8834 -0.6836
   96SAPS   C13 9482   3.491   5.269   6.432  0.0785  0.2456  0.2077
   96SAPS  O13A 9483   3.423   5.170   6.448  0.0363 -0.5570  0.1176
   96SAPS  O13B 9484   3.607   5.260   6.390 -0.3949 -0.2221  0.2052
   96SAPS   C11 9485   3.453   5.517   6.371 -0.3236  0.9282  0.8585
   96SAPS  H11A 9486   3.396   5.481   6.284 -0.5857  0.1791  1.3285
   96SAPS  H11B 9487   3.559   5.503   6.341 -0.2222 -1.5098  2.0631
   96SAPS     P 9488   3.506   5.769   6.365  0.1431 -0.7193 -0.4364
   96SAPS   O13 9489   3.572   5.739   6.236  0.0434 -0.1974 -0.1213
   96SAPS   O14 9490   3.437   5.899   6.378  0.0673 -0.4785 -0.2035
   96SAPS   O12 9491   3.414   5.645   6.415  0.3291 -0.1247  0.3053
   96SAPS   O11 9492   3.621   5.759   6.479 -0.2492  0.3700  0.4371
   96SAPS    C1 9493   3.626   5.824   6.606  0.2015 -0.1416  0.3887
   96SAPS    HA 9494   3.684   5.918   6.602 -0.5524  0.4027  1.8065
   96SAPS    HB 9495   3.521   5.847   6.631  0.2031  0.0698  0.2025
   96SAPS    C2 9496   3.699   5.743   6.716 -0.3066 -0.1929  0.9288
   96SAPS    HS 9497   3.665   5.639   6.693  1.6076 -0.5815 -0.4038
   96SAPS   O21 9498   3.650   5.795   6.836  0.5980  0.0596 -0.3086
   96SAPS   C21 9499   3.608   5.701   6.917 -0.9663 -0.2074  0.4162
   96SAPS   O22 9500   3.610   5.582   6.897 -0.2680 -0.1767  0.5224
   96SAPS   C22 9501   3.548   5.776   7.042 -0.5644 -0.4801 -0.3092
   96SAPS   H2R 9502   3.638   5.823   7.088 -1.5790  0.4673  0.7517
   96SAPS   H2S 9503   3.484   5.857   7.001 -0.4127 -0.7731 -1.1354
   96SAPS    C3 9504   3.854   5.759   6.703 -0.5778  0.3376 -0.0378
   96SAPS    HX 9505   3.885   5.865   6.704 -0.5673  0.3399  0.9240
   96SAPS    HY 9506   3.869   5.716   6.602 -4.2008 -0.0113 -0.5510
   96SAPS   O31 9507   3.932   5.682   6.797  0.0329  0.6051 -0.1207
   96SAPS   C31 9508   3.944   5.553   6.775  0.0946 -0.2290  0.5584
   96SAPS   O32 9509   3.907   5.485   6.680 -0.0096 -0.3845 -0.1657
   96SAPS   C32 9510   3.999   5.496   6.906  0.3170  0.4522  0.3597
   96SAPS   H2X 9511   3.997   5.564   6.994 -0.3572 -1.9969  2.3236
   96SAPS   H2Y 9512   4.098   5.450   6.885  1.2878  1.2649  2.8431
   96SAPS   C23 9513   3.457   5.684   7.132  0.7244  0.0083  0.2216
   96SAPS   H3R 9514   3.367   5.663   7.071  1.2677  0.5183 -0.7945
   96SAPS   H3S 9515   3.411   5.745   7.213 -0.6092  0.1828 -0.6324
   96SAPS   C24 9516   3.525   5.562   7.183  0.3370 -0.8792 -1.2914
   96SAPS   H4R 9517   3.577   5.497   7.110 -2.2979 -0.5100 -3.6661
   96SAPS   H4S 9518   3.447   5.499   7.231 -0.5462  1.3562  0.4417
   96SAPS   C25 9519   3.621   5.595   7.289 -0.0619 -0.2497  0.6755
   96SAPS   H5R 9520   3.718   5.632   7.253 -0.7884  1.4451  0.4057
   96SAPS   C26 9521   3.598   5.586   7.420 -0.0253 -0.8931 -0.7075
   96SAPS   H6R 9522   3.671   5.630   7.490 -0.3404  1.2497 -1.6405
   96SAPS   C27 9523   3.466   5.557   7.490  0.9204 -0.5529 -0.2883
   96SAPS   H7R 9524   3.439   5.449   7.484 -0.2079 -0.2053 -2.9060
   96SAPS   H7S 9525   3.382   5.593   7.427  0.2970 -1.1489  0.1869
   96SAPS   C28 9526   3.441   5.620   7.623 -1.0443  0.8022  0.2225
   96SAPS   H8R 9527   3.431   5.730   7.616  2.3419  1.1597 -1.4496
   96SAPS   C29 9528   3.461   5.574   7.744  0.4462 -0.1795 -0.0318
   96SAPS   H9R 9529   3.436   5.636   7.832  0.6162 -0.6633  0.3608
   96SAPS  C210 9530   3.500   5.432   7.770 -0.0249  0.3973  0.4186
   96SAPS  H10R 9531   3.611   5.427   7.777  0.1582 -0.8796 -2.2152
   96SAPS  H10S 9532   3.470   5.361   7.690  3.2844 -2.2174  1.2636
   96SAPS  C211 9533   3.433   5.371   7.888 -0.2456 -0.2200  0.0946
   96SAPS  H11R 9534   3.336   5.322   7.869  1.0315 -2.3925 -1.2523
   96SAPS  C212 9535   3.484   5.363   8.013  0.4676 -0.6760  0.0603
   96SAPS  H12R 9536   3.423   5.319   8.093  0.5361 -0.8064  0.0420
   96SAPS  C213 9537   3.613   5.422   8.070 -0.8478 -0.9210  0.2009
   96SAPS  H13R 9538   3.582   5.523   8.102 -2.9501 -1.2123 -0.7812
   96SAPS  H13S 9539   3.683   5.432   7.985 -0.5729  1.5408  0.6511
   96SAPS  C214 9540   3.682   5.328   8.172  0.0317 -0.1865 -0.5331
   96SAPS  H14R 9541   3.747   5.247   8.137  1.6343  0.9766 -0.3315
   96SAPS  C215 9542   3.692   5.353   8.303 -0.2129 -0.1853 -0.6169
   96SAPS  H15R 9543   3.763   5.292   8.361  0.8054 -1.8833 -3.4080
   96SAPS  C216 9544   3.629   5.477   8.372 -0.1924 -0.1393  0.5518
   96SAPS  H16R 9545   3.533   5.442   8.414 -0.7176 -0.1758 -0.6454
   96SAPS  H16S 9546   3.583   5.553   8.305 -2.8588 -2.4842 -0.4301
   96SAPS  C217 9547   3.721   5.535   8.483 -0.1905  0.3959 -0.1980
   96SAPS  H17R 9548   3.755   5.467   8.565 -1.8531  0.7453  0.8344
   96SAPS  H17S 9549   3.654   5.601   8.541 -1.3608 -0.4457 -0.5590
   96SAPS  C218 9550   3.850   5.615   8.439  1.0997 -0.0774  0.3925
   96SAPS  H18R 9551   3.825   5.706   8.380 -0.9710 -0.7866  0.0800
   96SAPS  H18S 9552   3.919   5.556   8.375  1.2634  0.2421  0.2773
   96SAPS  C219 9553   3.940   5.664   8.546 -0.3295 -0.5444  0.1905
   96SAPS  H19R 9554   3.975   5.576   8.604 -0.6801 -1.4012 -0.8683
   96SAPS  H19S 9555   3.886   5.727   8.620 -1.8505 -2.6983  1.0440
   96SAPS  C220 9556   4.063   5.739   8.488 -0.1437  0.3303  0.0335
   96SAPS  H20R 9557   4.116   5.676   8.414  0.8568  0.5540  0.5475
   96SAPS  H20S 9558   4.126   5.769   8.575 -0.2917  0.7113  0.0128
   96SAPS  H20T 9559   4.035   5.828   8.428 -1.1194  0.6550  0.9336
   96SAPS   C33 9560   3.900   5.374   6.936 -0.1533  0.1548  0.1954
   96SAPS   H3X 9561   3.903   5.305   6.848 -1.1860 -0.1810  0.3995
   96SAPS   H3Y 9562   3.793   5.407   6.937 -1.1535 -2.6632 -1.3916
   96SAPS   C34 9563   3.918   5.302   7.069 -0.0652 -0.2714  0.2332
   96SAPS   H4X 9564   3.837   5.227   7.080  0.5047 -0.7260  1.5673
   96SAPS   H4Y 9565   3.906   5.375   7.152  0.5444 -0.3610  0.4052
   96SAPS   C35 9566   4.055   5.242   7.073  0.0483  0.4832 -0.2013
   96SAPS   H5X 9567   4.121   5.331   7.083  1.5921 -0.5841 -0.6089
   96SAPS   H5Y 9568   4.074   5.187   6.979  0.8611  0.7397 -0.1977
   96SAPS   C36 9569   4.085   5.146   7.180 -0.5530 -0.0987  0.3894
   96SAPS   H6X 9570   4.009   5.066   7.189  0.8702 -1.6560 -0.6873
   96SAPS   H6Y 9571   4.076   5.193   7.280  1.3692  0.2804  0.4308
   96SAPS   C37 9572   4.231   5.086   7.172  0.2457 -0.1929 -0.2308
   96SAPS   H7X 9573   4.302   5.169   7.150  0.3607 -0.5205 -1.1438
   96SAPS   H7Y 9574   4.244   5.015   7.087  0.7899 -1.4776  0.8877
   96SAPS   C38 9575   4.267   5.036   7.308  0.2379  0.5745 -0.4079
   96SAPS   H8X 9576   4.203   4.949   7.336  1.4099  0.1469  1.1527
   96SAPS   H8Y 9577   4.237   5.112   7.383  0.8713 -2.4120  3.1717
   96SAPS   C39 9578   4.418   5.005   7.328 -0.2161 -0.4357  0.0281
   96SAPS   H9X 9579   4.474   5.099   7.311 -1.5892  0.9478  2.5307
   96SAPS   H9Y 9580   4.458   4.946   7.243 -0.1124 -0.7389  0.2829
   96SAPS  C310 9581   4.452   4.935   7.457  0.5134 -0.4058  0.7720
   96SAPS  H10X 9582   4.544   4.874   7.443 -0.4400 -1.3533 -2.1529
   96SAPS  H10Y 9583   4.375   4.864   7.496 -0.1687  0.4868  1.0898
   96SAPS  C311 9584   4.493   5.034   7.570 -0.0433  0.6890  0.5729
   96SAPS  H11X 9585   4.554   5.119   7.532  0.4001  0.0243 -0.2463
   96SAPS  H11Y 9586   4.555   4.969   7.636  0.6665  1.7507  0.9752
   96SAPS  C312 9587   4.372   5.091   7.643 -0.2879 -0.4147 -0.0840
   96SAPS  H12X 9588   4.290   5.016   7.645 -0.8650  0.1110  3.6348
   96SAPS  H12Y 9589   4.327   5.165   7.574 -0.1198  0.4012  0.6545
   96SAPS  C313 9590   4.415   5.143   7.780 -0.6788  0.0249 -0.3246
   96SAPS  H13X 9591   4.508   5.201   7.767 -1.6013  1.9259  1.0832
   96SAPS  H13Y 9592   4.451   5.059   7.844  0.4594  0.8922  0.2086
   96SAPS  C314 9593   4.313   5.224   7.851 -0.4376  0.0057  0.4369
   96SAPS  H14X 9594   4.242   5.262   7.774  0.5445  1.7178  0.3223
   96SAPS  H14Y 9595   4.357   5.314   7.899  1.3654  0.0591 -1.2132
   96SAPS  C315 9596   4.236   5.149   7.965 -0.8162  0.0877  0.3591
   96SAPS  H15X 9597   4.193   5.055   7.924  3.7901 -2.5655  0.8443
   96SAPS  H15Y 9598   4.148   5.210   7.997 -1.0958  0.5274 -1.1814
   96SAPS  C316 9599   4.326   5.118   8.092 -0.7865 -0.8624 -0.3240
   96SAPS  H16X 9600   4.372   5.216   8.120 -1.2963 -1.1140  1.5388
   96SAPS  H16Y 9601   4.405   5.051   8.052  0.3120 -0.3063  0.8243
   96SAPS  C317 9602   4.260   5.064   8.215 -0.3109  0.4864 -0.4865
   96SAPS  H17X 9603   4.194   5.131   8.274  1.7780  1.2828  1.0413
   96SAPS  H17Y 9604   4.337   5.020   8.281 -0.4758  0.8668 -0.0345
   96SAPS  C318 9605   4.183   4.938   8.172  0.3950  0.2381 -0.3171
   96SAPS  H18X 9606   4.105   4.963   8.097  1.9924  0.4644 -1.9612
   96SAPS  H18Y 9607   4.130   4.889   8.257  0.1419  0.2497 -0.4660
   96SAPS  H18Z 9608   4.231   4.848   8.127 -1.0824 -1.3171  1.0251
   97SAPS     N 9609   4.685   2.483   6.297 -0.1050 -0.1076  0.2148
   97SAPS   HN1 9610   4.690   2.486   6.193  0.1852  1.7568  0.2572
   97SAPS   HN2 9611   4.769   2.437   6.337  0.7774 -0.5178 -1.9800
   97SAPS   HN3 9612   4.598   2.428   6.315 -0.3723  0.3522  0.3316
   97SAPS   C12 9613   4.670   2.619   6.340 -0.3882  0.3109 -0.2120
   97SAPS  H12A 9614   4.761   2.653   6.387 -0.5207  0.8763 -0.3696
   97SAPS   C13 9615   4.642   2.715   6.227 -1.0310  0.6206  0.4402
   97SAPS  O13A 9616   4.642   2.671   6.107 -0.1809 -0.1787  0.0948
   97SAPS  O13B 9617   4.618   2.836   6.253 -0.0819 -0.5074  0.5824
   97SAPS   C11 9618   4.547   2.620   6.435 -0.4132 -0.0534 -0.3365
   97SAPS  H11A 9619   4.536   2.724   6.471  0.4934  0.1242 -0.5575
   97SAPS  H11B 9620   4.555   2.560   6.528  1.0230 -2.1616 -1.7390
   97SAPS     P 9621   4.343   2.458   6.376 -0.3019  0.0807 -0.3516
   97SAPS   O13 9622   4.221   2.480   6.297 -0.1333 -0.2781  0.1342
   97SAPS   O14 9623   4.432   2.348   6.333 -0.2510 -0.1213  0.6862
   97SAPS   O12 9624   4.420   2.589   6.371  0.4461  0.2273 -0.5435
   97SAPS   O11 9625   4.303   2.445   6.529  0.3561 -0.2099  0.3092
   97SAPS    C1 9626   4.266   2.558   6.606 -0.2796  0.7575 -0.2886
   97SAPS    HA 9627   4.343   2.602   6.673 -0.0800 -2.1597  1.5797
   97SAPS    HB 9628   4.216   2.635   6.543  1.3062  1.8591 -0.2530
   97SAPS    C2 9629   4.157   2.508   6.703 -0.8078 -0.4209 -0.6745
   97SAPS    HS 9630   4.135   2.592   6.772  0.3022 -0.6766  0.0205
   97SAPS   O21 9631   4.213   2.392   6.775 -0.5684  0.1524  0.3929
   97SAPS   C21 9632   4.264   2.420   6.897 -0.7495  0.1953 -0.1538
   97SAPS   O22 9633   4.293   2.528   6.943 -0.3996 -0.7852  0.4175
   97SAPS   C22 9634   4.296   2.280   6.967  0.0584  0.1227  0.2685
   97SAPS   H2R 9635   4.251   2.193   6.914  1.1880  0.7216 -1.8090
   97SAPS   H2S 9636   4.406   2.269   6.961 -0.1296 -2.3122  0.1853
   97SAPS    C3 9637   4.034   2.464   6.628  1.1349  0.7793 -0.3983
   97SAPS    HX 9638   4.055   2.405   6.536  0.6020 -0.3089  0.1620
   97SAPS    HY 9639   3.977   2.557   6.603  2.8918  2.3728  1.1943
   97SAPS   O31 9640   3.948   2.391   6.714  0.1102  0.4383 -0.1739
   97SAPS   C31 9641   3.939   2.254   6.704 -0.3328  0.2389 -0.1832
   97SAPS   O32 9642   4.002   2.186   6.627  0.0011  0.6227 -0.1337
   97SAPS   C32 9643   3.847   2.203   6.819 -0.1016  0.0245  0.2860
   97SAPS   H2X 9644   3.745   2.228   6.781  0.8738  2.1614 -1.1312
   97SAPS   H2Y 9645   3.876   2.253   6.914  0.7100  1.1401 -0.5180
   97SAPS   C23 9646   4.248   2.263   7.117  0.2755  0.1033 -0.4991
   97SAPS   H3R 9647   4.273   2.343   7.191 -1.7494  2.5141 -2.2531
   97SAPS   H3S 9648   4.305   2.178   7.159 -0.1145  1.4173  3.0098
   97SAPS   C24 9649   4.099   2.220   7.129 -0.4946 -0.0288  0.3104
   97SAPS   H4R 9650   4.071   2.172   7.033  1.2411  1.3463 -0.9530
   97SAPS   H4S 9651   4.052   2.320   7.116 -0.1386  0.1244  0.2144
   97SAPS   C25 9652   4.058   2.141   7.253  0.2979 -0.6660 -0.0184
   97SAPS   H5R 9653   4.055   2.031   7.246  1.2146 -0.9109  2.4578
   97SAPS   C26 9654   4.027   2.191   7.377 -0.0327  0.0397  0.1597
   97SAPS   H6R 9655   3.991   2.121   7.453  0.2276 -0.6472 -0.3403
   97SAPS   C27 9656   4.024   2.333   7.426 -0.0521  0.3589 -0.1301
   97SAPS   H7R 9657   3.938   2.370   7.485  0.9831 -2.0068  3.1613
   97SAPS   H7S 9658   4.037   2.394   7.334 -1.8448 -0.2788 -0.8536
   97SAPS   C28 9659   4.150   2.353   7.506 -0.5251  0.3669 -0.0296
   97SAPS   H8R 9660   4.237   2.364   7.440 -0.2080  0.6238  0.4262
   97SAPS   C29 9661   4.162   2.365   7.645 -1.0329  0.0662  0.9965
   97SAPS   H9R 9662   4.260   2.376   7.694 -0.0236  0.5251 -1.0039
   97SAPS  C210 9663   4.054   2.349   7.749 -0.5247  0.4070  0.6073
   97SAPS  H10R 9664   3.954   2.328   7.705  0.2481 -1.2826 -0.4415
   97SAPS  H10S 9665   4.031   2.442   7.805 -1.2921  1.2439 -1.0020
   97SAPS  C211 9666   4.083   2.238   7.844 -0.5071 -0.2057 -0.0321
   97SAPS  H11R 9667   4.161   2.265   7.917  1.2371  2.4148 -2.6544
   97SAPS  C212 9668   4.037   2.110   7.853  0.1395  1.1243 -0.5176
   97SAPS  H12R 9669   4.067   2.043   7.935 -1.1321 -0.5868 -1.4005
   97SAPS  C213 9670   3.936   2.048   7.759 -0.9998 -0.3306  0.2375
   97SAPS  H13R 9671   4.001   1.979   7.701  2.4819 -0.5983  4.0344
   97SAPS  H13S 9672   3.897   2.127   7.691 -2.3090 -1.5686 -0.5170
   97SAPS  C214 9673   3.821   1.968   7.815 -0.0101  0.4386  0.1287
   97SAPS  H14R 9674   3.853   1.880   7.872 -0.1849  1.0912  1.2647
   97SAPS  C215 9675   3.691   1.987   7.801 -0.1101  0.4684 -0.3661
   97SAPS  H15R 9676   3.620   1.912   7.838  0.1864  0.2531 -0.2240
   97SAPS  C216 9677   3.616   2.099   7.727 -0.8983  1.0761 -0.5340
   97SAPS  H16R 9678   3.661   2.198   7.748 -0.1159  0.5219  0.4929
   97SAPS  H16S 9679   3.508   2.107   7.751 -1.1775 -1.5334 -0.5998
   97SAPS  C217 9680   3.615   2.065   7.580 -0.0556 -0.1740  0.8124
   97SAPS  H17R 9681   3.576   1.963   7.560  0.1003 -0.1188  0.1889
   97SAPS  H17S 9682   3.720   2.050   7.547  0.7804 -1.1966  3.7141
   97SAPS  C218 9683   3.545   2.172   7.489  0.1539 -0.8411 -0.1205
   97SAPS  H18R 9684   3.587   2.268   7.528 -0.0111 -0.9379  0.3045
   97SAPS  H18S 9685   3.435   2.167   7.499 -0.2594  2.1487 -1.9491
   97SAPS  C219 9686   3.579   2.155   7.338 -0.2012  0.4573 -0.1982
   97SAPS  H19R 9687   3.600   2.045   7.336 -1.8578  0.0477  1.7476
   97SAPS  H19S 9688   3.672   2.213   7.320  0.4639  0.1125  1.8310
   97SAPS  C220 9689   3.461   2.201   7.248  0.4676 -0.6342  0.1292
   97SAPS  H20R 9690   3.482   2.210   7.140 -0.4924  1.1857  0.0526
   97SAPS  H20S 9691   3.440   2.306   7.279  1.4598 -0.4893  0.3576
   97SAPS  H20T 9692   3.368   2.147   7.274 -0.3112  0.6301  0.0592
   97SAPS   C33 9693   3.859   2.047   6.838  0.2883 -0.3149  0.2752
   97SAPS   H3X 9694   3.966   2.019   6.850  0.4321  0.8571  2.2648
   97SAPS   H3Y 9695   3.816   2.012   6.742 -0.4694  0.1727  0.4277
   97SAPS   C34 9696   3.786   1.998   6.963 -0.1782 -0.3974 -0.6819
   97SAPS   H4X 9697   3.689   2.038   6.928  0.0026  0.4524 -0.2306
   97SAPS   H4Y 9698   3.800   2.045   7.063 -0.1735 -0.5888 -0.5908
   97SAPS   C35 9699   3.776   1.842   6.964  0.8649  0.0796  0.0979
   97SAPS   H5X 9700   3.876   1.798   6.983  1.2939 -0.6655 -3.1429
   97SAPS   H5Y 9701   3.752   1.817   6.858 -0.8193  2.0122 -0.0495
   97SAPS   C36 9702   3.671   1.784   7.058 -0.4611 -0.2936  0.0809
   97SAPS   H6X 9703   3.652   1.678   7.031 -0.9002 -0.3207  0.4845
   97SAPS   H6Y 9704   3.576   1.840   7.046 -1.9405 -2.6708  0.0782
   97SAPS   C37 9705   3.716   1.782   7.208  0.5158 -0.1737 -0.1089
   97SAPS   H7X 9706   3.741   1.887   7.233  2.6033 -1.0249  1.7293
   97SAPS   H7Y 9707   3.817   1.736   7.200  0.1868 -0.7502 -1.1975
   97SAPS   C38 9708   3.612   1.717   7.308 -0.2786 -0.1843  0.0707
   97SAPS   H8X 9709   3.583   1.614   7.279  0.9944 -0.5074 -0.0953
   97SAPS   H8Y 9710   3.521   1.781   7.301  0.4362  1.0386  1.3612
   97SAPS   C39 9711   3.668   1.707   7.453 -0.0759  0.1896  0.3938
   97SAPS   H9X 9712   3.698   1.803   7.500 -0.2847  0.4989 -0.0938
   97SAPS   H9Y 9713   3.761   1.647   7.445 -0.1896  0.2343 -1.9733
   97SAPS  C310 9714   3.577   1.623   7.550  0.1023  0.5761  0.5211
   97SAPS  H10X 9715   3.555   1.523   7.507 -0.2789  0.3162  1.3036
   97SAPS  H10Y 9716   3.482   1.680   7.562 -0.4245 -0.1061 -0.3551
   97SAPS  C311 9717   3.653   1.600   7.681 -0.2920 -0.3797  0.1040
   97SAPS  H11X 9718   3.671   1.699   7.730 -2.5153  0.1371 -0.0126
   97SAPS  H11Y 9719   3.752   1.552   7.667 -1.3403 -2.9795  0.9319
   97SAPS  C312 9720   3.553   1.520   7.765  0.6821 -0.0199 -0.1942
   97SAPS  H12X 9721   3.552   1.413   7.734  0.2786 -0.2901  0.6984
   97SAPS  H12Y 9722   3.449   1.558   7.750  0.5601 -0.0007  0.6625
   97SAPS  C313 9723   3.583   1.523   7.918 -0.0359 -0.0184 -0.1679
   97SAPS  H13X 9724   3.503   1.463   7.966 -1.1971  1.1518 -0.5712
   97SAPS  H13Y 9725   3.565   1.628   7.950  3.4476  1.6715 -3.0546
   97SAPS  C314 9726   3.734   1.485   7.947  0.2492  0.4270 -0.3548
   97SAPS  H14X 9727   3.815   1.561   7.960  1.0950 -0.6301  0.9017
   97SAPS  H14Y 9728   3.770   1.408   7.876  1.1058  0.4616  0.0275
   97SAPS  C315 9729   3.741   1.431   8.093 -0.1998  0.4086 -0.0467
   97SAPS  H15X 9730   3.828   1.362   8.097  0.4572  1.2118 -0.0642
   97SAPS  H15Y 9731   3.657   1.361   8.114  0.3307  0.5090  2.8799
   97SAPS  C316 9732   3.747   1.538   8.199 -0.0813 -0.2948 -0.1864
   97SAPS  H16X 9733   3.732   1.504   8.304  0.9243  0.8575  0.3451
   97SAPS  H16Y 9734   3.663   1.607   8.177 -0.2072 -1.2367 -3.0749
   97SAPS  C317 9735   3.882   1.614   8.211  0.6205  0.0353  0.5022
   97SAPS  H17X 9736   3.891   1.658   8.109 -1.7387 -0.1454  0.1397
   97SAPS  H17Y 9737   3.962   1.538   8.220 -0.4168 -1.3302 -1.1043
   97SAPS  C318 9738   3.889   1.713   8.322 -0.0661 -0.0422  0.3045
   97SAPS  H18X 9739   3.992   1.754   8.327 -1.1929  2.8691  1.6590
   97SAPS  H18Y 9740   3.849   1.672   8.417  0.8503 -0.4889  0.5047
   97SAPS  H18Z 9741   3.819   1.795   8.297  1.2169  0.8626 -0.4666
   98SAPS     N 9742   1.270   2.730   5.814 -0.3061 -0.3628  0.3827
   98SAPS   HN1 9743   1.203   2.696   5.742 -0.8525 -1.7264  1.4932
   98SAPS   HN2 9744   1.232   2.819   5.852 -2.0598 -1.9660  2.6807
   98SAPS   HN3 9745   1.360   2.716   5.763  0.3341 -3.1702  2.0351
   98SAPS   C12 9746   1.273   2.632   5.920  0.1414  0.3088  0.7878
   98SAPS  H12A 9747   1.185   2.653   5.980  0.0008 -1.8196  1.4124
   98SAPS   C13 9748   1.245   2.487   5.870 -0.5665  0.1022  0.5191
   98SAPS  O13A 9749   1.209   2.462   5.756 -0.6395  0.4733  0.3266
   98SAPS  O13B 9750   1.243   2.395   5.957 -0.2730  0.0353  0.1159
   98SAPS   C11 9751   1.396   2.646   6.016 -0.8090 -0.3657 -0.4593
   98SAPS  H11A 9752   1.372   2.584   6.105  1.0096  0.0832  0.3751
   98SAPS  H11B 9753   1.389   2.752   6.048  0.6591 -0.7337  1.1756
   98SAPS     P 9754   1.612   2.741   5.916  0.1868 -0.1045  0.0141
   98SAPS   O13 9755   1.743   2.688   5.883  0.1244 -0.3376  0.0251
   98SAPS   O14 9756   1.551   2.837   5.819  0.1862 -0.1212  0.2821
   98SAPS   O12 9757   1.520   2.623   5.946  0.2152  0.3211 -0.4283
   98SAPS   O11 9758   1.623   2.821   6.057 -0.0397  0.4381 -0.2676
   98SAPS    C1 9759   1.729   2.794   6.145 -1.2344 -0.1029 -0.2223
   98SAPS    HA 9760   1.818   2.746   6.100 -0.8449 -0.5197  0.9408
   98SAPS    HB 9761   1.765   2.891   6.186 -1.9968 -0.1225  0.5394
   98SAPS    C2 9762   1.691   2.701   6.263  0.3381 -0.7602 -0.4689
   98SAPS    HS 9763   1.648   2.607   6.223  1.5394 -1.2010 -0.7482
   98SAPS   O21 9764   1.584   2.767   6.339  0.1049  0.2215  0.2275
   98SAPS   C21 9765   1.517   2.682   6.416 -0.2628 -0.1699  0.0254
   98SAPS   O22 9766   1.504   2.562   6.388  0.1361 -0.1846  0.3500
   98SAPS   C22 9767   1.447   2.749   6.535 -0.5219  0.4572 -0.1050
   98SAPS   H2R 9768   1.523   2.821   6.572  0.7608 -1.5414  1.3591
   98SAPS   H2S 9769   1.377   2.823   6.490  1.4719  1.7476 -1.3156
   98SAPS    C3 9770   1.805   2.670   6.357  0.2555  0.5081 -0.3280
   98SAPS    HX 9771   1.816   2.762   6.418 -0.0649  0.7471 -0.6305
   98SAPS    HY 9772   1.890   2.655   6.288  0.8382 -2.7994  0.9332
   98SAPS   O31 9773   1.787   2.542   6.432  0.2834  0.1861 -0.0853
   98SAPS   C31 9774   1.835   2.542   6.551  0.3676  0.2808 -1.0273
   98SAPS   O32 9775   1.874   2.639   6.618  0.6621 -0.7057 -0.0953
   98SAPS   C32 9776   1.803   2.401   6.617 -1.1127 -0.0796  0.0553
   98SAPS   H2X 9777   1.877   2.333   6.571 -0.9181  0.0287  0.2041
   98SAPS   H2Y 9778   1.700   2.370   6.592 -0.2430 -2.7647 -0.4368
   98SAPS   C23 9779   1.380   2.661   6.637 -0.4391  0.2298 -0.3594
   98SAPS   H3R 9780   1.292   2.615   6.588 -0.0913 -1.6909  0.7019
   98SAPS   H3S 9781   1.342   2.736   6.709  0.8125 -0.9685  1.6356
   98SAPS   C24 9782   1.483   2.569   6.704  0.0307  0.2752  0.0432
   98SAPS   H4R 9783   1.587   2.596   6.679  0.5867 -0.5407  1.3539
   98SAPS   H4S 9784   1.479   2.474   6.647  3.5007  1.2536 -2.1247
   98SAPS   C25 9785   1.475   2.567   6.854  0.1754  0.0000 -0.5695
   98SAPS   H5R 9786   1.534   2.652   6.894 -0.2499 -0.3521  0.8710
   98SAPS   C26 9787   1.404   2.482   6.936 -1.3119 -0.2353  0.0265
   98SAPS   H6R 9788   1.425   2.490   7.043 -1.9511  1.2398  0.0710
   98SAPS   C27 9789   1.318   2.369   6.895 -0.3232  0.1624 -0.1085
   98SAPS   H7R 9790   1.354   2.283   6.955 -2.1889  0.9000  2.1737
   98SAPS   H7S 9791   1.335   2.341   6.788 -2.2568  2.2729 -1.0610
   98SAPS   C28 9792   1.171   2.400   6.899 -0.1327  0.7522  0.1249
   98SAPS   H8R 9793   1.121   2.435   6.808 -0.3833  2.3923  0.8405
   98SAPS   C29 9794   1.091   2.420   7.008 -0.0898  0.4346 -0.0012
   98SAPS   H9R 9795   0.984   2.430   6.985  0.3411  2.2348 -1.4532
   98SAPS  C210 9796   1.135   2.400   7.155  0.3871  0.0758 -1.1200
   98SAPS  H10R 9797   1.240   2.434   7.165  1.6926 -3.3968 -1.7801
   98SAPS  H10S 9798   1.129   2.292   7.178  0.6613  0.3945  0.5438
   98SAPS  C211 9799   1.052   2.464   7.267 -0.0719  0.7070 -0.3589
   98SAPS  H11R 9800   0.943   2.461   7.250 -0.2170  1.9633  0.2574
   98SAPS  C212 9801   1.098   2.511   7.383 -0.2633 -0.4733 -0.3036
   98SAPS  H12R 9802   1.035   2.541   7.468 -1.8931 -3.3075 -0.3927
   98SAPS  C213 9803   1.244   2.519   7.422 -0.1739 -0.8646  0.3396
   98SAPS  H13R 9804   1.249   2.616   7.475  0.6600 -1.1916  0.8888
   98SAPS  H13S 9805   1.315   2.544   7.340  0.5028  2.8577  1.8664
   98SAPS  C214 9806   1.293   2.395   7.486 -0.3438 -0.0763 -0.1832
   98SAPS  H14R 9807   1.326   2.320   7.413 -0.5012 -0.9987  0.6684
   98SAPS  C215 9808   1.313   2.376   7.618  0.3873 -0.0583 -0.2398
   98SAPS  H15R 9809   1.364   2.283   7.650 -0.1635 -0.0940  0.5569
   98SAPS  C216 9810   1.289   2.482   7.723  0.2884  0.0723 -0.3986
   98SAPS  H16R 9811   1.233   2.570   7.686  0.3938  0.1342 -0.4112
   98SAPS  H16S 9812   1.388   2.525   7.752  0.4921 -0.2514 -0.6070
   98SAPS  C217 9813   1.210   2.425   7.839  0.0510 -0.8523 -0.2494
   98SAPS  H17R 9814   1.243   2.321   7.857 -1.2496 -1.1070  0.9027
   98SAPS  H17S 9815   1.106   2.412   7.802  1.0077  1.7243 -4.5334
   98SAPS  C218 9816   1.215   2.514   7.968  0.8220 -0.3403  0.1197
   98SAPS  H18R 9817   1.171   2.613   7.946  1.5143  0.0338  0.3744
   98SAPS  H18S 9818   1.324   2.530   7.983  0.7913 -1.3190  1.5965
   98SAPS  C219 9819   1.147   2.457   8.094 -0.0087 -0.0392 -0.6822
   98SAPS  H19R 9820   1.039   2.483   8.088 -0.8114 -2.3526  1.8265
   98SAPS  H19S 9821   1.183   2.501   8.189 -0.5137 -1.9549  0.4422
   98SAPS  C220 9822   1.165   2.309   8.110  0.7682 -0.2517  0.0884
   98SAPS  H20R 9823   1.122   2.256   8.022 -0.6394 -0.5866  0.9302
   98SAPS  H20S 9824   1.111   2.261   8.195  0.6089  1.7080  1.1573
   98SAPS  H20T 9825   1.270   2.273   8.110  0.2129 -1.9611  0.9034
   98SAPS   C33 9826   1.812   2.412   6.770  0.0894 -0.1939  0.0844
   98SAPS   H3X 9827   1.747   2.495   6.805  0.5010  0.4004 -0.5314
   98SAPS   H3Y 9828   1.916   2.444   6.789  1.1817  0.0090 -4.8933
   98SAPS   C34 9829   1.773   2.275   6.836 -1.3223  0.0435  0.1906
   98SAPS   H4X 9830   1.846   2.196   6.812 -0.9817 -0.1475  1.7153
   98SAPS   H4Y 9831   1.667   2.244   6.820 -1.3185  0.9512 -1.9219
   98SAPS   C35 9832   1.768   2.306   6.982  0.4392 -0.2132 -0.3422
   98SAPS   H5X 9833   1.723   2.405   7.006  1.1175 -0.1225  0.6118
   98SAPS   H5Y 9834   1.873   2.325   7.011 -0.3490  2.2388  1.2493
   98SAPS   C36 9835   1.710   2.196   7.064 -0.1953  0.0443  0.5827
   98SAPS   H6X 9836   1.761   2.103   7.034  2.1008  0.7607  2.0065
   98SAPS   H6Y 9837   1.600   2.181   7.054 -0.6042  0.7387  3.1499
   98SAPS   C37 9838   1.734   2.223   7.216 -0.9782 -0.2826 -0.7756
   98SAPS   H7X 9839   1.843   2.239   7.229 -1.3150 -0.2044  3.4870
   98SAPS   H7Y 9840   1.710   2.140   7.286  1.8206  1.4047  2.5158
   98SAPS   C38 9841   1.647   2.341   7.269 -0.2154 -0.5025  0.7019
   98SAPS   H8X 9842   1.552   2.337   7.212  1.1968 -0.2761 -1.7861
   98SAPS   H8Y 9843   1.688   2.437   7.232 -0.8510 -0.3388  0.4212
   98SAPS   C39 9844   1.630   2.340   7.425 -0.4536 -0.3418  0.0877
   98SAPS   H9X 9845   1.607   2.236   7.458  0.2713 -0.5575 -0.0594
   98SAPS   H9Y 9846   1.552   2.412   7.459 -0.6190 -0.3527 -0.2685
   98SAPS  C310 9847   1.759   2.370   7.498  0.5038 -0.3990 -0.1104
   98SAPS  H10X 9848   1.804   2.468   7.468 -1.0605 -0.0112 -1.3170
   98SAPS  H10Y 9849   1.828   2.285   7.479  0.9528 -0.1839  0.5067
   98SAPS  C311 9850   1.733   2.384   7.657  0.2330  0.6726  0.0493
   98SAPS  H11X 9851   1.662   2.467   7.674  0.7329  0.9213  1.0511
   98SAPS  H11Y 9852   1.834   2.405   7.699  0.0587 -0.2826  1.0059
   98SAPS  C312 9853   1.680   2.255   7.715  0.2586 -0.2469 -0.1442
   98SAPS  H12X 9854   1.741   2.174   7.670  0.2708  0.2834 -1.1104
   98SAPS  H12Y 9855   1.577   2.224   7.687  0.7037 -2.3618  0.3863
   98SAPS  C313 9856   1.690   2.258   7.864 -0.1228  0.7864 -0.7374
   98SAPS  H13X 9857   1.627   2.343   7.900  0.5766  1.4748 -1.0995
   98SAPS  H13Y 9858   1.795   2.288   7.880 -0.1920  0.4213  0.4890
   98SAPS  C314 9859   1.647   2.116   7.922  0.2252 -0.1596  0.4824
   98SAPS  H14X 9860   1.698   2.041   7.858 -0.4865 -1.2474  1.1671
   98SAPS  H14Y 9861   1.539   2.100   7.904  0.1184  0.8593  0.1574
   98SAPS  C315 9862   1.662   2.113   8.072  0.2773 -0.2844 -0.4762
   98SAPS  H15X 9863   1.609   2.024   8.114 -1.4637  0.7172 -0.4462
   98SAPS  H15Y 9864   1.610   2.195   8.126  1.6843 -1.5979  3.2355
   98SAPS  C316 9865   1.812   2.109   8.109  0.0218 -0.6983 -0.5342
   98SAPS  H16X 9866   1.839   2.216   8.097 -3.9255  0.4760 -0.4866
   98SAPS  H16Y 9867   1.855   2.051   8.025 -0.2519 -0.5470 -0.7787
   98SAPS  C317 9868   1.842   2.047   8.247  0.1803 -0.1898  0.3979
   98SAPS  H17X 9869   1.950   2.049   8.275  0.2229 -0.0428  0.2284
   98SAPS  H17Y 9870   1.820   1.939   8.232  1.4124 -0.6905  1.8824
   98SAPS  C318 9871   1.749   2.097   8.363 -0.3751 -0.2459 -0.2028
   98SAPS  H18X 9872   1.741   2.207   8.364  0.2872 -0.1698 -1.2747
   98SAPS  H18Y 9873   1.789   2.069   8.462  1.8094  0.4564 -0.8430
   98SAPS  H18Z 9874   1.648   2.051   8.349 -0.3091 -0.4097 -0.1442
   99SAPS     N 9875   0.286   0.766   6.054 -0.2643  0.5871  0.1513
   99SAPS   HN1 9876   0.387   0.746   6.067 -0.0460  0.7031 -1.1838
   99SAPS   HN2 9877   0.239   0.838   6.113 -1.1232 -0.5808  0.9266
   99SAPS   HN3 9878   0.237   0.677   6.074 -1.2277  1.0292 -0.1746
   99SAPS   C12 9879   0.269   0.792   5.902  0.3704  0.6271  0.1688
   99SAPS  H12A 9880   0.350   0.852   5.863  0.0311 -0.2005 -1.9567
   99SAPS   C13 9881   0.243   0.677   5.800 -0.4192  0.5337  0.2225
   99SAPS  O13A 9882   0.238   0.564   5.840  0.4618 -0.7413 -0.0273
   99SAPS  O13B 9883   0.237   0.707   5.678  0.0612  0.2837 -0.0954
   99SAPS   C11 9884   0.133   0.878   5.889 -0.2006 -0.4663 -0.2150
   99SAPS  H11A 9885   0.056   0.818   5.941  0.8501 -4.0526 -2.4219
   99SAPS  H11B 9886   0.104   0.880   5.782 -0.1238 -2.1825 -0.2935
   99SAPS     P 9887   0.160   1.060   6.091 -0.3014  0.2475  0.1023
   99SAPS   O13 9888   0.302   1.071   6.139 -0.5142 -0.2926 -0.4539
   99SAPS   O14 9889   0.074   1.175   6.113  0.3731 -0.5115 -0.0550
   99SAPS   O12 9890   0.152   1.014   5.940 -0.0600  0.1996  0.4558
   99SAPS   O11 9891   0.104   0.939   6.171 -0.6656 -0.0485 -0.0025
   99SAPS    C1 9892  -0.024   0.914   6.227 -0.1723  0.5449  0.5479
   99SAPS    HA 9893  -0.092   0.989   6.181 -1.5372  0.1500  1.8413
   99SAPS    HB 9894  -0.045   0.815   6.182  1.2838  0.6468 -0.4305
   99SAPS    C2 9895  -0.017   0.900   6.380 -0.7646 -0.0135  0.6366
   99SAPS    HS 9896  -0.122   0.896   6.417 -0.4469  1.7129  1.8404
   99SAPS   O21 9897   0.051   1.009   6.442 -0.2273 -0.0356  0.3154
   99SAPS   C21 9898  -0.030   1.110   6.447  0.7229 -0.3439  0.0439
   99SAPS   O22 9899  -0.148   1.109   6.419  0.1284  0.3019  0.4313
   99SAPS   C22 9900   0.054   1.234   6.495  0.6049  0.0001  0.5433
   99SAPS   H2R 9901   0.158   1.208   6.464  0.3798 -0.5578  0.2438
   99SAPS   H2S 9902   0.025   1.318   6.429  0.4656 -0.0332  0.5636
   99SAPS    C3 9903   0.056   0.768   6.411 -0.0360  0.1765 -0.0619
   99SAPS    HX 9904   0.154   0.756   6.360 -1.2997  0.7381 -2.7802
   99SAPS    HY 9905   0.003   0.680   6.368  0.0126 -1.2851  2.6034
   99SAPS   O31 9906   0.081   0.757   6.554  0.0850  0.1099  0.2857
   99SAPS   C31 9907  -0.031   0.716   6.618  0.2428 -0.1717  0.0012
   99SAPS   O32 9908  -0.137   0.692   6.564  0.2002 -0.0217 -0.2903
   99SAPS   C32 9909   0.009   0.702   6.767  0.0950  0.4989  0.3585
   99SAPS   H2X 9910   0.049   0.799   6.803  3.0186 -1.0276  1.5367
   99SAPS   H2Y 9911   0.091   0.627   6.768 -1.0851 -0.8527  2.3172
   99SAPS   C23 9912   0.046   1.256   6.643  0.5451 -1.0420 -0.0684
   99SAPS   H3R 9913  -0.062   1.264   6.668  0.2882 -1.7646 -0.8773
   99SAPS   H3S 9914   0.100   1.350   6.667 -2.2142  0.6538 -0.0814
   99SAPS   C24 9915   0.127   1.145   6.725  0.2218  0.8415  0.3350
   99SAPS   H4R 9916   0.227   1.142   6.676 -1.6538 -1.2709 -3.8702
   99SAPS   H4S 9917   0.101   1.038   6.716 -0.6512  0.9836  1.0368
   99SAPS   C25 9918   0.157   1.184   6.873 -0.7439 -0.0750  0.6370
   99SAPS   H5R 9919   0.237   1.260   6.877 -1.8810  1.1304  0.9973
   99SAPS   C26 9920   0.089   1.133   6.980 -0.6208 -1.0306  0.0449
   99SAPS   H6R 9921   0.133   1.156   7.079  2.9297 -0.1094 -1.5792
   99SAPS   C27 9922  -0.026   1.032   6.984 -0.4460 -0.0641 -0.6207
   99SAPS   H7R 9923   0.005   0.945   7.046  1.8220 -0.1204 -1.7404
   99SAPS   H7S 9924  -0.055   0.986   6.887 -0.9625  2.2865 -1.6524
   99SAPS   C28 9925  -0.148   1.100   7.049  0.0836  0.0825 -0.5749
   99SAPS   H8R 9926  -0.188   1.183   6.988 -0.7515  1.5474  1.8451
   99SAPS   C29 9927  -0.203   1.074   7.172 -0.2229 -0.1474  0.5483
   99SAPS   H9R 9928  -0.286   1.136   7.210  0.1169  1.1736 -0.7778
   99SAPS  C210 9929  -0.157   0.971   7.270 -0.4083 -0.6330  0.1959
   99SAPS  H10R 9930  -0.128   0.884   7.207  0.0561 -0.9410  0.8282
   99SAPS  H10S 9931  -0.243   0.929   7.328 -2.0618  1.7502 -0.3767
   99SAPS  C211 9932  -0.033   1.005   7.352 -0.6717  0.0517  0.2765
   99SAPS  H11R 9933   0.065   1.021   7.304 -1.4872 -3.0663 -2.8203
   99SAPS  C212 9934  -0.038   1.021   7.485  0.1170  0.5280  0.2131
   99SAPS  H12R 9935   0.058   1.023   7.539  1.1911  0.5256 -1.6000
   99SAPS  C213 9936  -0.167   1.020   7.567 -0.2877 -0.5471 -0.0638
   99SAPS  H13R 9937  -0.148   1.014   7.677 -1.2300 -2.6453  0.0380
   99SAPS  H13S 9938  -0.213   0.920   7.550  1.0739 -1.1169 -0.5338
   99SAPS  C214 9939  -0.268   1.130   7.535 -0.0025 -0.7277 -0.2849
   99SAPS  H14R 9940  -0.220   1.221   7.498  2.0056 -2.4921 -2.2585
   99SAPS  C215 9941  -0.400   1.115   7.547  0.2237 -0.5577 -0.0611
   99SAPS  H15R 9942  -0.468   1.200   7.531  0.4452 -0.3911 -0.1351
   99SAPS  C216 9943  -0.476   0.988   7.589  0.5343 -0.2137 -0.2506
   99SAPS  H16R 9944  -0.420   0.935   7.669 -0.2441  0.2487  0.6333
   99SAPS  H16S 9945  -0.483   0.917   7.504 -2.0146 -0.2565 -0.0782
   99SAPS  C217 9946  -0.614   1.028   7.644 -0.3342  0.7058 -0.2804
   99SAPS  H17R 9947  -0.671   1.094   7.576 -0.9002  1.3248  0.7703
   99SAPS  H17S 9948  -0.588   1.082   7.737 -1.6400  0.5030  0.2211
   99SAPS  C218 9949  -0.704   0.908   7.668  0.0782  0.3702 -0.6323
   99SAPS  H18R 9950  -0.773   0.924   7.754 -1.6311 -2.4337 -1.3565
   99SAPS  H18S 9951  -0.640   0.826   7.706 -0.4537  0.3123  0.1624
   99SAPS  C219 9952  -0.790   0.869   7.546 -0.1610  0.4762 -0.5038
   99SAPS  H19R 9953  -0.727   0.857   7.455  0.0616  0.1025 -0.3075
   99SAPS  H19S 9954  -0.870   0.943   7.528  0.1471  1.2279  1.0529
   99SAPS  C220 9955  -0.850   0.730   7.573 -0.4963 -0.1937  0.0963
   99SAPS  H20R 9956  -0.933   0.733   7.647 -0.7090 -0.3242 -0.1379
   99SAPS  H20S 9957  -0.771   0.661   7.609  1.7924  1.4204 -1.4766
   99SAPS  H20T 9958  -0.878   0.689   7.474 -0.1849 -1.5644  0.5627
   99SAPS   C33 9959  -0.109   0.665   6.863 -0.3501  0.0676 -0.3640
   99SAPS   H3X 9960  -0.180   0.595   6.814 -1.5371  1.1400 -0.2351
   99SAPS   H3Y 9961  -0.163   0.760   6.887 -0.4450 -0.4300  1.6010
   99SAPS   C34 9962  -0.049   0.591   6.986  0.1561 -0.3914  0.0806
   99SAPS   H4X 9963   0.028   0.654   7.035 -1.1828  1.3203  0.0464
   99SAPS   H4Y 9964   0.007   0.503   6.946 -0.2181 -1.0458  0.9681
   99SAPS   C35 9965  -0.152   0.553   7.093  0.6011 -0.0311 -0.0783
   99SAPS   H5X 9966  -0.228   0.482   7.054  3.6321 -2.5769 -1.8401
   99SAPS   H5Y 9967  -0.210   0.640   7.130 -1.2012 -1.0835 -0.3006
   99SAPS   C36 9968  -0.093   0.476   7.216  0.2456  0.6579 -0.0019
   99SAPS   H6X 9969   0.018   0.479   7.207  0.2281 -0.5574 -0.7648
   99SAPS   H6Y 9970  -0.136   0.374   7.206 -0.4534  1.0386 -1.0736
   99SAPS   C37 9971  -0.133   0.543   7.346 -0.3671 -0.4205  0.3793
   99SAPS   H7X 9972  -0.242   0.523   7.355 -0.6036 -0.9174 -2.6216
   99SAPS   H7Y 9973  -0.102   0.650   7.343 -3.3251  0.6086  2.1705
   99SAPS   C38 9974  -0.062   0.493   7.468 -0.5571 -0.3380  1.2045
   99SAPS   H8X 9975   0.044   0.502   7.435 -1.0908  1.7966 -0.1309
   99SAPS   H8Y 9976  -0.090   0.388   7.491 -0.2978 -0.5825  0.4418
   99SAPS   C39 9977  -0.063   0.581   7.596  0.0678 -0.4884 -0.4560
   99SAPS   H9X 9978  -0.057   0.685   7.556 -0.9147 -0.5098 -0.6859
   99SAPS   H9Y 9979   0.028   0.566   7.657 -1.1597 -1.2603  1.2441
   99SAPS  C310 9980  -0.188   0.549   7.681  0.1656  0.0893  0.3120
   99SAPS  H10X 9981  -0.158   0.472   7.755  0.1589  0.1581  0.3864
   99SAPS  H10Y 9982  -0.262   0.498   7.617 -0.1524 -1.6520  1.9801
   99SAPS  C311 9983  -0.230   0.685   7.743  0.5656 -0.6156  0.0059
   99SAPS  H11X 9984  -0.260   0.758   7.665  0.3068  2.5349  2.7820
   99SAPS  H11Y 9985  -0.153   0.741   7.800 -0.5248  1.2104 -0.2241
   99SAPS  C312 9986  -0.357   0.664   7.827 -0.3430  0.1033 -0.1339
   99SAPS  H12X 9987  -0.379   0.561   7.861 -0.9801  0.1559 -0.3782
   99SAPS  H12Y 9988  -0.443   0.671   7.757 -1.2790  0.4340  1.0083
   99SAPS  C313 9989  -0.376   0.765   7.942 -0.0784  0.3454  0.4540
   99SAPS  H13X 9990  -0.482   0.771   7.974  0.0218  0.9085  0.6957
   99SAPS  H13Y 9991  -0.363   0.864   7.893  0.2659 -0.0093 -0.1885
   99SAPS  C314 9992  -0.280   0.755   8.063  0.5642 -0.2759 -0.3680
   99SAPS  H14X 9993  -0.175   0.747   8.027  0.3783 -0.2998 -0.9174
   99SAPS  H14Y 9994  -0.305   0.659   8.112  0.8670  0.4149  1.1751
   99SAPS  C315 9995  -0.290   0.877   8.160  0.2263  0.5096  0.5239
   99SAPS  H15X 9996  -0.317   0.844   8.263  0.5112 -1.1219  0.1072
   99SAPS  H15Y 9997  -0.369   0.948   8.131  0.8400  0.6850 -0.7958
   99SAPS  C316 9998  -0.161   0.957   8.164  0.3445 -0.1718 -0.2474
   99SAPS  H16X 9999  -0.143   1.002   8.064 -0.1036  0.1355 -0.1923
   99SAPS  H16Y10000  -0.072   0.900   8.198 -0.1321  0.0660  1.4940
   99SAPS  C31710001  -0.163   1.071   8.274 -0.3096  0.7022  0.5590
   99SAPS  H17X10002  -0.178   1.025   8.374  0.0602  2.1581  1.3213
   99SAPS  H17Y10003  -0.259   1.127   8.265 -1.0638 -0.4975  0.9318
   99SAPS  C31810004  -0.043   1.172   8.270  0.5742  0.2220  0.0959
   99SAPS  H18X10005   0.044   1.120   8.314  0.7109 -1.4454 -1.9493
   99SAPS  H18Y10006  -0.071   1.267   8.321  1.4311  0.2685  0.4846
   99SAPS  H18Z10007  -0.021   1.204   8.166  0.5011 -0.6893 -0.2096
  100SAPS     N10008   5.365   3.347   6.120  0.3552 -0.1039  0.6980
  100SAPS   HN110009   5.442   3.281   6.143 -0.5595 -0.6710  2.3074
  100SAPS   HN210010   5.404   3.442   6.108  0.4125  0.1459  2.4845
  100SAPS   HN310011   5.302   3.357   6.202  0.5190  1.5057  0.6480
  100SAPS   C1210012   5.301   3.290   6.001 -0.2523 -0.5730 -0.4721
  100SAPS  H12A10013   5.228   3.359   5.962  0.8224  1.3294  0.7161
  100SAPS   C1310014   5.412   3.270   5.886 -0.0159 -0.4581 -0.8221
  100SAPS  O13A10015   5.531   3.306   5.915  0.1285  0.1632  0.9438
  100SAPS  O13B10016   5.373   3.242   5.771 -0.1579 -0.4611  0.3392
  100SAPS   C1110017   5.239   3.149   6.033 -0.5512 -0.0077 -0.2395
  100SAPS  H11A10018   5.319   3.077   6.060  0.9016  1.0163 -1.5927
  100SAPS  H11B10019   5.204   3.114   5.933  0.0326 -0.8397 -0.1564
  100SAPS     P10020   5.039   3.049   6.170  0.2438  0.2152 -0.2972
  100SAPS   O1310021   4.906   3.104   6.204  0.0371 -0.4056  0.2856
  100SAPS   O1410022   5.037   2.941   6.067  0.0824  0.2869 -0.3092
  100SAPS   O1210023   5.132   3.163   6.130 -0.5250 -0.2323 -0.5763
  100SAPS   O1110024   5.105   2.988   6.302 -0.0821  0.5313  0.7189
  100SAPS    C110025   5.241   2.948   6.300  0.6483  0.2308 -0.4181
  100SAPS    HA10026   5.260   2.871   6.223  1.2363  1.4556 -1.5310
  100SAPS    HB10027   5.309   3.029   6.266  1.1032 -0.6038 -1.5227
  100SAPS    C210028   5.281   2.880   6.438 -0.4590 -0.5690 -0.6674
  100SAPS    HS10029   5.390   2.862   6.432 -0.2394  1.0583 -2.9860
  100SAPS   O2110030   5.214   2.749   6.463  0.1883 -0.4779 -0.1467
  100SAPS   C2110031   5.263   2.644   6.407 -0.8245 -0.5139 -0.5659
  100SAPS   O2210032   5.367   2.644   6.341  0.0284 -0.1452  0.2585
  100SAPS   C2210033   5.181   2.513   6.439 -0.1414 -0.7281 -0.3936
  100SAPS   H2R10034   5.084   2.523   6.385 -0.4478 -0.3784  0.2099
  100SAPS   H2S10035   5.242   2.439   6.383  0.5185 -0.9675  0.6219
  100SAPS    C310036   5.252   2.981   6.557  0.4238  0.9927  0.3018
  100SAPS    HX10037   5.145   3.011   6.552 -0.5150 -2.1136 -0.6672
  100SAPS    HY10038   5.318   3.070   6.553  1.6810  0.1069  0.4512
  100SAPS   O3110039   5.283   2.916   6.679 -0.0083 -0.0891  0.0873
  100SAPS   C3110040   5.193   2.860   6.760  0.4107  0.6378 -0.3428
  100SAPS   O3210041   5.072   2.870   6.745  0.2962  0.1218  0.2172
  100SAPS   C3210042   5.253   2.805   6.885  0.0268  0.9185  0.2875
  100SAPS   H2X10043   5.245   2.883   6.963 -2.5084  1.7207 -0.6667
  100SAPS   H2Y10044   5.357   2.771   6.863 -1.3024 -3.1452 -0.6572
  100SAPS   C2310045   5.190   2.484   6.593  0.4245 -0.0054  0.7141
  100SAPS   H3R10046   5.140   2.570   6.643  0.6053  1.2241 -1.0975
  100SAPS   H3S10047   5.293   2.493   6.634  0.6110 -0.3574  0.3313
  100SAPS   C2410048   5.115   2.357   6.622  0.4100  1.2132 -0.4795
  100SAPS   H4R10049   5.165   2.275   6.566  0.3570  0.9560 -0.1563
  100SAPS   H4S10050   5.010   2.347   6.586  0.6377 -0.3786 -0.7745
  100SAPS   C2510051   5.129   2.323   6.773  0.0979  0.0030 -0.1687
  100SAPS   H5R10052   5.073   2.381   6.847  0.0122  0.1472 -0.3448
  100SAPS   C2610053   5.219   2.237   6.823 -0.4016  0.1109  0.3898
  100SAPS   H6R10054   5.213   2.212   6.930  1.1069  1.5185  0.8471
  100SAPS   C2710055   5.315   2.151   6.752  0.6758  0.5870  0.0582
  100SAPS   H7R10056   5.329   2.179   6.645 -1.3980 -1.1306 -0.7511
  100SAPS   H7S10057   5.272   2.048   6.745 -1.7051  1.6122 -2.3397
  100SAPS   C2810058   5.448   2.140   6.823  0.0855  0.7378  0.6548
  100SAPS   H8R10059   5.493   2.235   6.854  0.9023  0.1007  1.4560
  100SAPS   C2910060   5.510   2.030   6.862 -0.2260  0.0743 -0.1921
  100SAPS   H9R10061   5.604   2.040   6.919  1.4299 -0.3273 -2.7036
  100SAPS  C21010062   5.464   1.882   6.842  1.0110 -0.4610  0.2388
  100SAPS  H10R10063   5.353   1.885   6.841  1.0261  1.0253 -0.7337
  100SAPS  H10S10064   5.482   1.827   6.937 -2.1508 -0.1986  1.1160
  100SAPS  C21110065   5.522   1.821   6.719  0.0902  0.6201 -0.0504
  100SAPS  H11R10066   5.602   1.881   6.673  1.8972 -1.8819 -0.3765
  100SAPS  C21210067   5.497   1.696   6.674 -0.2126  0.5558  0.1878
  100SAPS  H12R10068   5.558   1.656   6.592 -0.9356 -2.0604  0.8155
  100SAPS  C21310069   5.412   1.592   6.738  0.6793 -0.2652  0.3012
  100SAPS  H13R10070   5.410   1.615   6.847 -2.2650 -0.6786  0.4120
  100SAPS  H13S10071   5.459   1.494   6.716  1.0504 -0.3624  1.4463
  100SAPS  C21410072   5.269   1.592   6.692 -0.4813 -0.1250 -0.7112
  100SAPS  H14R10073   5.223   1.689   6.670  0.8128  0.3210 -1.5846
  100SAPS  C21510074   5.183   1.486   6.688  0.3315  0.1568 -0.1672
  100SAPS  H15R10075   5.079   1.495   6.656  0.1746  2.3355  0.8050
  100SAPS  C21610076   5.229   1.349   6.721 -0.4889  0.5335 -1.5339
  100SAPS  H16R10077   5.339   1.336   6.724 -0.3443  1.6474  1.2765
  100SAPS  H16S10078   5.191   1.286   6.637  0.4271 -0.5675 -1.1422
  100SAPS  C21710079   5.161   1.296   6.854  0.2600  0.0277  0.1161
  100SAPS  H17R10080   5.052   1.308   6.868  0.4808  1.6315  0.7046
  100SAPS  H17S10081   5.194   1.357   6.941  1.1833 -0.4165  0.0905
  100SAPS  C21810082   5.177   1.142   6.886  0.0420 -0.9191 -0.5508
  100SAPS  H18R10083   5.284   1.116   6.877  0.3765 -0.7541  2.2075
  100SAPS  H18S10084   5.119   1.085   6.809  0.2342  0.1189 -1.4936
  100SAPS  C21910085   5.128   1.112   7.026  0.6774  0.1781  0.8052
  100SAPS  H19R10086   5.022   1.144   7.032  0.1560 -1.6415  2.2005
  100SAPS  H19S10087   5.197   1.166   7.093  0.7655 -0.8558  1.5704
  100SAPS  C22010088   5.119   0.966   7.054 -0.4956 -0.0568  0.1458
  100SAPS  H20R10089   5.049   0.945   7.138  0.2135 -1.1916  0.4850
  100SAPS  H20S10090   5.219   0.927   7.083 -0.2158  0.0432 -0.6520
  100SAPS  H20T10091   5.092   0.912   6.961 -0.1544  1.8881 -1.1290
  100SAPS   C3310092   5.182   2.675   6.940  0.0106 -0.2032 -0.2307
  100SAPS   H3X10093   5.222   2.600   6.868  0.7189  0.7442 -0.8547
  100SAPS   H3Y10094   5.072   2.682   6.941  0.0857  1.6803  1.7909
  100SAPS   C3410095   5.221   2.624   7.082  0.4347  0.3964 -0.1206
  100SAPS   H4X10096   5.329   2.644   7.099  0.5082 -1.0965  1.4845
  100SAPS   H4Y10097   5.198   2.516   7.094  1.4239  0.3750  2.1647
  100SAPS   C3510098   5.143   2.695   7.199 -0.2811  0.1306  0.6278
  100SAPS   H5X10099   5.039   2.655   7.197 -1.0816  1.9788 -2.7961
  100SAPS   H5Y10100   5.137   2.803   7.174 -0.8996 -0.1394 -0.4722
  100SAPS   C3610101   5.197   2.675   7.341 -0.0678  0.1372 -0.3525
  100SAPS   H6X10102   5.207   2.565   7.359 -1.8425 -0.5980 -3.1069
  100SAPS   H6Y10103   5.122   2.709   7.415  0.7015 -0.9123  0.9494
  100SAPS   C3710104   5.329   2.750   7.368  1.1112  0.0979  0.1856
  100SAPS   H7X10105   5.321   2.859   7.345 -0.0343 -0.3820 -1.9468
  100SAPS   H7Y10106   5.413   2.704   7.313 -0.4146  0.7059 -2.9085
  100SAPS   C3810107   5.376   2.741   7.522  0.0901  0.0077  1.4517
  100SAPS   H8X10108   5.457   2.817   7.535 -0.3147  0.8062 -0.4381
  100SAPS   H8Y10109   5.414   2.638   7.541 -0.9008 -0.5869  0.3461
  100SAPS   C3910110   5.260   2.782   7.615  0.0127  0.2355  0.2438
  100SAPS   H9X10111   5.175   2.710   7.615  0.0836  0.1507  0.3967
  100SAPS   H9Y10112   5.226   2.878   7.571  1.6205 -0.1340 -1.9799
  100SAPS  C31010113   5.298   2.794   7.759 -0.2504 -0.3714  0.0829
  100SAPS  H10X10114   5.389   2.857   7.770  1.0319 -2.3337  1.2731
  100SAPS  H10Y10115   5.336   2.694   7.788  2.2484  0.0182 -1.4759
  100SAPS  C31110116   5.187   2.831   7.866 -0.7977  0.1073 -0.4407
  100SAPS  H11X10117   5.242   2.849   7.961 -2.8413 -0.5515  0.9525
  100SAPS  H11Y10118   5.130   2.736   7.882  0.2141 -0.1310  2.2061
  100SAPS  C31210119   5.110   2.958   7.839 -0.6576  0.1157  0.2718
  100SAPS  H12X10120   5.107   2.961   7.727  0.1141  2.0611  0.2714
  100SAPS  H12Y10121   5.184   3.038   7.859  0.4245 -0.5971 -0.7234
  100SAPS  C31310122   4.980   2.981   7.911  0.5574  0.4717 -0.1980
  100SAPS  H13X10123   5.002   2.977   8.020  0.0886 -1.2110 -0.1337
  100SAPS  H13Y10124   4.923   2.888   7.891  2.1005 -1.2517  2.8020
  100SAPS  C31410125   4.917   3.116   7.876  0.1038 -0.4440 -0.9448
  100SAPS  H14X10126   4.935   3.128   7.768 -1.5400 -2.2170 -1.4765
  100SAPS  H14Y10127   4.980   3.189   7.931  0.8990 -1.5674 -0.3122
  100SAPS  C31510128   4.771   3.130   7.917  0.4034 -0.2007 -0.0798
  100SAPS  H15X10129   4.703   3.069   7.854  1.6769 -2.5237  0.6718
  100SAPS  H15Y10130   4.742   3.236   7.901  2.4182  0.9417  2.8997
  100SAPS  C31610131   4.739   3.089   8.062 -0.1951  0.1030  0.1744
  100SAPS  H16X10132   4.814   3.138   8.128 -1.4282  3.7925 -0.9217
  100SAPS  H16Y10133   4.716   2.983   8.085 -0.4025 -0.0171 -0.5839
  100SAPS  C31710134   4.607   3.144   8.128 -0.0365 -0.1425 -0.5118
  100SAPS  H17X10135   4.525   3.126   8.055 -0.1165 -0.2919 -0.3859
  100SAPS  H17Y10136   4.611   3.255   8.132 -0.2997 -0.1676  0.9267
  100SAPS  C31810137   4.567   3.081   8.263  0.2512  1.1707 -0.2358
  100SAPS  H18X10138   4.656   3.063   8.327  0.1863 -2.7635 -0.9953
  100SAPS  H18Y10139   4.531   2.976   8.250  1.2468  0.8615 -0.5899
  100SAPS  H18Z10140   4.484   3.133   8.315 -1.1267  0.7649 -1.9288
  101OSM      N10141   5.397   1.917  10.866  0.0389 -0.9337  0.4518
  101OSM    C1510142   5.412   2.038  10.948  0.6896  0.1067  0.0635
  101OSM   H15A10143   5.409   2.028  11.056  0.4031  2.2196  0.2855
  101OSM   H15B10144   5.335   2.111  10.933 -0.0065 -0.7417 -0.5625
  101OSM   H15C10145   5.503   2.091  10.923 -0.0501  2.4921  2.0462
  101OSM    C1410146   5.295   1.828  10.917  0.3741 -0.3354 -0.5327
  101OSM   H14A10147   5.295   1.737  10.859 -1.0057  0.2324 -1.4910
  101OSM   H14B10148   5.193   1.862  10.902 -0.3462 -2.1278  0.0480
  101OSM   H14C10149   5.320   1.799  11.018  2.2266  1.1135 -0.5373
  101OSM    C1310150   5.356   1.953  10.725  0.7519 -0.0571 -0.4852
  101OSM   H13A10151   5.256   1.992  10.720  1.2759  1.2826 -0.9629
  101OSM   H13B10152   5.370   1.873  10.654  2.3685 -0.3925  0.1610
  101OSM   H13C10153   5.421   2.036  10.704  1.8703 -1.0987 -1.2608
  101OSM    C1210154   5.528   1.837  10.876  0.1993 -1.2709  0.1433
  101OSM   H12A10155   5.525   1.802  10.978 -0.0221 -0.6990  0.3388
  101OSM   H12B10156   5.612   1.904  10.867  0.0817 -1.2227 -0.6779
  101OSM    C1110157   5.543   1.713  10.789 -0.2841 -0.7547  0.4098
  101OSM   H11A10158   5.444   1.665  10.775 -1.1985  0.5034  2.2217
  101OSM   H11B10159   5.613   1.646  10.843  1.7543  1.1164  0.2478
  101OSM      P10160   5.758   1.784  10.638 -0.0982 -0.2515  0.1634
  101OSM    O1310161   5.768   1.926  10.603 -0.4301  0.4909 -0.2273
  101OSM    O1410162   5.826   1.756  10.764 -0.0439 -0.0052 -0.6634
  101OSM    O1110163   5.814   1.701  10.520  0.4474 -0.1016  0.4217
  101OSM    O1210164   5.601   1.749  10.663  0.0699 -0.4402 -0.5930
  101OSM    C1S10165   5.728   1.640  10.427  0.1156  0.1047  0.7585
  101OSM    H1S10166   5.618   1.649  10.446 -0.0786 -2.0881  0.9921
  101OSM    H1T10167   5.758   1.533  10.422  0.1157  0.0530  1.6941
  101OSM     NF10168   5.644   1.673  10.192 -0.1717 -0.6348 -0.0002
  101OSM    HNF10169   5.641   1.590  10.137 -1.8233 -0.8409  0.3436
  101OSM    C2S10170   5.758   1.688  10.280  0.3476  0.0273  0.0024
  101OSM    H2S10171   5.780   1.797  10.287  0.6600 -0.0712  0.7085
  101OSM    C3S10172   5.895   1.626  10.230 -0.6426  0.5259  0.3788
  101OSM    H3S10173   5.884   1.515  10.227  2.0482  0.1996 -0.2695
  101OSM     O310174   6.002   1.647  10.319 -0.2830  0.3794  0.0255
  101OSM    HO310175   5.959   1.684  10.396  1.2331 -0.4126  1.3119
  101OSM    C4S10176   5.935   1.679  10.098 -0.3353  0.2377  0.0499
  101OSM    H4S10177   5.968   1.783  10.086  2.5733 -0.4874  0.9094
  101OSM    C5S10178   5.927   1.604   9.996 -0.3211  0.9730  0.1124
  101OSM    H5S10179   5.879   1.505   9.998 -0.4734  1.0484  1.0288
  101OSM    C6S10180   5.962   1.650   9.854 -0.4149 -0.5400  0.0715
  101OSM    H6S10181   5.868   1.652   9.796 -1.4559 -0.6755  1.7043
  101OSM    H6T10182   6.015   1.563   9.810  1.2687 -0.3073  1.4825
  101OSM    C7S10183   6.045   1.777   9.830 -0.8371  0.1782  0.6683
  101OSM    H7S10184   6.143   1.772   9.883 -0.0866 -0.7914 -0.7323
  101OSM    H7T10185   5.988   1.869   9.854 -1.6227 -0.9441  3.4623
  101OSM    C8S10186   6.085   1.792   9.686 -0.2083  0.2247 -0.4113
  101OSM    H8S10187   6.123   1.694   9.651  1.9651  1.1048 -0.6810
  101OSM    H8T10188   6.171   1.863   9.683 -0.4601  0.5090 -1.2111
  101OSM    C9S10189   5.985   1.846   9.587 -0.2737  0.2187 -0.1052
  101OSM    H9S10190   5.934   1.941   9.615 -1.6856  0.3139 -2.7257
  101OSM    H9T10191   5.897   1.782   9.564 -1.9382  2.3236  0.0529
  101OSM   C10S10192   6.066   1.872   9.455 -0.1067 -0.2976 -0.2469
  101OSM   H10S10193   6.101   1.774   9.414 -0.1839 -0.7204  0.6701
  101OSM   H10T10194   6.154   1.929   9.492 -0.1974  0.5532 -1.2944
  101OSM   C11S10195   5.988   1.948   9.349  0.1205 -0.2773 -0.0376
  101OSM   H11S10196   5.965   2.044   9.399  2.8890 -0.0475  0.9863
  101OSM   H11T10197   5.889   1.904   9.325  0.2473 -1.4434  1.4187
  101OSM   C12S10198   6.065   1.953   9.218  0.5241 -0.4997  0.0233
  101OSM   H12S10199   6.107   1.856   9.184 -0.4511  0.1343 -3.3894
  101OSM   H12T10200   6.143   2.031   9.228  0.8388 -1.0484  2.5297
  101OSM   C13S10201   5.980   2.013   9.107 -0.0063 -0.1583 -0.8499
  101OSM   H13S10202   5.945   2.119   9.112  1.2509  0.3202 -1.7440
  101OSM   H13T10203   5.887   1.952   9.100 -0.7562  1.0733 -2.4634
  101OSM   C14S10204   6.047   2.005   8.970  0.6112 -0.6017 -0.2104
  101OSM   H14S10205   6.067   1.897   8.951 -2.3617 -1.3333  0.2950
  101OSM   H14T10206   6.140   2.064   8.979  0.4978 -0.3484 -0.6524
  101OSM   C15S10207   5.955   2.055   8.860 -0.2800 -0.0100  0.0202
  101OSM   H15S10208   5.910   2.154   8.881 -0.0912  0.5384 -1.9326
  101OSM   H15T10209   5.875   1.982   8.836 -1.0309  0.9080 -0.3318
  101OSM   C16S10210   6.023   2.060   8.722  0.0280 -0.0099  0.1958
  101OSM   H16S10211   5.945   2.078   8.646 -0.2884  1.2335  0.7747
  101OSM   H16T10212   6.071   1.962   8.704 -0.0579  0.3108 -1.9567
  101OSM   C17S10213   6.133   2.160   8.697 -0.1252 -0.0313 -0.0975
  101OSM   H17S10214   6.208   2.111   8.631 -0.8787 -3.1048  1.1573
  101OSM   H17T10215   6.185   2.176   8.793 -0.8249  0.9942  0.1218
  101OSM   C18S10216   6.085   2.294   8.646 -0.5562 -0.5393 -0.1137
  101OSM   H18S10217   6.168   2.368   8.643 -2.3598  1.6713  0.9833
  101OSM   H18T10218   6.014   2.329   8.724 -0.7741 -2.3318  0.5404
  101OSM   H18U10219   6.030   2.281   8.551 -2.7737 -0.9444  1.1535
  101OSM    C1F10220   5.542   1.759  10.202  0.6482 -0.1148 -0.0230
  101OSM     OF10221   5.543   1.846  10.291 -0.4656  0.5467 -0.3470
  101OSM    C2F10222   5.435   1.742  10.100 -0.0326 -0.1161  0.4852
  101OSM    H2F10223   5.358   1.674  10.141 -2.2456  1.9639  0.0016
  101OSM    H2G10224   5.472   1.703  10.002  0.5994 -0.8295  0.9926
  101OSM    C3F10225   5.357   1.872  10.074 -0.0564 -0.5018 -0.3533
  101OSM    H3F10226   5.420   1.963  10.060 -0.6898  0.7047  3.3958
  101OSM    H3G10227   5.311   1.901  10.171  0.8824 -2.9629  0.9165
  101OSM    C4F10228   5.258   1.863   9.959  1.1437  0.4400 -0.4753
  101OSM    H4F10229   5.187   1.778   9.966  2.5773 -0.7482  0.2582
  101OSM    H4G10230   5.320   1.837   9.871  2.8198 -1.5096  1.1750
  101OSM    C5F10231   5.186   1.994   9.930 -0.0061 -0.1550 -0.4500
  101OSM    H5F10232   5.261   2.075   9.938  0.5946 -0.8952  3.6425
  101OSM    H5G10233   5.102   2.001  10.004 -1.4161 -0.5993 -1.9514
  101OSM    C6F10234   5.104   2.006   9.804  0.2178  0.2514 -0.1031
  101OSM    H6F10235   5.064   2.110   9.809  0.3806  0.2518  2.2867
  101OSM    H6G10236   5.017   1.939   9.816  0.2938  0.6210  3.5903
  101OSM    C7F10237   5.188   1.983   9.676  0.6421  0.7521  1.0356
  101OSM    H7F10238   5.231   1.881   9.682 -0.0674  0.5008  2.1062
  101OSM    H7G10239   5.270   2.058   9.679  0.2177  1.2575  0.3156
  101OSM    C8F10240   5.105   1.998   9.543 -0.1243  0.2300 -0.0971
  101OSM    H8F10241   4.999   1.965   9.557  0.2916 -1.9311 -1.5034
  101OSM    H8G10242   5.138   1.931   9.461 -0.6879  0.7897 -0.7945
  101OSM    C9F10243   5.097   2.136   9.488 -0.1082 -0.2316  0.2193
  101OSM    H9F10244   5.080   2.212   9.566 -0.5647 -2.0147  1.9437
  101OSM   C10F10245   5.103   2.177   9.359  0.1406  0.4655 -0.0531
  101OSM   H10F10246   5.090   2.284   9.336  0.7076  0.2073 -1.7465
  101OSM   C11F10247   5.135   2.079   9.254  0.4014  0.8130  0.0429
  101OSM   H11F10248   5.065   1.993   9.257  1.2099  0.1259 -0.5832
  101OSM   H11G10249   5.235   2.035   9.271  0.4523  1.2483  0.9962
  101OSM   C12F10250   5.115   2.134   9.111  0.2697 -0.0537  1.1421
  101OSM   H12F10251   5.122   2.048   9.040 -1.0955  1.1005 -0.4689
  101OSM   H12G10252   5.189   2.215   9.092  1.4548 -1.5579 -1.1719
  101OSM   C13F10253   4.976   2.209   9.082 -0.2365  0.0326  0.3915
  101OSM   H13F10254   4.976   2.310   9.128  0.9968  0.1917  0.1008
  101OSM   H13G10255   4.906   2.142   9.136  0.4342  0.9126  2.4735
  101OSM   C14F10256   4.927   2.209   8.935  0.5434 -0.5782  0.2413
  101OSM   H14F10257   4.988   2.272   8.867 -1.0764 -1.0433 -1.7551
  101OSM   H14G10258   4.825   2.252   8.929  1.4894  1.6395 -2.1213
  101OSM   C15F10259   4.917   2.076   8.857 -0.5189  0.1696  0.0641
  101OSM   H15F10260   4.832   2.024   8.906 -2.1343  3.2497  0.7426
  101OSM   H15G10261   5.014   2.022   8.871 -0.0781  1.4824  2.6869
  101OSM   C16F10262   4.866   2.094   8.713 -0.0985 -0.0909 -0.0916
  101OSM   H16F10263   4.936   2.146   8.645 -2.1774 -1.4686 -3.5314
  101OSM   H16G10264   4.778   2.162   8.718 -0.2099 -0.2258 -0.2320
  101OSM   C17F10265   4.819   1.966   8.638  0.0159 -0.7912  0.0863
  101OSM   H17F10266   4.800   1.992   8.531  2.4804 -1.5622 -0.6187
  101OSM   H17G10267   4.722   1.926   8.675  0.2847 -2.5823 -0.9904
  101OSM   C18F10268   4.915   1.851   8.656  0.5885 -0.3662 -1.0096
  101OSM   H18F10269   5.009   1.864   8.599  1.3366  0.4286  0.3454
  101OSM   H18G10270   4.871   1.756   8.618  3.0675 -2.4018  0.8781
  101OSM   H18H10271   4.946   1.836   8.762 -1.8275  1.9717  0.1465
  102OSM      N10272   4.435   0.697  10.883  0.0617 -0.3610  0.5758
  102OSM    C1510273   4.389   0.829  10.922 -0.9661  0.7824  0.4889
  102OSM   H15A10274   4.398   0.913  10.855 -0.4062  1.7275  1.6995
  102OSM   H15B10275   4.442   0.872  11.006 -0.6407 -0.7947  1.1218
  102OSM   H15C10276   4.284   0.831  10.948 -0.5506  0.4151  2.3242
  102OSM    C1410277   4.580   0.717  10.843  0.2915  0.0570  0.0716
  102OSM   H14A10278   4.590   0.788  10.763  1.0969 -0.5832 -0.4179
  102OSM   H14B10279   4.632   0.625  10.819  0.3086 -0.1686  0.9490
  102OSM   H14C10280   4.631   0.764  10.926  0.2870  2.3387 -1.1612
  102OSM    C1310281   4.442   0.596  10.994  0.4859  0.1505 -0.0944
  102OSM   H13A10282   4.513   0.621  11.072  1.4084 -2.5764  0.0316
  102OSM   H13B10283   4.473   0.501  10.954  1.6605 -0.1047  1.3432
  102OSM   H13C10284   4.346   0.588  11.041  0.8084 -1.0507  0.3985
  102OSM    C1210285   4.353   0.640  10.776 -0.5134 -0.2359 -1.0248
  102OSM   H12A10286   4.384   0.539  10.758 -1.7984 -0.9660  0.6158
  102OSM   H12B10287   4.357   0.693  10.682  2.4141  1.2988 -0.1617
  102OSM    C1110288   4.208   0.617  10.814  0.6603 -0.2359 -0.2270
  102OSM   H11A10289   4.202   0.562  10.911 -0.9597 -1.6962 -1.0891
  102OSM   H11B10290   4.163   0.541  10.747  0.9474 -1.4177  0.8770
  102OSM      P10291   4.039   0.790  10.720  0.0675  0.3148  0.0892
  102OSM    O1310292   3.944   0.892  10.776  0.1509  0.4229 -0.2866
  102OSM    O1410293   4.118   0.826  10.603  0.3264 -0.0420  1.0715
  102OSM    O1110294   3.950   0.664  10.690  0.5653  0.2991  0.4232
  102OSM    O1210295   4.134   0.738  10.834 -0.2480  0.0523  0.0357
  102OSM    C1S10296   3.834   0.684  10.597 -0.2258  0.4916  0.4466
  102OSM    H1S10297   3.768   0.772  10.614 -1.6481 -0.7048  1.4422
  102OSM    H1T10298   3.761   0.604  10.620 -0.7232  0.4661 -1.1580
  102OSM     NF10299   3.758   0.716  10.366  0.0023 -0.3301 -0.8734
  102OSM    HNF10300   3.692   0.661  10.316 -0.3714  1.4267 -2.4129
  102OSM    C2S10301   3.869   0.670  10.447  0.5329 -0.1376  0.2980
  102OSM    H2S10302   3.955   0.737  10.424  0.1179  0.0761 -0.7196
  102OSM    C3S10303   3.918   0.528  10.417 -0.1733 -0.0477 -0.4209
  102OSM    H3S10304   3.853   0.454  10.469  2.1528  0.7236  4.1278
  102OSM     O310305   4.054   0.507  10.464  1.2110 -0.5545 -0.5270
  102OSM    HO310306   4.085   0.582  10.515 -0.4675 -0.9431  1.1913
  102OSM    C4S10307   3.926   0.514  10.269  0.1596  0.1517  0.4268
  102OSM    H4S10308   3.980   0.601  10.228 -0.8986  0.3705 -0.5546
  102OSM    C5S10309   3.866   0.419  10.204  1.2687  0.0700  0.0834
  102OSM    H5S10310   3.819   0.344  10.270 -0.1507  0.2454 -0.6900
  102OSM    C6S10311   3.846   0.382  10.061  0.2975  0.7034 -0.4756
  102OSM    H6S10312   3.743   0.343  10.045  0.3932 -0.5483  1.6033
  102OSM    H6T10313   3.919   0.300  10.045 -0.0842  0.6900 -2.3829
  102OSM    C7S10314   3.873   0.500   9.960  0.1638  0.5886  0.8312
  102OSM    H7S10315   3.977   0.537   9.965  0.5223 -0.3850  0.7994
  102OSM    H7T10316   3.793   0.572   9.987 -2.2356 -1.5118 -0.2172
  102OSM    C8S10317   3.852   0.443   9.816  0.2275  0.6475  0.4275
  102OSM    H8S10318   3.757   0.385   9.824  1.1082 -0.9480 -0.1381
  102OSM    H8T10319   3.925   0.364   9.787 -0.5398 -0.3557  1.1355
  102OSM    C9S10320   3.858   0.548   9.712  0.2590 -0.0374  0.4780
  102OSM    H9S10321   3.946   0.609   9.741  0.1047  0.0494  0.7702
  102OSM    H9T10322   3.768   0.613   9.715  0.3585  0.0765  1.0258
  102OSM   C10S10323   3.869   0.492   9.571 -0.1994 -1.1354  0.0630
  102OSM   H10S10324   3.777   0.434   9.549  0.1426 -0.4365 -3.9121
  102OSM   H10T10325   3.961   0.432   9.553 -0.5642 -1.6407 -0.1391
  102OSM   C11S10326   3.876   0.596   9.458 -0.7229 -0.2896 -0.3389
  102OSM   H11S10327   3.945   0.676   9.491 -0.9934 -0.1358 -0.1364
  102OSM   H11T10328   3.775   0.643   9.447 -1.3685 -1.1719  1.3985
  102OSM   C12S10329   3.916   0.543   9.320 -0.1115  1.1041 -0.6259
  102OSM   H12S10330   3.855   0.451   9.307  0.6216  0.9388 -3.3651
  102OSM   H12T10331   4.017   0.497   9.319  0.4541  2.3298 -1.5821
  102OSM   C13S10332   3.884   0.634   9.199  1.1822  0.3863 -1.1307
  102OSM   H13S10333   3.977   0.693   9.185  1.2898  0.5228  0.0565
  102OSM   H13T10334   3.803   0.703   9.233  0.9785 -0.7407  0.7555
  102OSM   C14S10335   3.845   0.562   9.069 -0.2439 -0.3050 -0.4401
  102OSM   H14S10336   3.738   0.537   9.061  0.3109 -2.7173 -1.0932
  102OSM   H14T10337   3.908   0.470   9.061  0.7741  0.3312  0.0197
  102OSM   C15S10338   3.868   0.637   8.936 -0.6337 -0.4080  0.2876
  102OSM   H15S10339   3.819   0.737   8.939  1.2289  0.5582  0.3150
  102OSM   H15T10340   3.825   0.585   8.848 -2.8918  1.7853 -0.0117
  102OSM   C16S10341   4.019   0.678   8.906  1.1968  0.8684 -0.0246
  102OSM   H16S10342   4.054   0.731   8.997  0.1412 -2.0397  2.2542
  102OSM   H16T10343   4.016   0.744   8.818 -0.0455  1.0974  0.1742
  102OSM   C17S10344   4.110   0.556   8.878 -0.3346  0.0107 -0.6567
  102OSM   H17S10345   4.126   0.519   8.982 -2.3917  0.6045 -0.0877
  102OSM   H17T10346   4.206   0.593   8.837 -0.2562  0.1725 -0.3348
  102OSM   C18S10347   4.060   0.451   8.785 -0.1905  0.1256  0.3117
  102OSM   H18S10348   4.034   0.481   8.681  0.4483 -2.5023 -0.7029
  102OSM   H18T10349   3.973   0.405   8.837  0.2986  1.4111  2.3578
  102OSM   H18U10350   4.146   0.382   8.772 -0.9525 -0.4003 -2.7764
  102OSM    C1F10351   3.721   0.846  10.364  0.1307  0.3033  0.2837
  102OSM     OF10352   3.772   0.926  10.435 -0.5056  0.0807  0.5055
  102OSM    C2F10353   3.605   0.885  10.275 -0.1092  0.7129  0.0276
  102OSM    H2F10354   3.521   0.928  10.333 -1.2327 -0.4786 -0.6625
  102OSM    H2G10355   3.559   0.795  10.229 -0.3690  0.9378 -0.1538
  102OSM    C3F10356   3.644   0.984  10.165  0.0201  0.0964  0.7155
  102OSM    H3F10357   3.718   1.055  10.207  0.1789  0.6948 -0.5340
  102OSM    H3G10358   3.561   1.055  10.143  0.6751  0.7213  0.2489
  102OSM    C4F10359   3.709   0.913  10.048 -0.3957 -0.6556 -0.1960
  102OSM    H4F10360   3.643   0.836  10.002  3.3882 -3.4959 -1.3694
  102OSM    H4G10361   3.797   0.860  10.090 -1.2321 -0.8914  1.3254
  102OSM    C5F10362   3.759   1.007   9.935  0.0910 -0.3109 -0.0485
  102OSM    H5F10363   3.840   1.065   9.984 -0.3406  0.4963 -0.2895
  102OSM    H5G10364   3.675   1.073   9.906 -0.7043 -0.4248  1.8111
  102OSM    C6F10365   3.817   0.932   9.815  0.1831 -0.1592  0.4504
  102OSM    H6F10366   3.729   0.896   9.758  0.3484  0.7043 -0.3693
  102OSM    H6G10367   3.888   0.857   9.857  0.4162  1.1003  2.4720
  102OSM    C7F10368   3.888   1.034   9.723  0.4123 -0.2150  0.2793
  102OSM    H7F10369   3.971   1.075   9.784 -0.6190  2.9787 -0.2591
  102OSM    H7G10370   3.822   1.118   9.694 -1.4939 -1.8761 -0.4499
  102OSM    C8F10371   3.939   0.972   9.594 -0.4022  0.2062  0.3343
  102OSM    H8F10372   3.847   0.941   9.540 -1.4601  0.9613  1.6590
  102OSM    H8G10373   3.998   0.879   9.610 -2.4397 -1.0397  0.9760
  102OSM    C9F10374   4.030   1.062   9.513 -0.0540 -0.2167  0.2055
  102OSM    H9F10375   4.135   1.062   9.546 -0.0612  0.6688  0.2598
  102OSM   C10F10376   4.002   1.134   9.398  1.0687  0.2805  0.2645
  102OSM   H10F10377   4.091   1.193   9.372  2.0806 -1.4406 -0.2783
  102OSM   C11F10378   3.873   1.148   9.319 -0.1076 -0.8073  0.0286
  102OSM   H11F10379   3.840   1.254   9.326  1.3394 -0.3977  0.9784
  102OSM   H11G10380   3.799   1.086   9.375 -1.0303 -0.9293 -1.2871
  102OSM   C12F10381   3.893   1.107   9.174  0.1267  0.5119  0.0239
  102OSM   H12F10382   3.894   0.996   9.177  1.1756  0.4802 -0.8198
  102OSM   H12G10383   3.991   1.140   9.134  0.0896 -1.0421 -1.5181
  102OSM   C13F10384   3.792   1.155   9.076 -0.2781 -0.2300  0.5548
  102OSM   H13F10385   3.786   1.266   9.078 -0.8017 -0.2333 -0.1370
  102OSM   H13G10386   3.688   1.131   9.109 -0.4239 -1.5494 -0.7505
  102OSM   C14F10387   3.830   1.106   8.930 -0.8153 -0.7781 -0.1796
  102OSM   H14F10388   3.809   0.997   8.917  2.8538 -1.7323  0.9066
  102OSM   H14G10389   3.937   1.111   8.904 -0.9782 -0.1760 -0.7546
  102OSM   C15F10390   3.744   1.182   8.824  0.1133  0.0629 -0.3482
  102OSM   H15F10391   3.792   1.281   8.814  0.7179 -0.3153 -1.4401
  102OSM   H15G10392   3.637   1.192   8.852  0.4768  0.9407  0.7969
  102OSM   C16F10393   3.778   1.128   8.681  0.0709 -0.1066  0.3443
  102OSM   H16F10394   3.794   1.019   8.690 -0.5991 -0.1251  1.4399
  102OSM   H16G10395   3.870   1.173   8.638 -1.2134  2.9751  0.5769
  102OSM   C17F10396   3.662   1.135   8.583  0.0518 -0.4100 -0.2289
  102OSM   H17F10397   3.572   1.085   8.625  0.3756 -0.4677  0.4021
  102OSM   H17G10398   3.696   1.083   8.491 -0.4327 -1.7392  0.3157
  102OSM   C18F10399   3.620   1.279   8.564  0.4157 -0.7537  0.0474
  102OSM   H18F10400   3.708   1.346   8.562  0.0996 -0.3573 -1.0602
  102OSM   H18G10401   3.562   1.308   8.655 -1.2493  0.9028 -1.4604
  102OSM   H18H10402   3.538   1.301   8.492 -0.3747 -1.4418  0.6992
  103OSM      N10403   5.458   4.481  11.204  0.6459 -0.4555  0.5056
  103OSM    C1510404   5.577   4.460  11.276 -0.1071  0.2481  1.1068
  103OSM   H15A10405   5.658   4.522  11.240  0.4824 -1.4947 -0.8086
  103OSM   H15B10406   5.621   4.370  11.235 -1.2435 -0.2357  0.9107
  103OSM   H15C10407   5.563   4.463  11.383 -0.8687  1.2546  0.9876
  103OSM    C1410408   5.457   4.432  11.062 -0.3908  0.3422  0.2494
  103OSM   H14A10409   5.359   4.435  11.017 -0.9564 -1.5201  1.2578
  103OSM   H14B10410   5.494   4.331  11.056  1.3482  1.0246 -1.4182
  103OSM   H14C10411   5.521   4.485  10.993  1.1769 -0.9472  0.6321
  103OSM    C1310412   5.344   4.412  11.274  0.3563 -0.1200  0.8517
  103OSM   H13A10413   5.319   4.466  11.364  0.9641 -0.6825  1.3660
  103OSM   H13B10414   5.372   4.310  11.297 -0.6131 -0.4285  0.6902
  103OSM   H13C10415   5.247   4.415  11.227  0.5497  2.3424  0.4629
  103OSM    C1210416   5.436   4.635  11.200 -0.1831  0.1784  0.2468
  103OSM   H12A10417   5.527   4.681  11.164  1.0607 -2.6174 -0.5080
  103OSM   H12B10418   5.412   4.670  11.299 -3.5489  2.3230 -1.1354
  103OSM    C1110419   5.323   4.694  11.119  0.4094 -0.6827  0.0994
  103OSM   H11A10420   5.292   4.792  11.160  1.5162  0.7041 -2.1643
  103OSM   H11B10421   5.239   4.623  11.134  0.3600 -0.4020  1.1805
  103OSM      P10422   5.433   4.826  10.926  0.2381 -0.0314 -0.2110
  103OSM    O1310423   5.345   4.947  10.928 -0.1153  0.0162 -0.5669
  103OSM    O1410424   5.555   4.833  11.007 -0.2252 -0.3335  0.1485
  103OSM    O1110425   5.476   4.787  10.785 -0.3590 -0.2624  0.5318
  103OSM    O1210426   5.345   4.700  10.974  0.3431  0.1021 -0.0105
  103OSM    C1S10427   5.438   4.672  10.712  0.5442  0.0795 -0.3613
  103OSM    H1S10428   5.327   4.665  10.708  0.5592  0.3992 -1.5735
  103OSM    H1T10429   5.483   4.579  10.753  1.7603  0.1527 -1.4530
  103OSM     NF10430   5.414   4.583  10.493 -0.0319  0.5096  0.2300
  103OSM    HNF10431   5.455   4.494  10.475 -0.8121 -0.4362  2.7103
  103OSM    C2S10432   5.489   4.679  10.562  0.6282 -0.4264 -0.1269
  103OSM    H2S10433   5.480   4.781  10.519  0.1874 -1.1286 -1.7602
  103OSM    C3S10434   5.642   4.647  10.562  0.4703  0.2284  0.0468
  103OSM    H3S10435   5.658   4.542  10.593 -0.6317 -0.1366 -0.5758
  103OSM     O310436   5.715   4.724  10.663 -0.5820  0.0487 -0.2792
  103OSM    HO310437   5.649   4.767  10.718 -1.5324 -2.5359  0.7599
  103OSM    C4S10438   5.702   4.645  10.420  0.1255  0.1807 -0.1798
  103OSM    H4S10439   5.694   4.551  10.364  0.3160  0.3861 -0.5540
  103OSM    C5S10440   5.770   4.745  10.356 -0.5230  0.2646  0.5363
  103OSM    H5S10441   5.790   4.841  10.405 -1.1411  0.6850 -0.0261
  103OSM    C6S10442   5.826   4.728  10.216  0.2984  0.5798 -0.3142
  103OSM    H6S10443   5.760   4.793  10.156 -0.5744 -0.9031 -1.0334
  103OSM    H6T10444   5.822   4.625  10.174 -0.2247 -0.3847  1.9550
  103OSM    C7S10445   5.976   4.783  10.200 -0.1032  0.0984 -0.1345
  103OSM    H7S10446   6.037   4.722  10.269 -0.8140  0.6168  0.9693
  103OSM    H7T10447   5.984   4.889  10.233  2.9781  0.1567 -0.8217
  103OSM    C8S10448   6.017   4.782  10.050  0.3555 -0.8917  0.0518
  103OSM    H8S10449   6.106   4.850  10.047  0.0033 -0.4280 -0.0481
  103OSM    H8T10450   5.942   4.828   9.983  1.6284  0.8448 -0.2510
  103OSM    C9S10451   6.060   4.643  10.001  0.2371  0.0899  0.6056
  103OSM    H9S10452   5.960   4.594   9.993 -0.5581  1.6484  0.6745
  103OSM    H9T10453   6.118   4.590  10.080 -0.5789 -1.2803  0.3129
  103OSM   C10S10454   6.139   4.646   9.868 -0.0392  0.5042 -0.2782
  103OSM   H10S10455   6.224   4.715   9.884  0.0845 -0.1331  2.2281
  103OSM   H10T10456   6.067   4.696   9.800 -2.3001  0.1499  1.7297
  103OSM   C11S10457   6.170   4.513   9.801 -0.0579 -0.4104 -0.2755
  103OSM   H11S10458   6.075   4.463   9.775  0.8814 -1.3463 -2.0723
  103OSM   H11T10459   6.231   4.457   9.875  0.9946  0.7758 -0.2210
  103OSM   C12S10460   6.245   4.525   9.672 -0.4435 -0.8546  0.5793
  103OSM   H12S10461   6.351   4.530   9.706 -0.4851  2.3098  0.5200
  103OSM   H12T10462   6.231   4.626   9.628  0.4075 -0.0866  1.9628
  103OSM   C13S10463   6.227   4.407   9.574 -0.4491 -0.1966  0.2325
  103OSM   H13S10464   6.120   4.388   9.549 -0.7770  1.3452  0.3185
  103OSM   H13T10465   6.253   4.311   9.623  0.1156  0.0120  0.3457
  103OSM   C14S10466   6.320   4.421   9.445  0.0019 -0.3039  0.4617
  103OSM   H14S10467   6.425   4.419   9.481 -0.7689  1.2836  3.0647
  103OSM   H14T10468   6.283   4.504   9.381 -0.3660  0.3450  1.4896
  103OSM   C15S10469   6.320   4.288   9.355  0.0804  0.1702  0.0696
  103OSM   H15S10470   6.375   4.204   9.404 -2.6405 -1.1273  1.0965
  103OSM   H15T10471   6.380   4.332   9.273  2.6787 -0.6790  1.3956
  103OSM   C16S10472   6.183   4.231   9.315 -1.3238 -0.3697  0.3200
  103OSM   H16S10473   6.131   4.216   9.412 -0.7501 -2.0931  0.3856
  103OSM   H16T10474   6.199   4.141   9.253  1.9816 -0.3013  0.9026
  103OSM   C17S10475   6.094   4.334   9.249 -0.2319 -0.4909  0.5602
  103OSM   H17S10476   6.138   4.387   9.162 -0.4971 -1.4336 -0.1712
  103OSM   H17T10477   6.063   4.412   9.321 -1.5177 -0.8793  0.4506
  103OSM   C18S10478   5.960   4.267   9.191  0.2477 -0.1728 -0.4154
  103OSM   H18S10479   5.967   4.223   9.089  0.2756 -2.5300  0.5561
  103OSM   H18T10480   5.879   4.344   9.185  0.2533 -0.0201  1.0359
  103OSM   H18U10481   5.919   4.191   9.261 -1.7022 -1.1522 -2.4790
  103OSM    C1F10482   5.288   4.610  10.453  0.2440 -0.1781  0.8541
  103OSM     OF10483   5.244   4.724  10.472 -0.5007 -0.0352  0.5430
  103OSM    C2F10484   5.208   4.497  10.406  0.2438 -0.1189 -0.5372
  103OSM    H2F10485   5.110   4.500  10.458  0.4737 -2.4091  0.1012
  103OSM    H2G10486   5.259   4.401  10.426 -0.0534 -0.2479 -0.3953
  103OSM    C3F10487   5.179   4.499  10.260  0.9842 -0.2520  0.8396
  103OSM    H3F10488   5.130   4.590  10.220  0.2394 -1.4510 -1.0691
  103OSM    H3G10489   5.101   4.423  10.240  0.0090  1.0268 -0.4455
  103OSM    C4F10490   5.298   4.492  10.169  0.6073 -0.1119 -0.0644
  103OSM    H4F10491   5.357   4.404  10.204 -0.6996 -0.3035  1.7608
  103OSM    H4G10492   5.362   4.581  10.189 -1.7880  0.9235  4.0949
  103OSM    C5F10493   5.244   4.478  10.028 -0.3589 -0.2169 -0.8734
  103OSM    H5F10494   5.175   4.562  10.005 -1.2121 -0.7376 -0.2778
  103OSM    H5G10495   5.174   4.392  10.021 -1.0272  0.4378 -2.5977
  103OSM    C6F10496   5.355   4.457   9.923  0.4737  0.0612 -0.2631
  103OSM    H6F10497   5.430   4.384   9.961 -0.3768  0.3786  2.2441
  103OSM    H6G10498   5.406   4.554   9.908  0.7453  0.1330  0.9660
  103OSM    C7F10499   5.302   4.418   9.780 -0.2346 -0.4807 -0.7222
  103OSM    H7F10500   5.209   4.477   9.766  1.1489  2.0232 -0.0412
  103OSM    H7G10501   5.286   4.308   9.774  2.7701 -0.9678 -1.7364
  103OSM    C8F10502   5.403   4.452   9.673  0.3719  0.1670 -0.0366
  103OSM    H8F10503   5.507   4.419   9.692  0.1779 -0.6568 -0.3880
  103OSM    H8G10504   5.406   4.563   9.680 -1.5195  0.1840  1.3777
  103OSM    C9F10505   5.354   4.411   9.541 -0.1996 -0.0769  0.1497
  103OSM    H9F10506   5.376   4.306   9.515  0.2470  0.0967 -0.1726
  103OSM   C10F10507   5.309   4.493   9.447  0.9038 -0.3156  0.1219
  103OSM   H10F10508   5.280   4.458   9.347  0.3801  0.4945 -0.0219
  103OSM   C11F10509   5.281   4.644   9.460 -0.0053 -0.5106 -0.5829
  103OSM   H11F10510   5.367   4.699   9.506  0.2542 -2.2291  1.1364
  103OSM   H11G10511   5.198   4.665   9.531 -0.0567  0.7404 -0.9812
  103OSM   C12F10512   5.245   4.700   9.329  0.7010  0.2138 -0.4163
  103OSM   H12F10513   5.294   4.653   9.241  1.4998 -1.5543  0.8994
  103OSM   H12G10514   5.290   4.801   9.337  0.7250  0.1593  0.1672
  103OSM   C13F10515   5.090   4.707   9.303  0.0193  0.4330 -0.0555
  103OSM   H13F10516   5.043   4.606   9.305 -0.3120  0.5843 -0.2000
  103OSM   H13G10517   5.039   4.778   9.370  0.1344  0.2298  0.2482
  103OSM   C14F10518   5.062   4.761   9.162  0.0795  0.7889 -0.3284
  103OSM   H14F10519   4.953   4.750   9.147 -0.3739  2.9883  0.9137
  103OSM   H14G10520   5.116   4.697   9.089 -0.1006  0.6510 -0.3433
  103OSM   C15F10521   5.108   4.906   9.136 -0.0281 -0.0778 -0.2381
  103OSM   H15F10522   5.219   4.904   9.130 -0.0441 -0.2360 -0.4743
  103OSM   H15G10523   5.078   4.971   9.221  0.1802 -2.6557  1.9439
  103OSM   C16F10524   5.071   4.962   8.993  0.1152 -0.0013 -0.2409
  103OSM   H16F10525   5.138   5.048   8.971 -0.9353  0.7301 -0.6781
  103OSM   H16G10526   4.967   5.002   8.993 -0.0966 -0.5276 -0.7537
  103OSM   C17F10527   5.079   4.855   8.885  0.1438 -0.0290  0.6893
  103OSM   H17F10528   4.995   4.781   8.885 -0.2870  0.4290  1.8403
  103OSM   H17G10529   5.179   4.806   8.889  1.0826  1.7662  0.0919
  103OSM   C18F10530   5.064   4.931   8.742 -0.0272  0.2002 -0.4611
  103OSM   H18F10531   5.109   5.032   8.754  1.5278 -0.6173  1.1038
  103OSM   H18G10532   4.954   4.944   8.726 -0.4673 -0.0179  2.0012
  103OSM   H18H10533   5.124   4.877   8.666 -0.3477 -1.0284  0.1291
  104OSM      N10534   3.787   3.050  10.648 -0.0643 -0.0995 -0.6574
  104OSM    C1510535   3.669   3.004  10.725  0.1016 -0.4542  0.1578
  104OSM   H15A10536   3.624   2.918  10.677  1.4195 -1.4359  0.6058
  104OSM   H15B10537   3.595   3.079  10.748 -0.7735 -1.0920 -0.4836
  104OSM   H15C10538   3.696   2.960  10.820  0.1750  0.7775  0.7205
  104OSM    C1410539   3.740   3.128  10.533  0.5877 -0.0233 -0.5822
  104OSM   H14A10540   3.674   3.061  10.480 -2.5242  1.2400  1.3717
  104OSM   H14B10541   3.820   3.172  10.476  0.9882  0.9483  0.6794
  104OSM   H14C10542   3.685   3.214  10.568  1.2004  0.7247 -1.4417
  104OSM    C1310543   3.871   3.149  10.719 -0.3836  0.1148 -0.2159
  104OSM   H13A10544   3.881   3.116  10.821 -1.3341 -3.2284 -1.0757
  104OSM   H13B10545   3.823   3.246  10.718  1.5299  1.1492  1.4262
  104OSM   H13C10546   3.969   3.150  10.674  1.2461 -1.7602  2.9656
  104OSM    C1210547   3.875   2.938  10.600  0.3285  0.0347  0.3014
  104OSM   H12A10548   3.939   2.895  10.675  0.8282 -0.8921 -0.6322
  104OSM   H12B10549   3.954   2.971  10.533 -2.5597  2.7443 -2.1384
  104OSM    C1110550   3.811   2.818  10.534  0.8352  0.0524 -0.3168
  104OSM   H11A10551   3.879   2.741  10.492  3.0247  2.1065 -0.7776
  104OSM   H11B10552   3.777   2.866  10.440  1.5283  0.8122 -0.1975
  104OSM      P10553   3.615   2.634  10.566  0.2939 -0.0552  0.0910
  104OSM    O1310554   3.702   2.514  10.552  0.1892 -0.7094  0.0463
  104OSM    O1410555   3.504   2.629  10.661  0.3590  0.2606 -0.3052
  104OSM    O1110556   3.566   2.677  10.422 -0.4300 -0.1733  0.2682
  104OSM    O1210557   3.705   2.754  10.614 -0.1519 -0.1675  0.5058
  104OSM    C1S10558   3.478   2.784  10.405  0.4407  0.2188 -0.3980
  104OSM    H1S10559   3.520   2.876  10.451  0.4296  0.0546 -0.0578
  104OSM    H1T10560   3.390   2.752  10.466  1.1763 -2.3829 -0.5699
  104OSM     NF10561   3.339   2.932  10.239 -0.4742 -0.0545 -0.0413
  104OSM    HNF10562   3.251   2.921  10.194  0.1182 -1.3288 -0.9225
  104OSM    C2S10563   3.431   2.816  10.252 -0.6565 -0.7675 -0.2009
  104OSM    H2S10564   3.524   2.832  10.195 -2.6218  2.6319 -2.8377
  104OSM    C3S10565   3.366   2.680  10.191  0.3440 -0.0354  0.4772
  104OSM    H3S10566   3.270   2.661  10.244  0.4266  2.8455  1.8830
  104OSM     O310567   3.449   2.561  10.207 -0.0840 -0.0230  0.2344
  104OSM    HO310568   3.504   2.572  10.285  1.8690 -1.5306 -0.8202
  104OSM    C4S10569   3.351   2.710  10.047 -0.6530 -0.0908 -0.2464
  104OSM    H4S10570   3.275   2.784  10.020  1.1078  1.7579 -0.3364
  104OSM    C5S10571   3.440   2.683   9.948  0.9826 -0.2320  0.0352
  104OSM    H5S10572   3.537   2.640   9.978  1.7057  2.0171  1.0890
  104OSM    C6S10573   3.436   2.716   9.797 -0.4880 -0.2888 -0.5059
  104OSM    H6S10574   3.428   2.623   9.737  3.6241 -0.7606 -0.6120
  104OSM    H6T10575   3.537   2.747   9.762  0.1300 -0.8497  0.7455
  104OSM    C7S10576   3.336   2.823   9.756 -0.3335  0.4844  0.7604
  104OSM    H7S10577   3.391   2.919   9.749 -2.4091  1.6354 -0.7919
  104OSM    H7T10578   3.250   2.833   9.826 -3.1663 -3.3924 -1.7069
  104OSM    C8S10579   3.284   2.819   9.606 -0.0005  1.0626 -0.3383
  104OSM    H8S10580   3.206   2.898   9.601  0.4459  1.5673  0.4452
  104OSM    H8T10581   3.216   2.733   9.590 -0.2362  1.4783 -1.6996
  104OSM    C9S10582   3.398   2.825   9.501  0.1657 -0.5638  0.4168
  104OSM    H9S10583   3.421   2.717   9.496  2.8105 -0.1254  1.7345
  104OSM    H9T10584   3.486   2.886   9.529 -1.3759  1.6478  0.7454
  104OSM   C10S10585   3.335   2.880   9.372 -0.0602  0.0253 -0.1755
  104OSM   H10S10586   3.286   2.978   9.392 -0.7836 -0.3416 -0.1452
  104OSM   H10T10587   3.252   2.809   9.354 -1.0768  0.3866  2.6297
  104OSM   C11S10588   3.444   2.889   9.260 -0.0300 -0.3383 -0.3436
  104OSM   H11S10589   3.503   2.796   9.249  3.0717  1.3346  0.8559
  104OSM   H11T10590   3.519   2.961   9.297  0.3352 -0.7663 -0.2479
  104OSM   C12S10591   3.394   2.927   9.117 -0.1096 -0.1453  0.1131
  104OSM   H12S10592   3.466   2.892   9.039  0.4435  3.7734 -1.3700
  104OSM   H12T10593   3.387   3.037   9.102  1.2243 -0.0970 -0.3137
  104OSM   C13S10594   3.258   2.870   9.082 -0.2122  0.0392  0.3263
  104OSM   H13S10595   3.175   2.898   9.150 -0.1099 -1.3735  1.0809
  104OSM   H13T10596   3.272   2.760   9.091  0.9627  0.0047 -1.5013
  104OSM   C14S10597   3.225   2.893   8.936 -0.2829  0.8362 -0.7518
  104OSM   H14S10598   3.300   2.852   8.865  0.6188 -1.0103  1.1903
  104OSM   H14T10599   3.242   3.003   8.930  1.2570  0.6150 -0.8007
  104OSM   C15S10600   3.081   2.869   8.899  0.3965  0.3963 -0.6648
  104OSM   H15S10601   3.005   2.936   8.944  0.7988 -0.1542  0.8773
  104OSM   H15T10602   3.040   2.769   8.926  3.4710 -0.7044  0.4124
  104OSM   C16S10603   3.057   2.884   8.745 -0.2062 -0.3930  0.3179
  104OSM   H16S10604   3.118   2.810   8.688 -0.9628 -1.6058  1.0267
  104OSM   H16T10605   3.092   2.979   8.699  0.2419  0.0559  1.5646
  104OSM   C17S10606   2.910   2.866   8.704 -0.0335  0.3421  0.1349
  104OSM   H17S10607   2.845   2.926   8.771 -1.2073  0.7902 -1.3600
  104OSM   H17T10608   2.893   2.762   8.738  1.1431 -0.8845 -2.6989
  104OSM   C18S10609   2.888   2.873   8.554 -0.2117 -1.1098 -0.5193
  104OSM   H18S10610   2.966   2.813   8.502  0.9000  0.9245 -1.3049
  104OSM   H18T10611   2.907   2.980   8.530 -0.0607 -0.8903  0.5214
  104OSM   H18U10612   2.786   2.846   8.520 -0.6179 -1.0613  0.6255
  104OSM    C1F10613   3.381   3.061  10.268  1.1083 -0.4209  0.5696
  104OSM     OF10614   3.494   3.087  10.306 -0.3555  0.1203  0.2963
  104OSM    C2F10615   3.277   3.159  10.265 -0.3578 -0.2933  0.0215
  104OSM    H2F10616   3.271   3.206  10.365 -2.3153 -1.1501  0.3725
  104OSM    H2G10617   3.176   3.113  10.254 -0.1406 -1.0748  1.1863
  104OSM    C3F10618   3.309   3.270  10.163  0.1057 -0.1004  0.1807
  104OSM    H3F10619   3.409   3.314  10.185  0.1924 -1.6339  3.4805
  104OSM    H3G10620   3.239   3.355  10.180  0.8305  0.1943  1.9569
  104OSM    C4F10621   3.295   3.221  10.017 -0.9344 -0.1338  0.2238
  104OSM    H4F10622   3.185   3.228  10.001 -0.5887 -0.7425 -2.9352
  104OSM    H4G10623   3.320   3.113  10.007 -1.4744 -0.3592  1.1116
  104OSM    C5F10624   3.367   3.301   9.911  0.1547  0.0608 -0.6689
  104OSM    H5F10625   3.473   3.271   9.896  0.8444  2.5247 -1.3036
  104OSM    H5G10626   3.359   3.410   9.935  0.5868 -0.5162  2.4829
  104OSM    C6F10627   3.296   3.279   9.771 -0.8606 -0.3146  0.1023
  104OSM    H6F10628   3.191   3.316   9.770 -0.3166  1.5992  2.9523
  104OSM    H6G10629   3.285   3.169   9.757  0.3122 -0.3577 -0.5660
  104OSM    C7F10630   3.380   3.339   9.662  0.1069  0.0095 -0.7188
  104OSM    H7F10631   3.485   3.323   9.695 -0.4548  0.6570  1.5696
  104OSM    H7G10632   3.376   3.450   9.659  1.6941  0.1288  0.1036
  104OSM    C8F10633   3.346   3.268   9.532 -0.1873  0.1522  0.3161
  104OSM    H8F10634   3.238   3.279   9.511 -0.3363 -1.0395  0.3544
  104OSM    H8G10635   3.374   3.161   9.542  1.5662  0.3224 -1.8494
  104OSM    C9F10636   3.437   3.336   9.425  0.2539  1.0044 -0.3959
  104OSM    H9F10637   3.539   3.347   9.465 -0.0191  2.3854 -0.0164
  104OSM   C10F10638   3.406   3.367   9.296 -0.2707 -0.4298  0.3728
  104OSM   H10F10639   3.481   3.416   9.232 -0.4086 -1.1630 -0.3523
  104OSM   C11F10640   3.270   3.342   9.236  0.3704 -0.0649 -0.6086
  104OSM   H11F10641   3.198   3.418   9.272  1.3808  0.0352  1.3318
  104OSM   H11G10642   3.238   3.238   9.258  1.0631  0.0784  1.2410
  104OSM   C12F10643   3.265   3.342   9.085  0.0216  0.0800 -0.5482
  104OSM   H12F10644   3.348   3.277   9.049  0.2489 -0.9549  1.6598
  104OSM   H12G10645   3.288   3.448   9.061  2.0811 -0.0659  0.5125
  104OSM   C13F10646   3.136   3.301   9.024  0.4535 -0.9267 -0.6520
  104OSM   H13F10647   3.058   3.364   9.069  2.4477  2.4334 -1.5528
  104OSM   H13G10648   3.138   3.193   9.052  4.2258 -0.5973  0.9142
  104OSM   C14F10649   3.124   3.326   8.873 -0.7960  0.5893 -0.1653
  104OSM   H14F10650   3.023   3.297   8.839 -1.7075  2.7813  0.5169
  104OSM   H14G10651   3.201   3.265   8.820 -0.2688  0.0698  1.1532
  104OSM   C15F10652   3.107   3.472   8.837  0.4562  0.0824 -1.0960
  104OSM   H15F10653   3.202   3.524   8.863  1.3030 -0.4316 -3.0122
  104OSM   H15G10654   3.020   3.515   8.892  0.6373  0.0913 -0.8101
  104OSM   C16F10655   3.080   3.476   8.684  0.0026 -0.2186  0.3376
  104OSM   H16F10656   2.989   3.533   8.657  1.1895  1.3063 -0.6097
  104OSM   H16G10657   3.053   3.372   8.654 -2.1822  0.2244  0.6029
  104OSM   C17F10658   3.204   3.523   8.610 -1.1810 -0.1036 -0.4741
  104OSM   H17F10659   3.284   3.447   8.623  1.5586  2.4294 -1.1701
  104OSM   H17G10660   3.241   3.620   8.651  2.2212 -0.6358 -1.9209
  104OSM   C18F10661   3.175   3.536   8.458 -0.1432 -0.1338 -0.8695
  104OSM   H18F10662   3.137   3.439   8.419 -1.1793 -0.3911  0.6609
  104OSM   H18G10663   3.269   3.569   8.410  0.8329  0.7109  1.4472
  104OSM   H18H10664   3.096   3.610   8.433  0.5780  0.2796 -1.9814
  105OSM      N10665   3.485   1.999  10.874 -0.4135  0.6823 -0.2806
  105OSM    C1510666   3.460   1.863  10.933 -0.1519 -0.4387 -0.4527
  105OSM   H15A10667   3.434   1.882  11.037 -0.4464  2.4568 -0.9741
  105OSM   H15B10668   3.553   1.807  10.933 -0.4081 -0.8817  0.1034
  105OSM   H15C10669   3.381   1.818  10.875 -0.7572  0.1835 -0.1222
  105OSM    C1410670   3.600   2.056  10.953 -0.6340  0.1171 -0.5501
  105OSM   H14A10671   3.693   2.003  10.938  1.4118  2.1581  3.2123
  105OSM   H14B10672   3.595   2.063  11.061  2.2563 -0.5710 -0.2652
  105OSM   H14C10673   3.613   2.161  10.932 -0.8551 -0.0270 -1.4355
  105OSM    C1310674   3.531   1.977  10.731 -0.8177  0.8942  0.2215
  105OSM   H13A10675   3.633   1.943  10.723 -0.4314  2.2104 -0.9452
  105OSM   H13B10676   3.538   2.072  10.680  4.7128  0.5292 -0.2894
  105OSM   H13C10677   3.473   1.903  10.677 -0.8096  0.8808  0.2319
  105OSM    C1210678   3.371   2.092  10.891  0.1499 -0.2774  0.0942
  105OSM   H12A10679   3.393   2.191  10.853 -2.2667 -0.3567 -1.7838
  105OSM   H12B10680   3.361   2.118  10.995 -0.2940 -1.3466  0.3261
  105OSM    C1110681   3.242   2.064  10.816  0.2626 -0.1821  0.6953
  105OSM   H11A10682   3.193   1.965  10.831 -0.1781  0.1225  1.3322
  105OSM   H11B10683   3.282   2.068  10.712  0.8665  2.0083  0.9679
  105OSM      P10684   3.073   2.262  10.753  0.6414 -0.4747 -0.5270
  105OSM    O1310685   2.928   2.244  10.760 -0.7025 -0.3298 -0.3063
  105OSM    O1410686   3.122   2.399  10.785 -0.3597 -0.3547 -0.0456
  105OSM    O1110687   3.118   2.216  10.612  0.1108 -0.6415  0.6742
  105OSM    O1210688   3.155   2.170  10.853 -0.2354  0.0813  0.3272
  105OSM    C1S10689   3.232   2.268  10.549 -0.4059  0.0513 -0.0056
  105OSM    H1S10690   3.315   2.206  10.589 -0.7890 -0.7833 -0.4767
  105OSM    H1T10691   3.254   2.375  10.571  0.9290 -0.3360  0.6640
  105OSM     NF10692   3.358   2.278  10.338  0.1895 -0.2947  0.5937
  105OSM    HNF10693   3.363   2.355  10.274  0.3379 -0.6482  0.1776
  105OSM    C2S10694   3.227   2.254  10.393  0.1146  0.0094  0.4572
  105OSM    H2S10695   3.213   2.145  10.374  0.7418  0.1523 -0.9085
  105OSM    C3S10696   3.115   2.338  10.322 -0.0009 -0.3429  0.5355
  105OSM    H3S10697   3.134   2.447  10.333  0.0879 -0.0513 -2.0564
  105OSM     O310698   2.989   2.325  10.378  0.3815 -0.3242 -0.3914
  105OSM    HO310699   3.003   2.269  10.454  2.3528 -0.3358 -0.7173
  105OSM    C4S10700   3.117   2.297  10.172  0.3885 -0.7474 -0.0844
  105OSM    H4S10701   3.152   2.195  10.149  1.1340 -0.6858  0.7068
  105OSM    C5S10702   3.085   2.378  10.066 -0.2063  0.3019 -0.3981
  105OSM    H5S10703   3.046   2.478  10.089 -1.2121 -0.5202  1.8272
  105OSM    C6S10704   3.087   2.329   9.923 -0.3539 -0.5876  0.3080
  105OSM    H6S10705   2.986   2.340   9.880  0.6081 -0.0069 -1.9649
  105OSM    H6T10706   3.115   2.223   9.905 -3.0283 -0.9948 -2.1084
  105OSM    C7S10707   3.168   2.412   9.820 -0.0501 -0.0275  0.8042
  105OSM    H7S10708   3.271   2.395   9.858  1.3319  0.5490 -2.3857
  105OSM    H7T10709   3.143   2.520   9.832  1.7429  0.1971  3.1001
  105OSM    C8S10710   3.127   2.358   9.679 -0.4343 -0.1069 -0.2214
  105OSM    H8S10711   3.016   2.350   9.679 -0.5490  0.6061  1.9146
  105OSM    H8T10712   3.169   2.257   9.664  2.7690  0.9914  0.4899
  105OSM    C9S10713   3.182   2.426   9.557  0.5860 -0.4577  0.1547
  105OSM    H9S10714   3.290   2.402   9.543  0.3684 -0.6772 -1.3518
  105OSM    H9T10715   3.181   2.537   9.559  1.2846 -0.3859 -1.7632
  105OSM   C10S10716   3.118   2.370   9.424 -0.4495  0.0808  0.7809
  105OSM   H10S10717   3.008   2.387   9.420 -0.3548  0.6566  0.4640
  105OSM   H10T10718   3.126   2.259   9.417  1.6459  0.2596 -0.6917
  105OSM   C11S10719   3.189   2.434   9.308  0.3326 -0.1873 -0.1789
  105OSM   H11S10720   3.293   2.396   9.320 -0.2831 -1.3872  1.9758
  105OSM   H11T10721   3.187   2.545   9.312 -2.3530 -0.1952  1.6670
  105OSM   C12S10722   3.142   2.391   9.166  0.1144 -0.2253 -0.8003
  105OSM   H12S10723   3.031   2.395   9.164  0.0955 -0.4800 -0.4682
  105OSM   H12T10724   3.179   2.286   9.154  0.8324  0.2065 -2.6409
  105OSM   C13S10725   3.198   2.481   9.055 -0.4121 -0.1255  0.4649
  105OSM   H13S10726   3.309   2.478   9.059 -0.4047  1.1567  1.5254
  105OSM   H13T10727   3.170   2.586   9.076  1.2770  0.4668 -0.0864
  105OSM   C14S10728   3.155   2.426   8.916  0.5972 -0.1973  0.2086
  105OSM   H14S10729   3.046   2.445   8.901  0.2513 -2.0983 -0.0062
  105OSM   H14T10730   3.164   2.316   8.934  0.1923  0.0932  2.5034
  105OSM   C15S10731   3.209   2.487   8.791 -0.0971 -0.1402  0.8363
  105OSM   H15S10732   3.315   2.456   8.779  0.0632  0.0699  1.6486
  105OSM   H15T10733   3.198   2.597   8.803 -1.2955 -0.3082  1.4661
  105OSM   C16S10734   3.137   2.425   8.673 -0.1833  0.5498  0.6119
  105OSM   H16S10735   3.121   2.315   8.677 -1.2535  0.7380  2.9176
  105OSM   H16T10736   3.200   2.457   8.587 -0.3135  0.5526  0.5182
  105OSM   C17S10737   2.997   2.483   8.640  0.3450 -0.3350  0.2406
  105OSM   H17S10738   3.002   2.594   8.638 -1.8466 -0.1756 -2.0460
  105OSM   H17T10739   2.922   2.463   8.719  0.2131  0.5840  0.3579
  105OSM   C18S10740   2.946   2.435   8.502 -0.5270 -0.0234  0.6413
  105OSM   H18S10741   2.893   2.338   8.514  3.1227 -2.0962  1.7701
  105OSM   H18T10742   3.022   2.421   8.422 -1.3765  2.2645 -0.6704
  105OSM   H18U10743   2.871   2.496   8.447 -0.7651 -0.1836  0.7821
  105OSM    C1F10744   3.462   2.201  10.364 -0.1380 -0.1346 -0.2346
  105OSM     OF10745   3.447   2.091  10.422 -0.2135 -0.7824  0.1583
  105OSM    C2F10746   3.604   2.244  10.336 -0.1595 -0.9448 -0.0777
  105OSM    H2F10747   3.654   2.250  10.435  0.5634 -1.2158 -0.4154
  105OSM    H2G10748   3.591   2.348  10.299  2.4390 -0.7881 -0.7874
  105OSM    C3F10749   3.667   2.156  10.229  0.1530 -0.2107 -0.0606
  105OSM    H3F10750   3.646   2.202  10.130  0.5064  0.0729 -0.0032
  105OSM    H3G10751   3.625   2.053  10.233  0.8380 -0.4583  1.2280
  105OSM    C4F10752   3.818   2.143  10.231  0.2813  0.8932  0.0107
  105OSM    H4F10753   3.847   2.140  10.338  0.3305  0.2460 -0.0153
  105OSM    H4G10754   3.869   2.224  10.175 -0.1825 -0.7716 -3.0629
  105OSM    C5F10755   3.859   2.000  10.167  0.0061  0.1532 -1.3469
  105OSM    H5F10756   3.822   1.917  10.231 -0.3117  1.1671 -0.1621
  105OSM    H5G10757   3.970   1.999  10.168  0.0319 -0.2846  0.8722
  105OSM    C6F10758   3.794   2.002  10.030  0.1059 -0.7824 -0.1335
  105OSM    H6F10759   3.779   2.105   9.990 -3.3451 -0.7256  0.9779
  105OSM    H6G10760   3.696   1.950  10.041 -0.4994  0.0870 -1.2287
  105OSM    C7F10761   3.877   1.914   9.931  0.7932 -0.3816 -0.2819
  105OSM    H7F10762   3.888   1.814   9.979  1.0304 -1.7215 -2.9590
  105OSM    H7G10763   3.979   1.958   9.921  1.1917 -1.5239 -1.6306
  105OSM    C8F10764   3.819   1.902   9.788  0.3535  0.1122 -0.4616
  105OSM    H8F10765   3.789   2.005   9.760 -0.2169  0.4347  1.2121
  105OSM    H8G10766   3.728   1.839   9.786  1.6410 -1.8735  0.7809
  105OSM    C9F10767   3.923   1.838   9.698  0.1382 -0.2444 -0.8032
  105OSM    H9F10768   3.959   1.742   9.738  0.3888  0.6678  1.2527
  105OSM   C10F10769   3.986   1.898   9.594 -0.3166  0.2356  0.1358
  105OSM   H10F10770   4.046   1.833   9.529  1.4015 -0.6308  2.4211
  105OSM   C11F10771   3.959   2.034   9.543 -0.0482 -0.1302  0.4469
  105OSM   H11F10772   4.055   2.084   9.519 -0.4140  1.5138  2.1313
  105OSM   H11G10773   3.923   2.102   9.623  1.9361  0.3892  0.9304
  105OSM   C12F10774   3.861   2.030   9.425 -0.3036  0.1759 -0.0129
  105OSM   H12F10775   3.841   2.135   9.395  3.3800  0.8054 -0.7315
  105OSM   H12G10776   3.770   1.980   9.465  1.5663 -2.7763  0.8840
  105OSM   C13F10777   3.927   1.961   9.306  0.3603 -0.0695  0.3200
  105OSM   H13F10778   3.956   1.857   9.331  1.4712 -0.1169 -1.0286
  105OSM   H13G10779   4.016   2.022   9.277 -1.6653  2.2785 -1.3439
  105OSM   C14F10780   3.837   1.951   9.177 -0.3629 -0.3990 -0.0191
  105OSM   H14F10781   3.777   2.044   9.179  0.9700  0.4917 -0.3109
  105OSM   H14G10782   3.766   1.869   9.198 -1.8028  0.7626 -0.2342
  105OSM   C15F10783   3.909   1.933   9.041  0.5497  0.5050  0.4046
  105OSM   H15F10784   3.962   1.836   9.050 -0.7792 -0.1967  0.9212
  105OSM   H15G10785   3.981   2.017   9.036 -0.8908  1.8924  1.9485
  105OSM   C16F10786   3.809   1.912   8.923  0.6401  0.6508 -0.2250
  105OSM   H16F10787   3.757   2.006   8.897 -1.5204 -0.5669 -0.5398
  105OSM   H16G10788   3.731   1.844   8.963  1.6531  0.5059  1.6283
  105OSM   C17F10789   3.854   1.842   8.797  0.1248  0.0274  0.4565
  105OSM   H17F10790   3.770   1.825   8.726  0.9780 -3.1830  0.0692
  105OSM   H17G10791   3.904   1.751   8.834  2.1266  0.6902 -0.4777
  105OSM   C18F10792   3.950   1.927   8.713 -0.0608  0.8230 -0.6023
  105OSM   H18F10793   4.040   1.949   8.773 -1.9097  1.0360  2.3192
  105OSM   H18G10794   3.912   2.029   8.690  1.4639  1.6366  0.3433
  105OSM   H18H10795   3.992   1.874   8.626  1.9217  1.9249 -0.3662
  106OSM      N10796   3.724   0.464  10.974  0.5744  0.7400 -0.0657
  106OSM    C1510797   3.833   0.366  10.933 -0.7892  0.2802 -0.1952
  106OSM   H15A10798   3.837   0.369  10.825  0.0129 -0.0823 -0.1838
  106OSM   H15B10799   3.809   0.270  10.976 -0.9113  0.4408  0.0985
  106OSM   H15C10800   3.934   0.381  10.968  1.3149 -2.9115 -4.0247
  106OSM    C1410801   3.698   0.453  11.122  0.8931  0.9261 -0.8830
  106OSM   H14A10802   3.657   0.355  11.145 -2.0507  2.0126 -1.0595
  106OSM   H14B10803   3.616   0.519  11.145 -0.1387 -0.7586  0.5369
  106OSM   H14C10804   3.790   0.460  11.178 -0.1386 -0.9824  1.2002
  106OSM    C1310805   3.771   0.598  10.939  1.0798 -0.4673  0.2379
  106OSM   H13A10806   3.692   0.669  10.960  1.5893 -0.8174  3.9175
  106OSM   H13B10807   3.805   0.614  10.838  1.3061 -0.9891  0.2310
  106OSM   H13C10808   3.853   0.624  11.004  0.5082  1.0863  0.3895
  106OSM    C1210809   3.602   0.423  10.896 -0.7426 -0.6424  0.1072
  106OSM   H12A10810   3.586   0.321  10.929  0.6038  0.3272  4.3723
  106OSM   H12B10811   3.634   0.430  10.793 -0.0741  2.3554  0.4566
  106OSM    C1110812   3.478   0.500  10.906  0.1087  0.7151 -0.3244
  106OSM   H11A10813   3.453   0.511  11.013  0.1340 -1.5870 -0.0412
  106OSM   H11B10814   3.396   0.448  10.852 -1.6144  2.9148  0.0454
  106OSM      P10815   3.460   0.667  10.699 -0.2706 -0.2489 -0.2476
  106OSM    O1310816   3.317   0.653  10.681 -0.1100  0.3341 -0.4860
  106OSM    O1410817   3.524   0.798  10.686  0.0852  0.3314 -0.2781
  106OSM    O1110818   3.528   0.558  10.600 -0.5375 -0.2849 -0.3570
  106OSM    O1210819   3.489   0.631  10.850  0.1824 -0.2995  0.2057
  106OSM    C1S10820   3.465   0.531  10.472 -0.0757  0.3155 -0.0166
  106OSM    H1S10821   3.487   0.617  10.405  0.0352  0.2330 -0.0855
  106OSM    H1T10822   3.356   0.522  10.492 -0.2129 -0.1205 -0.9088
  106OSM     NF10823   3.477   0.378  10.271  0.2918  0.2925  1.1045
  106OSM    HNF10824   3.415   0.304  10.245  1.0724  0.7147 -2.4523
  106OSM    C2S10825   3.521   0.397  10.411 -0.1377  0.4444  0.3706
  106OSM    H2S10826   3.632   0.407  10.413 -0.0690  0.4474  4.1507
  106OSM    C3S10827   3.490   0.269  10.496  0.5654 -0.2746 -0.6895
  106OSM    H3S10828   3.382   0.249  10.481  0.9784 -1.7639 -1.8954
  106OSM     O310829   3.520   0.298  10.633 -0.1463 -0.1379 -0.4372
  106OSM    HO310830   3.496   0.391  10.631 -1.3540 -0.4285  0.0410
  106OSM    C4S10831   3.569   0.152  10.450 -0.1359  1.1583  0.0124
  106OSM    H4S10832   3.678   0.163  10.455 -0.0479 -0.1093  2.4085
  106OSM    C5S10833   3.526   0.032  10.394 -0.5991 -0.4068  0.0955
  106OSM    H5S10834   3.417   0.019  10.390 -0.4801 -1.1561 -1.1800
  106OSM    C6S10835   3.600  -0.084  10.341  0.1544 -0.3891  0.2476
  106OSM    H6S10836   3.569  -0.104  10.236  0.8819 -2.9112  0.4397
  106OSM    H6T10837   3.583  -0.169  10.411  0.2988  1.1124  2.1803
  106OSM    C7S10838   3.753  -0.066  10.322  0.0135 -0.0092  0.0173
  106OSM    H7S10839   3.804  -0.048  10.419 -0.3435 -1.6631  0.5535
  106OSM    H7T10840   3.780   0.023  10.262  0.0526 -0.9983 -1.5050
  106OSM    C8S10841   3.833  -0.194  10.275  0.6386 -0.5327  0.0005
  106OSM    H8S10842   3.807  -0.273  10.349  0.7673 -0.7456 -0.1832
  106OSM    H8T10843   3.944  -0.184  10.280  0.4141  3.4274  0.3686
  106OSM    C9S10844   3.790  -0.240  10.139 -0.4525  0.6677  0.3029
  106OSM    H9S10845   3.682  -0.254  10.116 -0.6456  2.8182 -0.3676
  106OSM    H9T10846   3.839  -0.339  10.128 -1.9276 -0.3307  2.1022
  106OSM   C10S10847   3.842  -0.148  10.027  0.2010 -0.0976  0.5534
  106OSM   H10S10848   3.951  -0.142  10.047  0.4347  0.1731 -0.6721
  106OSM   H10T10849   3.795  -0.048  10.037 -0.4213 -0.3790  0.4535
  106OSM   C11S10850   3.826  -0.216   9.891 -0.2875 -0.2675  0.2189
  106OSM   H11S10851   3.721  -0.250   9.878 -1.2537  2.6094 -0.3806
  106OSM   H11T10852   3.894  -0.303   9.880  1.0597  0.7929 -0.0961
  106OSM   C12S10853   3.877  -0.101   9.788  0.0361 -0.1000 -0.2346
  106OSM   H12S10854   3.983  -0.086   9.821 -0.2641 -0.4734  0.9471
  106OSM   H12T10855   3.811  -0.013   9.800  0.6771  0.3197  0.3356
  106OSM   C13S10856   3.874  -0.137   9.636 -0.3456  0.2020 -0.4226
  106OSM   H13S10857   3.778  -0.180   9.603  0.5478 -1.9108 -0.4316
  106OSM   H13T10858   3.943  -0.222   9.613  0.5297  0.9606 -0.6907
  106OSM   C14S10859   3.916  -0.020   9.553  0.3020  0.0854  0.3429
  106OSM   H14S10860   4.017   0.008   9.589 -0.3149 -0.1224  2.3255
  106OSM   H14T10861   3.850   0.066   9.577  0.3826 -0.4299  2.6025
  106OSM   C15S10862   3.925  -0.062   9.404  0.3916 -0.6388  0.1194
  106OSM   H15S10863   3.829  -0.109   9.375  0.3863 -0.5123 -0.0634
  106OSM   H15T10864   4.000  -0.141   9.381  0.5734 -0.4926  0.2017
  106OSM   C16S10865   3.944   0.056   9.304 -0.1293 -0.2644 -0.5002
  106OSM   H16S10866   4.042   0.100   9.332 -0.5262  1.4863 -1.7289
  106OSM   H16T10867   3.866   0.135   9.318 -0.7758 -0.8764 -0.5932
  106OSM   C17S10868   3.932   0.023   9.158  0.4355  0.1220  0.1163
  106OSM   H17S10869   3.828   0.004   9.125  1.9712 -0.4097 -5.5533
  106OSM   H17T10870   3.977  -0.078   9.148 -0.9421 -0.4964 -0.0143
  106OSM   C18S10871   3.979   0.129   9.058 -0.0012 -0.0986  0.3381
  106OSM   H18S10872   4.088   0.148   9.068  0.1764 -0.5993 -0.5644
  106OSM   H18T10873   3.926   0.227   9.061  0.2864  0.1039 -0.7390
  106OSM   H18U10874   3.967   0.094   8.953  0.6328  0.4232  0.0793
  106OSM    C1F10875   3.500   0.468  10.174 -0.0421 -0.2027 -0.2369
  106OSM     OF10876   3.567   0.565  10.196  0.0302  0.3032 -0.7879
  106OSM    C2F10877   3.429   0.446  10.041 -0.3231  0.1663 -0.1200
  106OSM    H2F10878   3.320   0.444  10.058 -0.4481  1.6063 -0.5906
  106OSM    H2G10879   3.460   0.341  10.024  0.0711  0.0235  1.3773
  106OSM    C3F10880   3.477   0.555   9.940 -0.2437  0.3500 -0.0664
  106OSM    H3F10881   3.587   0.569   9.952 -0.0033  0.8476 -2.3554
  106OSM    H3G10882   3.434   0.656   9.958  1.1524  1.3882 -2.1776
  106OSM    C4F10883   3.461   0.507   9.799  0.2045 -0.2482  0.0792
  106OSM    H4F10884   3.360   0.463   9.786  0.6319 -0.9930 -0.8963
  106OSM    H4G10885   3.528   0.423   9.770 -1.2375 -2.0658  1.7257
  106OSM    C5F10886   3.478   0.625   9.704 -0.4524  0.0431  0.5240
  106OSM    H5F10887   3.569   0.684   9.727  0.2222 -0.8674  0.2325
  106OSM    H5G10888   3.389   0.691   9.709  1.7819  3.4038 -0.8033
  106OSM    C6F10889   3.474   0.566   9.559  0.0227 -0.2875  0.7672
  106OSM    H6F10890   3.399   0.484   9.551 -0.8488  0.6362 -0.8462
  106OSM    H6G10891   3.570   0.512   9.544 -0.0578 -0.3761  0.5675
  106OSM    C7F10892   3.438   0.669   9.450  0.0831 -0.3451 -0.2903
  106OSM    H7F10893   3.513   0.749   9.469 -0.0337 -0.4118  0.5024
  106OSM    H7G10894   3.333   0.700   9.466  0.5528  1.4089 -0.4985
  106OSM    C8F10895   3.466   0.620   9.312  0.0425 -0.0695  0.6523
  106OSM    H8F10896   3.544   0.542   9.302 -0.2171 -0.4182  1.2699
  106OSM    H8G10897   3.497   0.709   9.254  1.4419 -0.8090  0.2216
  106OSM    C9F10898   3.335   0.556   9.260  0.2056 -0.2670 -0.1601
  106OSM    H9F10899   3.282   0.494   9.333  1.5864 -1.9378 -0.5172
  106OSM   C10F10900   3.279   0.573   9.141  0.2558 -0.4182 -0.5839
  106OSM   H10F10901   3.194   0.516   9.101  2.5805 -2.7143 -2.6229
  106OSM   C11F10902   3.330   0.662   9.027  0.5842  0.0372 -0.6544
  106OSM   H11F10903   3.408   0.739   9.048  0.8055  0.4133 -2.6939
  106OSM   H11G10904   3.244   0.719   8.986  0.8209 -0.1994 -1.4997
  106OSM   C12F10905   3.379   0.572   8.906 -0.2625  0.4996 -0.3306
  106OSM   H12F10906   3.304   0.519   8.843 -1.1563 -0.5177  1.5067
  106OSM   H12G10907   3.428   0.479   8.943 -1.8473 -0.2234  0.0430
  106OSM   C13F10908   3.462   0.658   8.803 -0.0451  0.0953  0.5191
  106OSM   H13F10909   3.547   0.699   8.861 -1.3774  1.5142  1.5379
  106OSM   H13G10910   3.407   0.746   8.763 -1.8361 -1.0481  0.3641
  106OSM   C14F10911   3.501   0.566   8.684 -0.0584 -0.3477 -0.5881
  106OSM   H14F10912   3.410   0.510   8.654 -0.2965  0.1014 -0.7117
  106OSM   H14G10913   3.577   0.490   8.713  0.5914  0.4270 -0.2204
  106OSM   C15F10914   3.552   0.647   8.562  0.4469  0.0407  0.6968
  106OSM   H15F10915   3.482   0.729   8.535  1.0725  0.1183 -0.7740
  106OSM   H15G10916   3.567   0.571   8.482  1.4167 -0.1092  1.0128
  106OSM   C16F10917   3.675   0.729   8.595  0.0509  0.0004  1.1774
  106OSM   H16F10918   3.741   0.655   8.647 -0.9259 -3.5141 -2.1738
  106OSM   H16G10919   3.663   0.816   8.662 -0.5331 -0.7557  2.0870
  106OSM   C17F10920   3.742   0.780   8.471 -0.0385  0.3318  0.5637
  106OSM   H17F10921   3.708   0.882   8.445 -1.6819 -0.5642 -1.0384
  106OSM   H17G10922   3.718   0.707   8.390 -1.1570  0.6954  0.5558
  106OSM   C18F10923   3.891   0.784   8.484  0.0486 -1.0348 -0.4144
  106OSM   H18F10924   3.918   0.683   8.522  0.1444 -0.6256  0.6366
  106OSM   H18G10925   3.923   0.860   8.559  2.1368 -0.6381 -1.6259
  106OSM   H18H10926   3.950   0.814   8.394  2.4434  0.6810  1.5702
  107OSM      N10927   4.283   5.941  10.554 -0.2889 -0.4115 -0.2024
  107OSM    C1510928   4.374   5.828  10.541 -0.0486  0.3030  0.4598
  107OSM   H15A10929   4.323   5.740  10.576 -1.1337 -0.8763 -3.5999
  107OSM   H15B10930   4.467   5.840  10.594  0.5799  0.4189 -0.6330
  107OSM   H15C10931   4.413   5.812  10.442 -1.1031  0.1661  0.0536
  107OSM    C1410932   4.344   6.056  10.478  0.3153 -0.2557 -0.2028
  107OSM   H14A10933   4.430   6.096  10.528  1.5251 -0.8702 -1.7020
  107OSM   H14B10934   4.273   6.137  10.482 -0.7612 -1.1824  0.1451
  107OSM   H14C10935   4.377   6.033  10.378 -0.8444 -0.0111 -0.6597
  107OSM    C1310936   4.155   5.897  10.494  0.0023 -0.3904  0.6159
  107OSM   H13A10937   4.084   5.978  10.484  0.5513 -0.0072 -0.3245
  107OSM   H13B10938   4.105   5.828  10.560  1.4170 -1.7996  0.2943
  107OSM   H13C10939   4.172   5.848  10.399 -1.6668  0.8209 -0.3542
  107OSM    C1210940   4.264   5.975  10.700  0.2827  0.1657  0.4031
  107OSM   H12A10941   4.183   6.045  10.709 -0.0553 -0.1674 -0.0236
  107OSM   H12B10942   4.353   6.024  10.736  0.8998  0.9713 -1.9880
  107OSM    C1110943   4.250   5.858  10.798 -0.1684  0.1545  0.5014
  107OSM   H11A10944   4.246   5.905  10.898  1.2329 -1.9854  1.6266
  107OSM   H11B10945   4.341   5.794  10.793  0.4409  0.9840  0.5987
  107OSM      P10946   4.133   5.625  10.804 -0.5052 -0.2005 -0.3704
  107OSM    O1310947   4.199   5.604  10.936 -0.2377 -0.2488  0.5516
  107OSM    O1410948   3.995   5.563  10.791 -0.2819  0.1613 -0.5909
  107OSM    O1110949   4.235   5.581  10.695  0.6444  0.4866 -0.0217
  107OSM    O1210950   4.128   5.788  10.779  0.8296 -0.1810  0.0452
  107OSM    C1S10951   4.185   5.538  10.561  0.5392 -0.3545 -0.2150
  107OSM    H1S10952   4.150   5.627  10.505 -0.1960 -0.5474 -0.0631
  107OSM    H1T10953   4.094   5.475  10.568  0.8668 -0.8726 -0.5151
  107OSM     NF10954   4.264   5.449  10.346 -0.2423  1.1005  0.5993
  107OSM    HNF10955   4.238   5.355  10.325  0.9920  0.6969  0.7883
  107OSM    C2S10956   4.302   5.468  10.484 -0.1976 -0.4348  0.1052
  107OSM    H2S10957   4.393   5.531  10.497 -1.2018  0.9955  0.4589
  107OSM    C3S10958   4.341   5.331  10.554  0.3116  0.0646  0.4993
  107OSM    H3S10959   4.263   5.254  10.536  0.1422  0.8020 -2.3954
  107OSM     O310960   4.348   5.336  10.701  0.1379 -0.3473 -0.3965
  107OSM    HO310961   4.309   5.420  10.725 -1.7332 -0.5615 -2.3942
  107OSM    C4S10962   4.470   5.276  10.489  0.1369 -0.7618  0.3363
  107OSM    H4S10963   4.451   5.223  10.394  0.7316  2.6889 -1.8579
  107OSM    C5S10964   4.601   5.295  10.525  0.3065  1.0268 -0.1841
  107OSM    H5S10965   4.622   5.357  10.614  0.3912 -0.9097  1.2000
  107OSM    C6S10966   4.711   5.222  10.455  0.1107 -0.2106 -0.5176
  107OSM    H6S10967   4.757   5.153  10.529  0.5364 -0.4967 -1.0426
  107OSM    H6T10968   4.793   5.294  10.434  0.3731 -0.3320  0.0751
  107OSM    C7S10969   4.681   5.148  10.323  0.5466 -0.3121 -0.4233
  107OSM    H7S10970   4.632   5.210  10.245  2.2748  0.0843 -1.2271
  107OSM    H7T10971   4.615   5.064  10.353  0.3472  0.3137  0.9977
  107OSM    C8S10972   4.807   5.097  10.243  0.8432 -0.0584 -0.2555
  107OSM    H8S10973   4.869   5.035  10.310  0.6657  2.4222  2.3875
  107OSM    H8T10974   4.869   5.185  10.215 -2.5709  2.3551 -0.9992
  107OSM    C9S10975   4.766   5.006  10.127 -0.0485 -0.0042 -0.2943
  107OSM    H9S10976   4.713   5.060  10.045  2.3546  0.9812 -1.2976
  107OSM    H9T10977   4.697   4.927  10.163 -0.2910  0.1993 -0.3100
  107OSM   C10S10978   4.889   4.931  10.064 -0.1107  0.2206  0.0068
  107OSM   H10S10979   4.956   4.887  10.141 -2.9908  0.9394  3.1499
  107OSM   H10T10980   4.950   4.996   9.996  0.8518 -1.0419 -0.3774
  107OSM   C11S10981   4.846   4.828   9.957  0.1498 -0.0796  0.8740
  107OSM   H11S10982   4.807   4.892   9.875  1.0921  0.4919  0.8686
  107OSM   H11T10983   4.760   4.765   9.989 -2.6963  1.9845 -1.9985
  107OSM   C12S10984   4.954   4.732   9.908  0.0902  0.2923  0.2277
  107OSM   H12S10985   4.908   4.669   9.829 -0.6889  0.2932  0.6690
  107OSM   H12T10986   4.979   4.680  10.002  1.5443  2.0846  0.9038
  107OSM   C13S10987   5.068   4.805   9.845 -0.3703  0.1763  0.8152
  107OSM   H13S10988   5.149   4.733   9.822 -1.3634 -1.1190  1.2759
  107OSM   H13T10989   5.104   4.876   9.923 -1.1964  0.3461  1.0524
  107OSM   C14S10990   5.046   4.888   9.716 -0.8321  0.6801  0.3874
  107OSM   H14S10991   4.978   4.972   9.742 -1.1729  0.8749 -1.0639
  107OSM   H14T10992   4.999   4.834   9.631 -1.3687  1.6826  0.0289
  107OSM   C15S10993   5.174   4.961   9.669 -0.1136 -0.3357 -0.2222
  107OSM   H15S10994   5.258   4.888   9.667  1.1359  0.9920  1.0580
  107OSM   H15T10995   5.210   5.031   9.748  1.8228 -2.1930  0.6618
  107OSM   C16S10996   5.149   5.034   9.538 -0.5280  0.1632 -0.3308
  107OSM   H16S10997   5.056   5.095   9.550 -1.4553 -1.4923  1.3754
  107OSM   H16T10998   5.127   4.961   9.456 -0.8438 -0.6076  0.4294
  107OSM   C17S10999   5.269   5.117   9.500 -0.1100  0.8179 -0.4690
  107OSM   H17S11000   5.364   5.059   9.496  0.2136  1.3839 -1.5624
  107OSM   H17T11001   5.283   5.204   9.566 -1.3987  0.2357  0.6139
  107OSM   C18S11002   5.244   5.183   9.366 -0.0658 -0.0367  0.4993
  107OSM   H18S11003   5.238   5.107   9.285  1.5087 -0.6647  0.9263
  107OSM   H18T11004   5.329   5.250   9.339 -0.6286  0.3178 -0.4370
  107OSM   H18U11005   5.146   5.235   9.373 -0.2276  0.0120 -1.5384
  107OSM    C1F11006   4.233   5.546  10.261  0.2749 -0.0708 -0.2412
  107OSM     OF11007   4.265   5.661  10.284  0.1198 -0.4361  0.7048
  107OSM    C2F11008   4.161   5.508  10.134 -0.4213  0.1973  0.9570
  107OSM    H2F11009   4.100   5.591  10.094  0.1931  0.6350  0.9242
  107OSM    H2G11010   4.103   5.414  10.153 -1.2560 -0.1560 -2.7315
  107OSM    C3F11011   4.263   5.469  10.030  0.2392  0.1930 -0.1461
  107OSM    H3F11012   4.351   5.415  10.072  1.2731  1.8942 -0.0025
  107OSM    H3G11013   4.316   5.559   9.990 -0.7595 -0.5409 -3.4194
  107OSM    C4F11014   4.194   5.400   9.913 -0.2046 -0.2349  0.0617
  107OSM    H4F11015   4.110   5.467   9.885  0.6558  0.3218 -1.2417
  107OSM    H4G11016   4.145   5.304   9.943 -2.9080  1.0409  0.0617
  107OSM    C5F11017   4.290   5.380   9.797  0.4396  0.9210 -0.2323
  107OSM    H5F11018   4.369   5.313   9.838 -0.0272  0.4602 -0.0801
  107OSM    H5G11019   4.330   5.479   9.766 -0.5974  0.9550 -1.5390
  107OSM    C6F11020   4.221   5.302   9.678  0.0559 -0.0541 -0.7761
  107OSM    H6F11021   4.147   5.366   9.624 -0.8606 -0.3232  0.1271
  107OSM    H6G11022   4.186   5.204   9.716  0.7934 -0.3198 -0.7772
  107OSM    C7F11023   4.332   5.283   9.572 -0.5499  0.6743  0.0773
  107OSM    H7F11024   4.413   5.215   9.604 -2.4343 -1.1520  1.1828
  107OSM    H7G11025   4.374   5.385   9.556  1.5248 -0.0107  0.8219
  107OSM    C8F11026   4.271   5.218   9.451  0.5512 -0.0701  0.7432
  107OSM    H8F11027   4.201   5.132   9.463  0.4108 -0.4164 -1.9347
  107OSM    H8G11028   4.351   5.188   9.380 -0.8319  0.6305 -1.1899
  107OSM    C9F11029   4.186   5.318   9.371  0.5789  0.2758 -0.0328
  107OSM    H9F11030   4.096   5.356   9.422 -1.0840  0.2289 -2.7336
  107OSM   C10F11031   4.206   5.374   9.250  0.0909  0.4609  0.4588
  107OSM   H10F11032   4.138   5.455   9.222  0.3914  0.1073 -1.4924
  107OSM   C11F11033   4.320   5.350   9.159  0.4673  0.4517  0.0912
  107OSM   H11F11034   4.386   5.268   9.195  1.1503  1.8239  2.1262
  107OSM   H11G11035   4.392   5.434   9.149  0.1944  0.7640  0.6919
  107OSM   C12F11036   4.271   5.298   9.023 -0.7469  0.4645  0.3985
  107OSM   H12F11037   4.355   5.286   8.952 -0.7513  0.0100  0.4645
  107OSM   H12G11038   4.228   5.391   8.981  0.9051  0.1794 -2.1071
  107OSM   C13F11039   4.183   5.172   9.006  0.0912 -0.4138 -0.3989
  107OSM   H13F11040   4.081   5.175   9.049  0.6813 -0.7673  1.1070
  107OSM   H13G11041   4.235   5.092   9.063 -0.9931 -0.1629  0.9960
  107OSM   C14F11042   4.169   5.108   8.864  0.4243 -1.0267 -0.5495
  107OSM   H14F11043   4.097   5.023   8.866 -3.2135  1.8317  0.6035
  107OSM   H14G11044   4.269   5.072   8.831  0.6129 -0.7952 -0.2308
  107OSM   C15F11045   4.117   5.209   8.766 -0.5732  0.4209 -0.1005
  107OSM   H15F11046   4.192   5.290   8.758 -1.3818  1.1550 -0.5799
  107OSM   H15G11047   4.022   5.256   8.798 -0.0793  0.0290  2.0608
  107OSM   C16F11048   4.099   5.147   8.625 -1.0303 -0.4479  0.1951
  107OSM   H16F11049   4.014   5.076   8.632 -2.5543  1.4484  2.7409
  107OSM   H16G11050   4.185   5.081   8.599 -2.1405 -2.1718  0.7918
  107OSM   C17F11051   4.068   5.251   8.518 -0.2460  0.3151 -0.3331
  107OSM   H17F11052   4.002   5.323   8.570 -1.3697  0.3634 -1.7715
  107OSM   H17G11053   4.026   5.213   8.422 -0.0448 -0.6787 -0.0311
  107OSM   C18F11054   4.187   5.332   8.469 -0.5537  0.0387 -0.3129
  107OSM   H18F11055   4.239   5.392   8.546 -0.6516 -2.0338  1.4542
  107OSM   H18G11056   4.147   5.408   8.398 -0.4622 -0.7897 -1.2827
  107OSM   H18H11057   4.257   5.270   8.409 -0.7630 -0.9113  0.4170
  108OSM      N11058   2.229   2.438  11.103  0.0717 -0.1508  0.0254
  108OSM    C1511059   2.363   2.375  11.087 -0.0071  0.1097 -0.0545
  108OSM   H15A11060   2.369   2.332  10.989 -3.2254  1.2563 -0.8931
  108OSM   H15B11061   2.363   2.300  11.164  0.7885  1.0449  0.8896
  108OSM   H15C11062   2.436   2.453  11.103  0.2546 -0.5058  2.0582
  108OSM    C1411063   2.142   2.328  11.126 -0.1461  0.3618 -0.0276
  108OSM   H14A11064   2.042   2.349  11.091 -1.4709 -0.5473  2.8755
  108OSM   H14B11065   2.131   2.312  11.233  1.8311 -2.0958 -0.0859
  108OSM   H14C11066   2.182   2.235  11.089 -0.9217 -0.8513  2.0253
  108OSM    C1311067   2.229   2.529  11.220 -0.2305  0.1280 -0.4807
  108OSM   H13A11068   2.128   2.556  11.246 -0.1725  0.3240 -0.4582
  108OSM   H13B11069   2.285   2.621  11.211  1.0010 -0.4309  0.9546
  108OSM   H13C11070   2.273   2.473  11.302 -2.9341 -0.6917  0.5143
  108OSM    C1211071   2.198   2.520  10.981  0.4273 -0.0417  0.5648
  108OSM   H12A11072   2.263   2.606  10.975  1.1836 -0.6725 -1.2465
  108OSM   H12B11073   2.098   2.558  10.995  0.6314  0.2685  1.2008
  108OSM    C1111074   2.213   2.444  10.841  0.0472  0.0228 -0.0680
  108OSM   H11A11075   2.150   2.492  10.763 -2.1236  0.0751  1.6274
  108OSM   H11B11076   2.166   2.344  10.848  1.7264 -0.7516  0.8299
  108OSM      P11077   2.381   2.365  10.669 -0.3503 -0.2621  0.0743
  108OSM    O1311078   2.522   2.371  10.647  0.0123  0.6162 -0.2773
  108OSM    O1411079   2.328   2.228  10.658  0.5834  0.0442 -1.2703
  108OSM    O1111080   2.314   2.462  10.567 -0.3150  0.4097 -1.1622
  108OSM    O1211081   2.350   2.428  10.813  0.1092 -0.4573  0.4853
  108OSM    C1S11082   2.367   2.484  10.435  0.3028  0.0683 -0.9798
  108OSM    H1S11083   2.368   2.384  10.387  0.8138 -0.9521  1.0221
  108OSM    H1T11084   2.472   2.519  10.442  0.4909 -0.7512  1.0272
  108OSM     NF11085   2.311   2.578  10.214  0.1509 -0.0476 -0.5620
  108OSM    HNF11086   2.362   2.658  10.185 -0.8294  0.9073  0.2593
  108OSM    C2S11087   2.273   2.577  10.358  0.3109 -0.9930  0.3390
  108OSM    H2S11088   2.172   2.530  10.353  0.8710 -2.1359 -1.4521
  108OSM    C3S11089   2.277   2.718  10.428  0.1646 -0.7394 -0.6356
  108OSM    H3S11090   2.382   2.746  10.447  0.3704 -2.3733  0.9498
  108OSM     O311091   2.210   2.730  10.552 -0.0688 -0.1064 -0.0360
  108OSM    HO311092   2.182   2.639  10.559 -0.2051 -0.0598  0.0223
  108OSM    C4S11093   2.218   2.813  10.335 -0.1347 -0.0063 -0.4252
  108OSM    H4S11094   2.110   2.789  10.329  0.2337 -1.3487 -3.0382
  108OSM    C5S11095   2.281   2.906  10.262 -0.1516  0.4176 -0.2084
  108OSM    H5S11096   2.390   2.921  10.267 -0.3515  2.9029 -1.7935
  108OSM    C6S11097   2.203   3.000  10.174 -0.3244 -0.0134  0.4059
  108OSM    H6S11098   2.228   3.107  10.187  1.1739 -0.0448 -1.7750
  108OSM    H6T11099   2.094   2.980  10.181 -0.3636 -0.1619 -0.5294
  108OSM    C7S11100   2.246   2.966  10.027 -0.4454 -0.0122  0.2475
  108OSM    H7S11101   2.227   2.860   9.999  0.1785  0.2699 -1.3003
  108OSM    H7T11102   2.353   2.966  10.000 -0.1588 -0.5441  1.3270
  108OSM    C8S11103   2.163   3.043   9.924  0.5081  0.2459 -0.3593
  108OSM    H8S11104   2.135   3.144   9.960 -0.8168 -0.3747  0.4020
  108OSM    H8T11105   2.068   2.987   9.911  0.9429 -0.3613 -1.0114
  108OSM    C9S11106   2.228   3.053   9.790 -0.0884  0.0634  0.3749
  108OSM    H9S11107   2.337   3.073   9.798 -0.2869  2.7010 -1.9835
  108OSM    H9T11108   2.186   3.143   9.739  1.6149  0.1868 -0.8690
  108OSM   C10S11109   2.201   2.938   9.698  0.2435  0.1903  0.2122
  108OSM   H10S11110   2.096   2.905   9.711  0.8425 -1.4860  1.0607
  108OSM   H10T11111   2.271   2.857   9.728 -0.4154 -0.3053  0.4557
  108OSM   C11S11112   2.228   2.966   9.551  0.0616 -0.0221 -0.0767
  108OSM   H11S11113   2.276   2.874   9.511  2.0627  0.0325  1.9724
  108OSM   H11T11114   2.305   3.045   9.550 -0.5486  0.5774 -0.7696
  108OSM   C12S11115   2.107   3.022   9.472 -0.5054  0.5601  0.1300
  108OSM   H12S11116   2.072   3.111   9.528  0.2243  0.3452  0.9550
  108OSM   H12T11117   2.023   2.950   9.473  1.7393 -2.2665  0.2437
  108OSM   C13S11118   2.134   3.050   9.326  1.1440 -0.4494  0.0639
  108OSM   H13S11119   2.151   2.950   9.280  0.4444 -0.5574  0.0327
  108OSM   H13T11120   2.229   3.107   9.330  0.5323  0.5516  1.1455
  108OSM   C14S11121   2.025   3.124   9.248 -0.2554 -0.3985 -0.0406
  108OSM   H14S11122   2.076   3.170   9.161 -0.3458  1.3548  0.7991
  108OSM   H14T11123   1.973   3.209   9.297 -2.1941 -1.4481 -0.1876
  108OSM   C15S11124   1.921   3.023   9.200 -0.3658 -0.7369  0.2663
  108OSM   H15S11125   1.879   2.991   9.297  0.4900  1.1035  1.2986
  108OSM   H15T11126   1.969   2.932   9.159  0.9160 -0.7386  1.6946
  108OSM   C16S11127   1.817   3.081   9.098 -0.1391  0.5785  0.6234
  108OSM   H16S11128   1.756   3.160   9.148  0.2415  0.7937  0.7515
  108OSM   H16T11129   1.742   3.000   9.081 -0.0938  0.4430  1.0518
  108OSM   C17S11130   1.876   3.105   8.952  0.4910  0.0340 -0.1211
  108OSM   H17S11131   1.946   3.190   8.971 -0.2257  0.6110 -0.0224
  108OSM   H17T11132   1.790   3.135   8.889 -1.0190 -1.4107  1.1743
  108OSM   C18S11133   1.953   2.992   8.886 -0.2893 -0.7692  0.3075
  108OSM   H18S11134   1.879   2.917   8.852 -0.4944  0.2192 -1.5872
  108OSM   H18T11135   2.020   2.953   8.965 -0.8321 -2.0161  0.1755
  108OSM   H18U11136   2.008   3.016   8.793 -1.6923 -0.7101 -0.5249
  108OSM    C1F11137   2.305   2.470  10.130 -0.1269 -0.0327 -0.6765
  108OSM     OF11138   2.262   2.362  10.172  0.0585 -0.5468  0.0501
  108OSM    C2F11139   2.346   2.497   9.990 -0.5140 -0.3709  0.3365
  108OSM    H2F11140   2.429   2.427   9.966 -2.7173 -2.5733 -1.2916
  108OSM    H2G11141   2.389   2.600   9.985  0.7516 -0.9450 -1.9196
  108OSM    C3F11142   2.235   2.468   9.892  0.3112  0.3973  0.2587
  108OSM    H3F11143   2.158   2.546   9.913  0.6382  0.5900  0.7519
  108OSM    H3G11144   2.205   2.362   9.910  2.7862 -0.1801  1.4830
  108OSM    C4F11145   2.272   2.493   9.749  0.2447 -0.2570 -0.8402
  108OSM    H4F11146   2.363   2.434   9.725  0.0579 -1.1893  0.6590
  108OSM    H4G11147   2.293   2.602   9.742 -1.0549  0.1882  1.3667
  108OSM    C5F11148   2.168   2.467   9.632 -0.9683  0.5675 -0.1696
  108OSM    H5F11149   2.071   2.519   9.650  0.7592  3.3023  1.8963
  108OSM    H5G11150   2.147   2.359   9.647 -1.5696  0.7690  0.4637
  108OSM    C6F11151   2.214   2.497   9.489 -0.5448  0.2730  0.2703
  108OSM    H6F11152   2.297   2.427   9.468 -1.5568 -0.5445 -1.1331
  108OSM    H6G11153   2.244   2.601   9.465  0.2019  0.0230  0.1079
  108OSM    C7F11154   2.107   2.470   9.388  0.1527 -0.4673 -0.7632
  108OSM    H7F11155   2.015   2.528   9.409  0.4266  0.1255 -1.1793
  108OSM    H7G11156   2.083   2.361   9.390  1.4239 -0.7741  1.2969
  108OSM    C8F11157   2.149   2.522   9.249 -0.0646 -0.0916  0.0792
  108OSM    H8F11158   2.097   2.462   9.171 -0.7674  0.8281 -0.1757
  108OSM    H8G11159   2.259   2.509   9.248 -0.0637 -0.0854  0.1024
  108OSM    C9F11160   2.125   2.669   9.210 -0.2257  0.5611 -0.0626
  108OSM    H9F11161   2.078   2.731   9.288 -1.0413 -0.8035  0.5736
  108OSM   C10F11162   2.143   2.714   9.081  0.9915  0.2471 -0.0916
  108OSM   H10F11163   2.146   2.823   9.065  0.0584  0.6962  2.3768
  108OSM   C11F11164   2.199   2.624   8.972 -0.2177  0.6560  0.3177
  108OSM   H11F11165   2.241   2.531   9.016  0.1169  0.6463 -0.0203
  108OSM   H11G11166   2.286   2.680   8.932  1.9782 -0.8101  2.7037
  108OSM   C12F11167   2.083   2.602   8.877 -0.0382  0.2517  0.2911
  108OSM   H12F11168   2.047   2.701   8.841 -2.3644 -0.5162  0.3486
  108OSM   H12G11169   1.984   2.574   8.919  0.0066 -3.5972 -1.7267
  108OSM   C13F11170   2.116   2.494   8.767 -0.0547  0.0176  0.1502
  108OSM   H13F11171   2.094   2.396   8.813  1.9150 -0.4208  0.2207
  108OSM   H13G11172   2.221   2.501   8.731 -0.7395  0.2380 -1.9920
  108OSM   C14F11173   2.024   2.516   8.644 -0.4101  0.7585  1.1160
  108OSM   H14F11174   2.069   2.613   8.612 -0.0686  0.2382 -0.0156
  108OSM   H14G11175   1.918   2.542   8.665 -0.6711  1.7355 -1.1315
  108OSM   C15F11176   2.038   2.403   8.534 -0.2151 -0.0176  0.3412
  108OSM   H15F11177   1.973   2.313   8.544 -1.4907  0.3609 -2.9667
  108OSM   H15G11178   2.143   2.370   8.527  0.7160  2.7204  0.3650
  108OSM   C16F11179   2.002   2.451   8.385  0.5375 -0.4255 -0.0267
  108OSM   H16F11180   1.989   2.561   8.387 -0.1686 -0.4954 -0.5437
  108OSM   H16G11181   1.902   2.420   8.348  0.2471 -0.6745  0.9423
  108OSM   C17F11182   2.098   2.410   8.278 -0.0465 -0.4214  1.0362
  108OSM   H17F11183   2.109   2.302   8.255  0.1294  0.2285 -2.4945
  108OSM   H17G11184   2.198   2.448   8.310  0.3055 -0.7724  0.3805
  108OSM   C18F11185   2.060   2.472   8.143 -0.2374  0.3713 -0.6735
  108OSM   H18F11186   2.065   2.583   8.143  1.7151  0.3326 -1.8085
  108OSM   H18G11187   1.960   2.430   8.122 -0.1415 -0.0624 -0.2936
  108OSM   H18H11188   2.133   2.453   8.061  1.7696  1.5122  0.7673
  109OSM      N11189   2.511   3.050  10.988 -0.3816 -0.1873 -0.6539
  109OSM    C1511190   2.578   3.149  11.076  0.6690 -0.1465 -0.2752
  109OSM   H15A11191   2.686   3.145  11.073  0.6761  0.3092 -0.9159
  109OSM   H15B11192   2.548   3.129  11.177 -0.5181 -1.2155 -0.8092
  109OSM   H15C11193   2.544   3.247  11.044 -0.1288  0.0920  1.2168
  109OSM    C1411194   2.529   2.911  11.059  0.0425 -1.0517  0.3293
  109OSM   H14A11195   2.479   2.927  11.153 -0.1486 -0.4298  0.1262
  109OSM   H14B11196   2.628   2.882  11.089  0.6749 -1.4264 -1.9661
  109OSM   H14C11197   2.491   2.826  11.004  2.1146 -2.3434  0.7822
  109OSM    C1311198   2.364   3.078  10.972  0.4867 -0.3979  0.4326
  109OSM   H13A11199   2.316   3.098  11.067 -3.1857  0.5645 -1.4545
  109OSM   H13B11200   2.313   2.995  10.926 -1.3828  1.1826 -0.4645
  109OSM   H13C11201   2.349   3.167  10.912  0.4501  0.6797  1.9718
  109OSM    C1211202   2.581   3.051  10.863 -0.7410 -0.4199 -0.1724
  109OSM   H12A11203   2.535   2.979  10.798 -2.8896  0.3729  0.3823
  109OSM   H12B11204   2.684   3.019  10.869 -1.4338 -3.3537 -1.9979
  109OSM    C1111205   2.581   3.183  10.783 -0.1551  1.0666 -0.3740
  109OSM   H11A11206   2.653   3.160  10.702 -0.7780  1.1275 -0.9534
  109OSM   H11B11207   2.627   3.269  10.835 -0.0451  0.5180  0.4752
  109OSM      P11208   2.393   3.123  10.606  0.4973 -0.0320  0.4166
  109OSM    O1311209   2.495   3.017  10.584 -0.4057 -0.1476 -0.4185
  109OSM    O1411210   2.250   3.091  10.627  0.2273 -0.5992 -0.7866
  109OSM    O1111211   2.402   3.222  10.483  0.5558  0.0592  0.4187
  109OSM    O1211212   2.449   3.215  10.726 -0.2049  0.3439  0.3036
  109OSM    C1S11213   2.462   3.349  10.484 -0.7603 -0.7859  1.0350
  109OSM    H1S11214   2.569   3.335  10.511 -0.3964  0.8380  0.5385
  109OSM    H1T11215   2.417   3.425  10.552 -2.5024  0.0997 -0.9774
  109OSM     NF11216   2.533   3.535  10.357 -0.0542 -0.2041 -0.4878
  109OSM    HNF11217   2.482   3.611  10.396  1.4669  0.0634  1.0980
  109OSM    C2S11218   2.451   3.412  10.345  0.0970  0.2652  0.0405
  109OSM    H2S11219   2.503   3.344  10.274 -1.3425 -0.4162 -0.4089
  109OSM    C3S11220   2.309   3.445  10.308 -0.5770  0.4243  0.1029
  109OSM    H3S11221   2.271   3.524  10.377 -0.3520 -0.9472  1.8629
  109OSM     O311222   2.219   3.334  10.312  0.0014 -0.1310  0.6331
  109OSM    HO311223   2.267   3.256  10.339  0.7460 -0.6490 -1.9637
  109OSM    C4S11224   2.305   3.514  10.171 -0.1622 -0.1849 -0.4516
  109OSM    H4S11225   2.272   3.619  10.173 -0.6191 -0.3129 -1.0217
  109OSM    C5S11226   2.334   3.458  10.056 -0.2667 -0.5851  0.1028
  109OSM    H5S11227   2.357   3.351  10.057  1.5016 -0.2805 -1.5384
  109OSM    C6S11228   2.327   3.523   9.918 -0.1106 -0.0368  0.4297
  109OSM    H6S11229   2.423   3.568   9.885 -0.9604  0.7731 -1.0747
  109OSM    H6T11230   2.257   3.609   9.919 -0.1792 -0.1004  1.7872
  109OSM    C7S11231   2.293   3.428   9.798 -0.4917 -0.3225 -0.2112
  109OSM    H7S11232   2.187   3.393   9.806 -1.0603  1.3397 -0.0132
  109OSM    H7T11233   2.360   3.341   9.784 -1.8472 -1.7682  1.7894
  109OSM    C8S11234   2.301   3.508   9.658 -0.5849 -0.1387 -0.5156
  109OSM    H8S11235   2.410   3.533   9.650 -0.5314  0.7880  2.2374
  109OSM    H8T11236   2.247   3.605   9.665  0.1214  0.2164  0.3021
  109OSM    C9S11237   2.257   3.432   9.530  0.0417 -0.4311  0.2620
  109OSM    H9S11238   2.148   3.412   9.529 -0.7254  2.9261 -2.0204
  109OSM    H9T11239   2.321   3.344   9.505  1.2020  0.6797 -0.8532
  109OSM   C10S11240   2.277   3.523   9.402 -0.0878 -0.0059  0.3924
  109OSM   H10S11241   2.383   3.533   9.371 -0.7725 -0.7333 -2.4988
  109OSM   H10T11242   2.234   3.624   9.414 -2.5869 -0.9493 -0.0337
  109OSM   C11S11243   2.212   3.454   9.281  0.7672  0.1578 -0.2406
  109OSM   H11S11244   2.104   3.437   9.301  0.8501  1.3920  1.4961
  109OSM   H11T11245   2.260   3.355   9.263  1.0539 -0.6361  3.8458
  109OSM   C12S11246   2.220   3.544   9.157  0.1493  0.0123 -0.1896
  109OSM   H12S11247   2.329   3.566   9.152  0.1260  0.1669 -0.0132
  109OSM   H12T11248   2.185   3.648   9.172 -0.2836 -0.3203  1.2003
  109OSM   C13S11249   2.153   3.472   9.035 -0.4990 -0.3746 -0.6808
  109OSM   H13S11250   2.150   3.534   8.943 -1.9137 -1.1939 -1.2238
  109OSM   H13T11251   2.049   3.434   9.049 -0.3621 -0.2027  0.9545
  109OSM   C14S11252   2.238   3.351   8.993 -0.4902  0.0341  0.1089
  109OSM   H14S11253   2.229   3.271   9.070 -0.3772 -0.5540 -0.4782
  109OSM   H14T11254   2.347   3.371   8.999  0.2502 -3.5263  1.3171
  109OSM   C15S11255   2.197   3.302   8.853 -0.5979 -0.2832 -0.0927
  109OSM   H15S11256   2.233   3.381   8.783 -0.5090 -0.7470 -0.5804
  109OSM   H15T11257   2.088   3.290   8.836 -0.7522  0.3142  0.4248
  109OSM   C16S11258   2.268   3.169   8.817 -0.3103 -0.0260 -0.2981
  109OSM   H16S11259   2.257   3.096   8.900  0.4647  0.0667 -0.1090
  109OSM   H16T11260   2.377   3.187   8.821 -0.1852  1.1946 -4.4235
  109OSM   C17S11261   2.233   3.102   8.685  0.1255  0.3087 -0.1393
  109OSM   H17S11262   2.296   3.160   8.614  0.0752  0.9200  0.3008
  109OSM   H17T11263   2.128   3.126   8.659 -0.4099 -1.5346  0.1936
  109OSM   C18S11264   2.272   2.962   8.663  0.0915 -0.4650 -0.3906
  109OSM   H18S11265   2.281   2.935   8.555  0.6400  1.1430 -0.7692
  109OSM   H18T11266   2.197   2.891   8.704  1.1917 -1.2611  0.3180
  109OSM   H18U11267   2.371   2.925   8.699 -1.0689 -2.8367  0.6132
  109OSM    C1F11268   2.668   3.541  10.364 -0.1684  0.2440 -0.8484
  109OSM     OF11269   2.729   3.439  10.336 -0.3468 -0.4251 -0.4964
  109OSM    C2F11270   2.732   3.666  10.408  0.4295 -0.4075  0.7223
  109OSM    H2F11271   2.791   3.651  10.500 -0.9513 -1.3131  1.4910
  109OSM    H2G11272   2.646   3.735  10.426  2.3948  2.4339 -0.0796
  109OSM    C3F11273   2.809   3.734  10.295  0.4890  0.3701 -0.0609
  109OSM    H3F11274   2.881   3.656  10.263  0.0463 -0.1060  0.0992
  109OSM    H3G11275   2.878   3.816  10.327  0.2678  1.9531 -3.1713
  109OSM    C4F11276   2.722   3.797  10.177 -0.4748 -0.2067 -0.0032
  109OSM    H4F11277   2.670   3.884  10.222  0.0245  0.9608 -1.5810
  109OSM    H4G11278   2.646   3.722  10.145 -0.8632 -1.2204  3.0523
  109OSM    C5F11279   2.796   3.824  10.047  0.3321 -0.2489  0.1561
  109OSM    H5F11280   2.806   3.728   9.994 -1.9019 -0.0952 -0.6605
  109OSM    H5G11281   2.887   3.879  10.079  0.3428 -0.5351  0.6249
  109OSM    C6F11282   2.713   3.908   9.949  0.3296 -0.8485  0.3366
  109OSM    H6F11283   2.772   3.955   9.868  0.3888  0.8560  1.3288
  109OSM    H6G11284   2.662   3.978  10.018 -1.9373 -3.2883  1.3226
  109OSM    C7F11285   2.601   3.824   9.872 -0.0234  0.7500  0.0210
  109OSM    H7F11286   2.526   3.901   9.845 -0.5464  0.2781  0.1033
  109OSM    H7G11287   2.544   3.752   9.933 -1.8863  1.0642 -1.2563
  109OSM    C8F11288   2.662   3.749   9.742 -0.4155 -0.0215  0.0939
  109OSM    H8F11289   2.585   3.681   9.700 -1.7412  1.7922 -0.5164
  109OSM    H8G11290   2.751   3.690   9.773  0.6049  1.2433 -0.3263
  109OSM    C9F11291   2.702   3.850   9.633  1.0701 -0.0830  0.3190
  109OSM    H9F11292   2.809   3.874   9.631  0.8407  1.1052  1.1797
  109OSM   C10F11293   2.624   3.911   9.540  0.1929  0.3454 -0.2710
  109OSM   H10F11294   2.660   3.987   9.469  0.0501 -0.5257 -1.3149
  109OSM   C11F11295   2.479   3.887   9.531  0.4031  0.0156 -0.6167
  109OSM   H11F11296   2.420   3.969   9.577  1.3567 -0.3631  1.3929
  109OSM   H11G11297   2.445   3.795   9.584  3.1981 -0.3802  0.6729
  109OSM   C12F11298   2.438   3.889   9.382  0.1824 -0.3546  0.4384
  109OSM   H12F11299   2.448   3.783   9.349  0.9669 -0.7059  1.7222
  109OSM   H12G11300   2.498   3.952   9.313  1.3891 -2.5244 -0.6000
  109OSM   C13F11301   2.284   3.918   9.367 -0.9402  0.3860 -0.4363
  109OSM   H13F11302   2.265   4.017   9.414 -0.5410  0.5138 -0.5434
  109OSM   H13G11303   2.227   3.839   9.422  1.2199 -0.9831 -0.0287
  109OSM   C14F11304   2.237   3.928   9.220 -0.4863 -0.2759  0.9126
  109OSM   H14F11305   2.246   3.830   9.168 -1.7702 -0.8385  1.7169
  109OSM   H14G11306   2.310   3.996   9.171 -1.5960 -0.0290 -0.4575
  109OSM   C15F11307   2.095   3.984   9.205 -0.4620 -0.0405  0.7595
  109OSM   H15F11308   2.084   4.091   9.236 -0.9825  1.2293 -3.2581
  109OSM   H15G11309   2.034   3.923   9.275  0.0721  0.4984  1.7195
  109OSM   C16F11310   2.035   3.980   9.063  0.5012 -0.6164 -0.1975
  109OSM   H16F11311   1.931   4.018   9.062  1.1139  1.1473 -0.0754
  109OSM   H16G11312   2.017   3.874   9.035 -0.1834 -0.3255 -0.8923
  109OSM   C17F11313   2.125   4.037   8.945 -0.1605 -0.1364 -0.0891
  109OSM   H17F11314   2.228   3.995   8.944 -0.4584 -0.9025  0.3333
  109OSM   H17G11315   2.132   4.145   8.967  1.6499 -0.2111 -0.1465
  109OSM   C18F11316   2.067   4.011   8.802  0.2419  0.5162  0.3393
  109OSM   H18F11317   2.123   4.047   8.713  2.3533 -1.4740  0.7716
  109OSM   H18G11318   1.976   4.073   8.792  0.2937  0.3364 -1.5078
  109OSM   H18H11319   2.043   3.903   8.793  0.5995  0.4482  0.1748
  110OSM      N11320   3.792   2.629  10.944  0.5345  0.9401  0.3902
  110OSM    C1511321   3.832   2.603  11.088 -0.3960 -0.2416  0.1489
  110OSM   H15A11322   3.939   2.609  11.100 -0.6185  1.6197  1.7650
  110OSM   H15B11323   3.813   2.502  11.119  2.6811 -0.6347  1.1221
  110OSM   H15C11324   3.784   2.679  11.147  0.3336  0.7844 -0.5240
  110OSM    C1411325   3.854   2.530  10.854 -0.2293  0.4458 -0.0445
  110OSM   H14A11326   3.958   2.553  10.835  0.8091 -3.0564  0.6068
  110OSM   H14B11327   3.807   2.537  10.757 -0.1668  0.6049 -0.0642
  110OSM   H14C11328   3.848   2.429  10.891 -0.6886  1.0813  1.7214
  110OSM    C1311329   3.638   2.609  10.944  0.7033  0.2176 -0.2733
  110OSM   H13A11330   3.584   2.666  11.018 -1.6745 -0.0103 -1.7497
  110OSM   H13B11331   3.621   2.504  10.967 -0.7016 -0.0879 -2.4479
  110OSM   H13C11332   3.594   2.621  10.846 -3.7515  1.6251  1.6259
  110OSM    C1211333   3.821   2.764  10.896 -0.6833 -0.2003 -0.6826
  110OSM   H12A11334   3.753   2.827  10.950 -0.8025  0.0256 -1.0964
  110OSM   H12B11335   3.796   2.769  10.791  0.4378  0.1311 -0.9549
  110OSM    C1111336   3.970   2.808  10.914 -0.2856  0.4725  0.1273
  110OSM   H11A11337   4.007   2.792  11.017 -3.4057 -0.2203  1.2338
  110OSM   H11B11338   3.965   2.916  10.890  0.9315 -0.1005 -3.4205
  110OSM      P11339   4.200   2.787  10.805  0.4180 -0.2940 -0.1804
  110OSM    O1311340   4.203   2.899  10.707 -0.7225  0.6053  0.3654
  110OSM    O1411341   4.269   2.803  10.934 -0.3805  0.0823 -0.4752
  110OSM    O1111342   4.272   2.665  10.741  0.0254  0.0174  0.2538
  110OSM    O1211343   4.052   2.738  10.822 -0.3649  0.5491  0.0834
  110OSM    C1S11344   4.215   2.616  10.617  0.3127  0.0060  0.8454
  110OSM    H1S11345   4.116   2.662  10.598 -0.1827 -0.4267  2.2694
  110OSM    H1T11346   4.192   2.508  10.629  2.7223 -0.6426  0.0800
  110OSM     NF11347   4.238   2.627  10.366  0.1199  0.1524 -0.0733
  110OSM    HNF11348   4.277   2.551  10.315  0.5966 -0.9776  1.8536
  110OSM    C2S11349   4.308   2.646  10.494  0.2357 -0.2301  0.2916
  110OSM    H2S11350   4.332   2.754  10.499  1.0078 -0.4596  3.1155
  110OSM    C3S11351   4.450   2.578  10.501  0.1209  0.5619 -0.3306
  110OSM    H3S11352   4.436   2.468  10.506 -0.1281  0.6540  1.8880
  110OSM     O311353   4.525   2.611  10.618  0.0075 -0.0176  0.1673
  110OSM    HO311354   4.456   2.647  10.674 -0.2594 -1.0814  0.5557
  110OSM    C4S11355   4.519   2.627  10.377 -0.0300  0.9100 -1.2816
  110OSM    H4S11356   4.555   2.731  10.375  0.4533  0.7590 -0.7901
  110OSM    C5S11357   4.554   2.539  10.284 -0.4413 -0.1995  0.1272
  110OSM    H5S11358   4.539   2.432  10.301 -0.0871 -0.4224 -0.8652
  110OSM    C6S11359   4.631   2.584  10.163 -0.4419 -1.0461  0.1378
  110OSM    H6S11360   4.719   2.522  10.135  1.0686  0.8197  0.4893
  110OSM    H6T11361   4.683   2.682  10.167 -0.4052 -0.9369 -1.8337
  110OSM    C7S11362   4.536   2.604  10.039 -0.3887  0.3714 -0.3018
  110OSM    H7S11363   4.455   2.674  10.067 -0.7910 -0.5592  0.9134
  110OSM    H7T11364   4.497   2.501  10.028  2.5236 -0.7103 -1.5200
  110OSM    C8S11365   4.624   2.654   9.910  0.0700  0.1567  0.4127
  110OSM    H8S11366   4.701   2.577   9.887  0.8948  1.2828 -0.8275
  110OSM    H8T11367   4.664   2.751   9.949 -2.2738  1.5685 -0.5064
  110OSM    C9S11368   4.524   2.695   9.800 -0.3657 -0.4400 -0.3332
  110OSM    H9S11369   4.442   2.742   9.857 -1.6881 -1.5656 -1.2226
  110OSM    H9T11370   4.486   2.603   9.749  1.3878 -0.1150 -2.3731
  110OSM   C10S11371   4.583   2.790   9.691 -0.8176 -0.5942  0.4466
  110OSM   H10S11372   4.662   2.743   9.629  1.3444  1.9213  1.1294
  110OSM   H10T11373   4.632   2.880   9.735  2.1528 -1.8852  0.0273
  110OSM   C11S11374   4.470   2.836   9.594  0.0553 -0.1610 -0.3211
  110OSM   H11S11375   4.395   2.869   9.670  0.9850 -0.1934  0.6246
  110OSM   H11T11376   4.426   2.750   9.540  0.5854 -0.8067  0.2610
  110OSM   C12S11377   4.509   2.961   9.508 -0.6529  0.2052 -0.0451
  110OSM   H12S11378   4.582   3.024   9.563 -0.9079  0.6285 -0.1906
  110OSM   H12T11379   4.414   3.017   9.495  0.7274  2.5827 -0.5018
  110OSM   C13S11380   4.562   2.933   9.360 -0.1940 -0.2288 -0.3269
  110OSM   H13S11381   4.495   2.854   9.320  1.0583 -0.8959 -1.1817
  110OSM   H13T11382   4.667   2.899   9.358 -0.9263 -2.6672 -1.1575
  110OSM   C14S11383   4.534   3.054   9.269  0.5647  0.4417  0.1448
  110OSM   H14S11384   4.615   3.128   9.289  1.7114 -0.7266 -0.0712
  110OSM   H14T11385   4.438   3.107   9.289 -0.1376 -0.3656 -1.0023
  110OSM   C15S11386   4.516   3.003   9.120  0.0868  0.0059 -1.0486
  110OSM   H15S11387   4.487   3.087   9.054  0.9904  0.5603 -0.7557
  110OSM   H15T11388   4.441   2.922   9.121  1.1425 -0.9937  0.0112
  110OSM   C16S11389   4.644   2.955   9.057  0.8788 -0.6330 -0.7739
  110OSM   H16S11390   4.688   2.874   9.119  0.1005 -1.7052 -1.5859
  110OSM   H16T11391   4.722   3.034   9.050 -0.1212  0.4971  0.5098
  110OSM   C17S11392   4.631   2.910   8.909 -0.0811 -0.2133  0.3165
  110OSM   H17S11393   4.624   3.003   8.850 -0.4513 -0.0716  0.5814
  110OSM   H17T11394   4.545   2.839   8.908 -1.3370  1.2755 -0.6726
  110OSM   C18S11395   4.747   2.829   8.859 -0.3454 -0.1940  0.6009
  110OSM   H18S11396   4.761   2.728   8.902  1.3633  0.3401  1.3837
  110OSM   H18T11397   4.842   2.882   8.883  0.8680 -1.9713 -0.0388
  110OSM   H18U11398   4.741   2.820   8.749  1.8758 -0.1975  0.4440
  110OSM    C1F11399   4.120   2.677  10.325  0.2697 -0.0061 -0.4911
  110OSM     OF11400   4.077   2.780  10.375 -0.0188  0.2338 -0.2276
  110OSM    C2F11401   4.046   2.598  10.229  0.8749  0.3324  0.4847
  110OSM    H2F11402   4.046   2.491  10.258  2.0433  0.3696  0.6874
  110OSM    H2G11403   4.091   2.610  10.128  4.5554  0.8017  2.0225
  110OSM    C3F11404   3.896   2.643  10.214  0.1313 -0.0125 -0.7944
  110OSM    H3F11405   3.877   2.753  10.216  1.2354  0.1857 -0.4524
  110OSM    H3G11406   3.843   2.618  10.308  0.9223 -1.6784 -0.7650
  110OSM    C4F11407   3.815   2.579  10.100 -0.5183 -0.1595  0.1814
  110OSM    H4F11408   3.710   2.612  10.093 -0.4624 -0.2955 -2.6224
  110OSM    H4G11409   3.811   2.469  10.113 -0.5042 -0.2438 -0.4725
  110OSM    C5F11410   3.888   2.601   9.970 -0.5181  0.2193 -0.0651
  110OSM    H5F11411   3.984   2.546   9.972 -0.1012  0.9067 -0.7449
  110OSM    H5G11412   3.908   2.710   9.970  1.2310 -0.0841  0.4160
  110OSM    C6F11413   3.807   2.540   9.849 -0.0884 -0.1431 -0.3568
  110OSM    H6F11414   3.879   2.559   9.767  2.3217 -1.3629  1.3382
  110OSM    H6G11415   3.707   2.587   9.837  0.2557  0.5027 -0.7707
  110OSM    C7F11416   3.800   2.380   9.861  0.3032  0.0867  0.0555
  110OSM    H7F11417   3.730   2.360   9.944  1.4006 -1.8762  0.5775
  110OSM    H7G11418   3.902   2.350   9.894  0.3700  0.5684  0.2981
  110OSM    C8F11419   3.754   2.305   9.733  1.0727  0.0427  0.2270
  110OSM    H8F11420   3.751   2.197   9.761 -0.3606  0.3000  1.1873
  110OSM    H8G11421   3.845   2.327   9.674  2.1084 -0.4753  1.5598
  110OSM    C9F11422   3.622   2.342   9.667 -0.6313  0.1037 -0.8015
  110OSM    H9F11423   3.533   2.287   9.702 -1.3282  0.5123 -1.8680
  110OSM   C10F11424   3.604   2.424   9.561 -0.0446  0.0205  0.1619
  110OSM   H10F11425   3.504   2.450   9.524  0.8058  2.3897 -0.6762
  110OSM   C11F11426   3.714   2.495   9.483  0.1662  0.0313 -1.1554
  110OSM   H11F11427   3.809   2.472   9.534  0.6662  2.3193 -0.9316
  110OSM   H11G11428   3.716   2.606   9.489 -0.0732 -0.0359  0.3563
  110OSM   C12F11429   3.739   2.448   9.338  0.4584 -0.6644  0.3826
  110OSM   H12F11430   3.778   2.344   9.345  0.0792 -0.9730 -1.6951
  110OSM   H12G11431   3.808   2.526   9.300 -1.1386  1.6860  2.0213
  110OSM   C13F11432   3.618   2.437   9.249  0.2994  0.3443  0.4129
  110OSM   H13F11433   3.564   2.534   9.254  1.7077  1.1082  1.5632
  110OSM   H13G11434   3.557   2.355   9.293  0.6095 -0.3847 -0.4829
  110OSM   C14F11435   3.639   2.398   9.105  0.4752 -0.0068  0.1249
  110OSM   H14F11436   3.535   2.378   9.072 -1.0664  1.0325  3.8231
  110OSM   H14G11437   3.693   2.302   9.094 -0.5657 -0.8178  1.6039
  110OSM   C15F11438   3.705   2.504   9.008  0.5671  0.5013 -0.0811
  110OSM   H15F11439   3.815   2.504   9.017  0.6781 -0.7677 -1.2186
  110OSM   H15G11440   3.662   2.597   9.051 -1.3548  1.3999 -3.5863
  110OSM   C16F11441   3.649   2.484   8.867  0.8937  0.6739 -0.0422
  110OSM   H16F11442   3.542   2.455   8.877  1.4219 -2.7351 -2.4799
  110OSM   H16G11443   3.698   2.395   8.821  0.4688  0.7189 -0.5862
  110OSM   C17F11444   3.659   2.605   8.776  0.2762  0.0080 -0.0085
  110OSM   H17F11445   3.611   2.571   8.682 -1.0649 -1.6929  1.2304
  110OSM   H17G11446   3.767   2.625   8.759  0.2335  2.1278  1.7213
  110OSM   C18F11447   3.592   2.731   8.824 -0.0335 -0.3998 -0.0777
  110OSM   H18F11448   3.483   2.711   8.831 -0.0647 -0.1314  0.2359
  110OSM   H18G11449   3.594   2.812   8.748 -2.9723  0.5486  0.7111
  110OSM   H18H11450   3.612   2.768   8.927 -2.8777 -1.4439  0.9570
  111OSM      N11451   4.389   6.716  10.949 -0.6684 -0.8728  0.1376
  111OSM    C1511452   4.262   6.701  11.013 -0.8088 -0.0061 -0.1311
  111OSM   H15A11453   4.185   6.672  10.944 -0.2462 -0.2054 -0.6792
  111OSM   H15B11454   4.222   6.787  11.065  0.5981 -0.0430  1.1098
  111OSM   H15C11455   4.255   6.619  11.083  1.1056 -0.8839 -0.8765
  111OSM    C1411456   4.495   6.735  11.052 -0.3804 -0.0242  0.2646
  111OSM   H14A11457   4.584   6.759  10.995 -0.9956 -0.5085 -0.9402
  111OSM   H14B11458   4.523   6.641  11.097  0.5336 -1.9300 -3.8013
  111OSM   H14C11459   4.478   6.817  11.121 -0.7993  0.3836 -0.3106
  111OSM    C1311460   4.419   6.587  10.872 -0.2663 -0.5849 -0.3514
  111OSM   H13A11461   4.345   6.575  10.795  0.1120 -0.8143 -0.6819
  111OSM   H13B11462   4.408   6.499  10.934  0.8446 -0.1943  0.4515
  111OSM   H13C11463   4.518   6.583  10.828  0.2277 -2.7298  0.8140
  111OSM    C1211464   4.378   6.833  10.847 -0.8755  0.2598 -0.6455
  111OSM   H12A11465   4.358   6.930  10.892  2.1964  1.5607 -1.7729
  111OSM   H12B11466   4.288   6.812  10.792 -1.2425 -1.5305  0.5648
  111OSM    C1111467   4.495   6.867  10.747  0.1467 -0.4911  0.6590
  111OSM   H11A11468   4.460   6.917  10.654  3.5361  1.6509  0.3288
  111OSM   H11B11469   4.536   6.778  10.695 -0.4679 -1.4626  1.7973
  111OSM      P11470   4.581   7.097  10.821 -0.0716 -0.5541  0.0310
  111OSM    O1311471   4.450   7.127  10.879  0.3706  0.0195  0.2203
  111OSM    O1411472   4.701   7.166  10.869 -0.8661 -0.2288 -0.5460
  111OSM    O1111473   4.565   7.149  10.675 -0.3859 -0.0519 -0.1193
  111OSM    O1211474   4.605   6.935  10.816 -0.0930 -0.4609 -0.3640
  111OSM    C1S11475   4.644   7.101  10.570 -0.1593 -0.0683  0.8507
  111OSM    H1S11476   4.662   6.991  10.572 -0.9314 -0.2026  2.2584
  111OSM    H1T11477   4.736   7.162  10.559  0.3527 -0.7732  1.1507
  111OSM     NF11478   4.640   7.088  10.318  0.1778 -0.4822 -1.0077
  111OSM    HNF11479   4.673   7.159  10.256  1.3271 -1.8710 -2.0635
  111OSM    C2S11480   4.566   7.138  10.439  0.1803  0.7764 -0.2109
  111OSM    H2S11481   4.467   7.088  10.438  0.7696 -0.4292 -1.1334
  111OSM    C3S11482   4.539   7.293  10.432  0.4151 -0.7314  0.0666
  111OSM    H3S11483   4.635   7.348  10.440 -0.0071 -0.2186  2.2696
  111OSM     O311484   4.460   7.341  10.541  0.5226 -0.0383  0.1314
  111OSM    HO311485   4.487   7.278  10.609  0.0366  1.3140  1.6535
  111OSM    C4S11486   4.482   7.335  10.293  0.2813  0.0299 -0.9004
  111OSM    H4S11487   4.559   7.333  10.214  1.9669 -3.0366  0.6397
  111OSM    C5S11488   4.351   7.350  10.258 -0.2687 -0.9458  0.5382
  111OSM    H5S11489   4.269   7.343  10.331 -0.7936  0.5514  0.1186
  111OSM    C6S11490   4.294   7.396  10.126 -0.4202 -0.0894 -0.5233
  111OSM    H6S11491   4.251   7.497  10.139 -0.5601 -0.5071  3.0965
  111OSM    H6T11492   4.206   7.332  10.105 -1.2618  0.8413  0.1227
  111OSM    C7S11493   4.372   7.394   9.994 -0.8198  0.2001  0.2125
  111OSM    H7S11494   4.395   7.286   9.984 -5.2130 -1.2537  2.9732
  111OSM    H7T11495   4.460   7.462   9.998 -0.7068  0.4850 -3.4821
  111OSM    C8S11496   4.281   7.443   9.874  0.3237 -0.3296  0.0542
  111OSM    H8S11497   4.238   7.544   9.891  1.1502  0.4857 -2.2906
  111OSM    H8T11498   4.204   7.363   9.864  0.4171 -0.7465  2.1869
  111OSM    C9S11499   4.356   7.452   9.745  0.4395 -0.2270 -0.0623
  111OSM    H9S11500   4.383   7.349   9.714 -1.0704 -0.5367 -0.3909
  111OSM    H9T11501   4.443   7.518   9.766  1.9404 -2.0145 -0.3479
  111OSM   C10S11502   4.273   7.519   9.636  0.2866  0.3448 -0.2928
  111OSM   H10S11503   4.246   7.624   9.660  2.0887  0.8128 -0.1452
  111OSM   H10T11504   4.174   7.472   9.621 -0.4120  1.6253  0.1660
  111OSM   C11S11505   4.336   7.539   9.506  0.1519  1.0019  0.3418
  111OSM   H11S11506   4.399   7.455   9.471 -0.1820  0.7764  0.2743
  111OSM   H11T11507   4.407   7.624   9.519  3.0855 -1.2629  0.2345
  111OSM   C12S11508   4.240   7.577   9.398 -0.5212 -0.4478 -0.0846
  111OSM   H12S11509   4.198   7.669   9.444  0.2098 -0.2620  0.2330
  111OSM   H12T11510   4.156   7.508   9.379 -2.0436  1.3531 -0.2093
  111OSM   C13S11511   4.309   7.594   9.262 -0.3755 -0.1322 -0.1203
  111OSM   H13S11512   4.323   7.496   9.211  0.9376  0.2729 -0.5610
  111OSM   H13T11513   4.411   7.633   9.282  0.9563 -4.0461  1.6568
  111OSM   C14S11514   4.247   7.704   9.178 -0.2277 -0.1639 -0.6413
  111OSM   H14S11515   4.250   7.808   9.217  1.4623 -0.6838  0.7486
  111OSM   H14T11516   4.139   7.681   9.166 -0.5317  1.4655 -1.2956
  111OSM   C15S11517   4.297   7.691   9.035 -0.2535  0.2122  0.4526
  111OSM   H15S11518   4.257   7.591   9.007 -0.1171  0.3476 -0.2319
  111OSM   H15T11519   4.407   7.704   9.035 -0.1299 -0.6428 -0.7667
  111OSM   C16S11520   4.241   7.792   8.940  0.0736 -0.1274 -0.5547
  111OSM   H16S11521   4.232   7.898   8.972  1.2214 -0.1964  0.0524
  111OSM   H16T11522   4.132   7.772   8.942  0.0704 -0.0714  1.2701
  111OSM   C17S11523   4.295   7.782   8.800  0.8674  0.2112  0.8019
  111OSM   H17S11524   4.325   7.680   8.770  0.5470  0.9370 -2.3643
  111OSM   H17T11525   4.388   7.842   8.794  1.0698  0.0621  2.0679
  111OSM   C18S11526   4.196   7.831   8.691  0.4550  0.4464  0.5210
  111OSM   H18S11527   4.207   7.778   8.594  3.3923 -0.8374  1.4553
  111OSM   H18T11528   4.220   7.938   8.673  0.8782  0.6128  1.9664
  111OSM   H18U11529   4.090   7.817   8.722  0.3679 -0.0798  0.0191
  111OSM    C1F11530   4.659   6.960  10.288  0.0190 -0.7769 -0.2146
  111OSM     OF11531   4.619   6.870  10.359  0.1103 -0.0701 -0.1087
  111OSM    C2F11532   4.732   6.933  10.166 -0.3290  0.1688 -0.1052
  111OSM    H2F11533   4.837   6.969  10.169 -0.1820  0.0216 -2.2408
  111OSM    H2G11534   4.687   6.991  10.083 -0.1074  0.6359  0.0975
  111OSM    C3F11535   4.729   6.775  10.136  0.2047  0.2759  0.8143
  111OSM    H3F11536   4.619   6.757  10.131  0.3158 -0.2350 -0.2897
  111OSM    H3G11537   4.775   6.730  10.227 -1.2384 -0.6686  1.1112
  111OSM    C4F11538   4.790   6.749  10.005  0.4924 -0.7808  0.4569
  111OSM    H4F11539   4.822   6.643  10.003 -1.2276 -1.3353 -1.5771
  111OSM    H4G11540   4.877   6.815   9.981  1.6445 -2.2137  0.5792
  111OSM    C5F11541   4.704   6.759   9.878  0.0590 -0.2361 -0.3102
  111OSM    H5F11542   4.662   6.862   9.867 -0.2607 -0.3996 -0.6263
  111OSM    H5G11543   4.612   6.697   9.887  0.8437 -1.5652 -1.2009
  111OSM    C6F11544   4.780   6.732   9.748  0.0014 -0.2403 -0.2164
  111OSM    H6F11545   4.841   6.639   9.759  2.5446  1.2438 -0.9317
  111OSM    H6G11546   4.847   6.819   9.729 -2.1289  1.7165  0.8080
  111OSM    C7F11547   4.689   6.714   9.630  0.3617 -0.7391  0.0257
  111OSM    H7F11548   4.617   6.798   9.619  1.3934  0.0321 -1.0650
  111OSM    H7G11549   4.625   6.623   9.633  0.9507 -1.1530  2.5940
  111OSM    C8F11550   4.755   6.702   9.487 -0.2497 -0.5580 -0.0320
  111OSM    H8F11551   4.804   6.799   9.466 -2.2123  0.4130 -0.3240
  111OSM    H8G11552   4.671   6.688   9.416 -1.1965  1.6760  0.5399
  111OSM    C9F11553   4.864   6.598   9.464 -0.5687 -0.1512 -0.2608
  111OSM    H9F11554   4.941   6.600   9.543 -0.5463 -2.3569 -0.1549
  111OSM   C10F11555   4.877   6.510   9.362  0.0719 -0.2300  0.2569
  111OSM   H10F11556   4.970   6.450   9.367  1.0701  1.2744  0.2252
  111OSM   C11F11557   4.778   6.501   9.243  0.1043  0.1715 -0.7685
  111OSM   H11F11558   4.674   6.521   9.278 -0.3106 -0.8515 -1.3789
  111OSM   H11G11559   4.782   6.401   9.196 -0.1966  0.2871 -1.0474
  111OSM   C12F11560   4.808   6.605   9.141 -0.6305  0.0848  0.5220
  111OSM   H12F11561   4.778   6.706   9.176  1.2618  1.2871 -1.0987
  111OSM   H12G11562   4.745   6.576   9.054 -0.6919  0.2469  0.5122
  111OSM   C13F11563   4.959   6.620   9.104  0.4363 -0.0917 -0.6189
  111OSM   H13F11564   4.983   6.517   9.071 -0.4513 -0.5662  0.1612
  111OSM   H13G11565   5.011   6.641   9.201  0.2180 -0.2934 -0.4570
  111OSM   C14F11566   4.993   6.736   9.004  0.2299  0.3627 -0.1248
  111OSM   H14F11567   5.099   6.769   9.006  0.3383  0.0636 -0.8680
  111OSM   H14G11568   4.932   6.823   9.035  0.1489  0.0791  0.5376
  111OSM   C15F11569   4.950   6.697   8.866 -0.3573 -0.5130  0.3634
  111OSM   H15F11570   4.848   6.653   8.865  0.0005 -1.4039  1.1534
  111OSM   H15G11571   5.017   6.617   8.829 -1.3340 -0.4432 -1.7100
  111OSM   C16F11572   4.972   6.810   8.759 -0.2695  0.6734  0.1463
  111OSM   H16F11573   5.082   6.819   8.745 -0.0813  0.4871  1.4337
  111OSM   H16G11574   4.932   6.902   8.806 -2.8058 -1.8709  3.3699
  111OSM   C17F11575   4.906   6.773   8.630 -0.1231  0.7229  0.5789
  111OSM   H17F11576   4.801   6.747   8.655 -1.1321  1.9682 -1.9878
  111OSM   H17G11577   4.958   6.685   8.587  0.8854  1.4040  0.3747
  111OSM   C18F11578   4.907   6.889   8.528  0.1584  0.5085 -0.7393
  111OSM   H18F11579   4.848   6.864   8.437  1.2456 -2.5642 -0.7122
  111OSM   H18G11580   5.009   6.927   8.511  1.3802 -1.0654  2.2611
  111OSM   H18H11581   4.849   6.975   8.568 -2.0335 -2.2719  2.7330
  112OSM      N11582   4.094   4.061  11.036  0.0505  1.1030  0.1016
  112OSM    C1511583   4.225   4.030  10.980  0.3411  0.4140  0.2887
  112OSM   H15A11584   4.236   4.051  10.875  1.5031 -1.5339 -0.0388
  112OSM   H15B11585   4.248   3.927  11.003 -1.2516  0.6432  3.5265
  112OSM   H15C11586   4.306   4.083  11.029  1.9873 -0.5910 -1.2040
  112OSM    C1411587   4.093   3.996  11.174 -0.5221 -0.5935  0.1748
  112OSM   H14A11588   4.149   4.065  11.236  0.6522  1.2501 -2.7042
  112OSM   H14B11589   4.132   3.895  11.169  0.7748 -0.0864 -0.6109
  112OSM   H14C11590   3.994   3.990  11.216 -0.6618 -1.9266 -0.3030
  112OSM    C1311591   4.064   4.207  11.038 -0.5026 -0.3010  0.2493
  112OSM   H13A11592   3.974   4.220  11.096  0.4881 -1.4882  2.1823
  112OSM   H13B11593   4.042   4.244  10.939  0.1925  0.2959  0.3119
  112OSM   H13C11594   4.146   4.269  11.071  0.3517 -0.0540 -2.1506
  112OSM    C1211595   3.993   3.986  10.955 -0.1815  0.4154  0.2907
  112OSM   H12A11596   3.961   4.050  10.874 -2.4308  0.9081  1.4681
  112OSM   H12B11597   3.898   3.991  11.007 -0.1816 -0.8096  0.4414
  112OSM    C1111598   4.024   3.839  10.907  0.5496  0.8978  0.1841
  112OSM   H11A11599   4.085   3.849  10.815 -0.0429  0.5989 -0.2547
  112OSM   H11B11600   3.930   3.794  10.868  2.4172 -1.2258 -2.2408
  112OSM      P11601   4.158   3.620  10.960 -0.7152  0.2475 -0.1630
  112OSM    O1311602   4.230   3.563  11.079 -0.1239 -0.0896  0.5632
  112OSM    O1411603   4.072   3.529  10.877  0.0847  0.3277  0.0031
  112OSM    O1111604   4.267   3.692  10.871 -0.4069 -0.1962 -0.6700
  112OSM    O1211605   4.070   3.747  11.001  0.4071  0.2006  0.2376
  112OSM    C1S11606   4.360   3.616  10.791  0.4094 -0.1616  0.9052
  112OSM    H1S11607   4.311   3.522  10.758  0.6320  0.3261 -0.9261
  112OSM    H1T11608   4.456   3.590  10.839  0.6687  0.3469  0.6674
  112OSM     NF11609   4.430   3.623  10.550 -0.2158  0.1736  0.3693
  112OSM    HNF11610   4.528   3.616  10.530 -0.1377 -0.6852  0.9722
  112OSM    C2S11611   4.390   3.702  10.662 -0.3443 -0.1512  0.2349
  112OSM    H2S11612   4.302   3.763  10.632 -0.6768 -0.7137  0.0281
  112OSM    C3S11613   4.495   3.811  10.698 -0.2618 -0.2998  0.2266
  112OSM    H3S11614   4.592   3.759  10.716 -0.8730 -1.1925  1.0252
  112OSM     O311615   4.467   3.890  10.808  0.2420  0.0865  0.3676
  112OSM    HO311616   4.384   3.851  10.836  0.8396 -1.4588  0.0851
  112OSM    C4S11617   4.502   3.902  10.573 -0.1011  0.1373 -0.5244
  112OSM    H4S11618   4.579   3.875  10.499 -0.7831  1.0305 -1.6011
  112OSM    C5S11619   4.423   4.005  10.540  0.1283 -0.0305  0.7925
  112OSM    H5S11620   4.344   4.042  10.608 -0.0741  0.3821  0.3381
  112OSM    C6S11621   4.437   4.092  10.413  0.4452 -0.0442 -0.1998
  112OSM    H6S11622   4.515   4.170  10.428  0.1151  0.8826 -2.7646
  112OSM    H6T11623   4.343   4.151  10.406  0.5340  0.3639  1.4612
  112OSM    C7S11624   4.465   4.007  10.290  0.3167 -0.2948 -0.1034
  112OSM    H7S11625   4.380   3.940  10.270  0.1792 -0.0921 -0.2010
  112OSM    H7T11626   4.547   3.932  10.300  0.4052 -0.2918 -0.7741
  112OSM    C8S11627   4.482   4.098  10.165  0.1840  0.4077 -1.7895
  112OSM    H8S11628   4.591   4.120  10.167  0.1495  0.5497  0.5025
  112OSM    H8T11629   4.427   4.195  10.168  3.6441  2.5315 -1.1515
  112OSM    C9S11630   4.427   4.037  10.037 -0.1193  0.2941 -0.0629
  112OSM    H9S11631   4.317   4.030  10.049 -0.0609  0.3400  0.5334
  112OSM    H9T11632   4.472   3.936  10.023  0.7694  0.7869 -0.8529
  112OSM   C10S11633   4.447   4.121   9.914 -0.4012 -0.0703 -0.0547
  112OSM   H10S11634   4.557   4.124   9.902 -0.4750 -0.4735 -0.9174
  112OSM   H10T11635   4.405   4.223   9.927 -2.2201 -0.8107  0.1674
  112OSM   C11S11636   4.388   4.057   9.793  0.3526 -0.2791  0.7172
  112OSM   H11S11637   4.278   4.039   9.795  0.6268 -2.7637 -1.1005
  112OSM   H11T11638   4.424   3.956   9.764 -2.8721 -1.2350 -0.4570
  112OSM   C12S11639   4.406   4.144   9.670  0.0233  0.6960 -0.0514
  112OSM   H12S11640   4.508   4.126   9.629  0.4507 -2.2729  2.0026
  112OSM   H12T11641   4.377   4.250   9.687 -1.9840  0.4737 -1.7645
  112OSM   C13S11642   4.322   4.087   9.556  0.3606 -0.1462  1.0560
  112OSM   H13S11643   4.214   4.102   9.580 -0.3871 -2.7434 -0.3172
  112OSM   H13T11644   4.343   3.979   9.547 -0.3351 -0.1731 -0.5708
  112OSM   C14S11645   4.360   4.149   9.417 -0.4322 -0.0292  0.5418
  112OSM   H14S11646   4.468   4.171   9.404  0.0995 -2.7922 -0.4143
  112OSM   H14T11647   4.302   4.244   9.420 -2.6244 -1.2790  0.5716
  112OSM   C15S11648   4.314   4.055   9.300  0.1862  0.2011  0.0064
  112OSM   H15S11649   4.304   4.133   9.220 -0.6399  0.1138  0.0095
  112OSM   H15T11650   4.213   4.016   9.325  0.3506 -0.0625  0.2546
  112OSM   C16S11651   4.400   3.937   9.250  0.3591 -0.2875 -0.2989
  112OSM   H16S11652   4.394   3.853   9.322  1.0011  0.4501  0.6378
  112OSM   H16T11653   4.506   3.970   9.262 -0.0861  0.5870  1.4829
  112OSM   C17S11654   4.350   3.896   9.112 -0.2880 -0.4328 -0.2973
  112OSM   H17S11655   4.354   3.986   9.047  2.1622 -0.6136 -0.5006
  112OSM   H17T11656   4.243   3.867   9.109 -0.8310  1.5006 -0.4158
  112OSM   C18S11657   4.432   3.789   9.037  0.2287 -1.6332 -1.2366
  112OSM   H18S11658   4.390   3.773   8.936 -2.5414  0.5647 -0.5738
  112OSM   H18T11659   4.439   3.700   9.103  1.1214  0.1032  1.1525
  112OSM   H18U11660   4.534   3.832   9.031 -0.5202  0.3640 -0.5537
  112OSM    C1F11661   4.349   3.532  10.490  0.0928  0.0640  0.6410
  112OSM     OF11662   4.225   3.536  10.511 -0.3394  0.2413  0.4191
  112OSM    C2F11663   4.406   3.451  10.382 -0.2509  0.0604  0.7812
  112OSM    H2F11664   4.335   3.384  10.330  1.7215  0.3567 -2.6500
  112OSM    H2G11665   4.488   3.383  10.414 -1.2712 -1.3017  0.5566
  112OSM    C3F11666   4.461   3.554  10.283 -0.1353  0.3394 -0.4677
  112OSM    H3F11667   4.530   3.512  10.207  1.3022  3.0425 -0.7855
  112OSM    H3G11668   4.527   3.629  10.330  1.2165  0.7827 -2.9315
  112OSM    C4F11669   4.355   3.640  10.224 -0.1770 -0.4103  0.0489
  112OSM    H4F11670   4.417   3.703  10.158 -0.0916  0.1054  0.6165
  112OSM    H4G11671   4.308   3.704  10.301  0.6731 -0.1971  0.3882
  112OSM    C5F11672   4.250   3.578  10.132  0.7365  0.3753  0.0487
  112OSM    H5F11673   4.188   3.659  10.089 -0.6318 -0.1849  0.8927
  112OSM    H5G11674   4.184   3.521  10.200  0.4456 -0.4458 -0.8963
  112OSM    C6F11675   4.294   3.484  10.019 -0.1667 -0.1840 -0.0119
  112OSM    H6F11676   4.200   3.437   9.981  0.0064 -0.7228  0.2255
  112OSM    H6G11677   4.366   3.408  10.055  1.4837  0.3620 -2.0094
  112OSM    C7F11678   4.371   3.552   9.896 -0.1995  0.1743  0.0475
  112OSM    H7F11679   4.403   3.471   9.828  2.0922  0.8529  0.2326
  112OSM    H7G11680   4.461   3.611   9.926  0.3490 -0.2286 -0.7519
  112OSM    C8F11681   4.293   3.646   9.804 -0.1979 -0.7615 -0.4589
  112OSM    H8F11682   4.365   3.700   9.739 -0.2276 -0.1630  0.0043
  112OSM    H8G11683   4.253   3.720   9.876 -0.2073 -1.1654 -0.0420
  112OSM    C9F11684   4.184   3.594   9.716  0.2828 -0.1174 -0.1101
  112OSM    H9F11685   4.083   3.624   9.746  0.5525 -0.1351  0.8693
  112OSM   C10F11686   4.207   3.524   9.599 -1.0537 -0.2499 -0.3366
  112OSM   H10F11687   4.119   3.482   9.549  0.2883 -0.3260 -2.7673
  112OSM   C11F11688   4.341   3.497   9.534 -0.4718 -0.5044  0.7725
  112OSM   H11F11689   4.425   3.515   9.604  0.0037  1.6532 -0.2425
  112OSM   H11G11690   4.364   3.576   9.459  0.0692 -1.0814  0.3146
  112OSM   C12F11691   4.364   3.355   9.473  0.3448 -0.3675 -0.3056
  112OSM   H12F11692   4.366   3.278   9.552  0.3818 -0.6225 -0.5516
  112OSM   H12G11693   4.463   3.355   9.421  0.4000  0.3940 -0.2138
  112OSM   C13F11694   4.261   3.328   9.361  0.2293 -0.4905 -0.3734
  112OSM   H13F11695   4.158   3.349   9.399  0.5312  1.8116 -0.6466
  112OSM   H13G11696   4.260   3.219   9.339  1.4771 -0.5988  0.0770
  112OSM   C14F11697   4.273   3.394   9.223 -0.2720 -0.1309 -0.3137
  112OSM   H14F11698   4.382   3.400   9.200 -0.2204 -0.8977 -0.2808
  112OSM   H14G11699   4.231   3.497   9.225  2.1505  0.9587 -0.8345
  112OSM   C15F11700   4.199   3.308   9.120  0.1538  0.5098  1.0885
  112OSM   H15F11701   4.089   3.324   9.121 -1.1359 -5.1776 -2.1694
  112OSM   H15G11702   4.210   3.199   9.140 -0.1794  0.6104  1.8514
  112OSM   C16F11703   4.239   3.340   8.977 -0.1153  0.3801 -1.3555
  112OSM   H16F11704   4.202   3.262   8.907  2.4422 -0.5779 -1.7698
  112OSM   H16G11705   4.350   3.345   8.974 -0.0161  0.7655  0.9979
  112OSM   C17F11706   4.187   3.480   8.938  0.0811 -0.0674  0.2381
  112OSM   H17F11707   4.228   3.564   8.999  1.2108  0.8022 -1.6457
  112OSM   H17G11708   4.076   3.484   8.945 -0.1257 -2.6400 -0.7174
  112OSM   C18F11709   4.240   3.521   8.797 -0.3757 -0.7699 -0.4133
  112OSM   H18F11710   4.233   3.435   8.726 -0.4257 -2.3122  1.3893
  112OSM   H18G11711   4.350   3.537   8.805 -0.4865 -0.6936  1.1915
  112OSM   H18H11712   4.202   3.616   8.755  0.5562  0.4703  1.4264
  113OSM      N11713   2.047   1.459  10.794 -0.5967 -0.0120  0.6177
  113OSM    C1511714   2.145   1.452  10.909 -0.2828 -0.4997 -0.3872
  113OSM   H15A11715   2.246   1.432  10.876 -0.0798  1.5616 -1.1656
  113OSM   H15B11716   2.112   1.372  10.972  0.4340  0.1156  0.7960
  113OSM   H15C11717   2.142   1.544  10.966 -0.6910  1.0548 -2.7536
  113OSM    C1411718   2.061   1.580  10.704 -0.0046 -0.3548  0.6228
  113OSM   H14A11719   2.021   1.669  10.749 -0.8903  0.5301 -1.7665
  113OSM   H14B11720   2.014   1.567  10.608  0.3375  4.0423 -0.3322
  113OSM   H14C11721   2.167   1.590  10.683 -0.0305  0.1386  0.7225
  113OSM    C1311722   2.061   1.342  10.705  0.3942 -0.1951 -0.0746
  113OSM   H13A11723   2.165   1.316  10.696  0.5256 -1.5243  3.4890
  113OSM   H13B11724   2.020   1.364  10.607 -0.4550 -1.2632  0.0114
  113OSM   H13C11725   2.001   1.259  10.739 -0.5077 -0.0663 -1.2746
  113OSM    C1211726   1.908   1.470  10.855  0.4088  0.4933 -0.0094
  113OSM   H12A11727   1.835   1.460  10.776 -1.4372 -1.9748  1.8208
  113OSM   H12B11728   1.902   1.567  10.903 -1.9508 -0.0411  0.9423
  113OSM    C1111729   1.858   1.368  10.972 -0.1139  0.8069 -0.0672
  113OSM   H11A11730   1.759   1.395  11.015 -1.3141 -0.5617 -1.8217
  113OSM   H11B11731   1.934   1.372  11.053  0.6934  0.6094 -0.7959
  113OSM      P11732   1.733   1.146  10.942  0.1198  0.2547 -0.0959
  113OSM    O1311733   1.745   1.017  10.880  0.0048 -0.2478 -0.3933
  113OSM    O1411734   1.694   1.140  11.087  0.5668  0.3215 -0.2097
  113OSM    O1111735   1.620   1.230  10.871 -1.1350 -0.0277  0.0224
  113OSM    O1211736   1.865   1.230  10.945 -0.1372 -0.3446  0.1945
  113OSM    C1S11737   1.619   1.263  10.728 -0.6220 -0.7817 -0.3216
  113OSM    H1S11738   1.710   1.224  10.678  0.8894 -0.5774  2.0770
  113OSM    H1T11739   1.616   1.372  10.711 -0.4486 -1.0198 -1.9824
  113OSM     NF11740   1.512   1.212  10.512  0.5383 -0.1866 -0.6097
  113OSM    HNF11741   1.482   1.291  10.459  0.1208  0.7034  0.8791
  113OSM    C2S11742   1.496   1.202  10.652 -0.2765 -0.2591 -0.0030
  113OSM    H2S11743   1.479   1.096  10.681 -4.0541 -0.0940 -1.0998
  113OSM    C3S11744   1.375   1.279  10.707  1.2767 -0.2127  0.4426
  113OSM    H3S11745   1.388   1.386  10.683  1.8890 -0.6678 -1.3963
  113OSM     O311746   1.365   1.284  10.850 -0.1076  1.2303 -0.1936
  113OSM    HO311747   1.453   1.254  10.872 -0.0624  0.2919 -1.5692
  113OSM    C4S11748   1.251   1.222  10.635 -0.1183  0.4334 -0.0535
  113OSM    H4S11749   1.229   1.120  10.669  1.5011 -0.5900 -1.8670
  113OSM    C5S11750   1.172   1.284  10.546 -0.0405 -0.1703  0.6741
  113OSM    H5S11751   1.195   1.382  10.502  1.2532 -0.9412 -0.4887
  113OSM    C6S11752   1.057   1.211  10.482 -0.0029  0.1527  0.2465
  113OSM    H6S11753   0.962   1.268  10.494 -1.0051 -1.6385  1.1550
  113OSM    H6T11754   1.044   1.111  10.527 -0.8206  1.2548  2.6539
  113OSM    C7S11755   1.089   1.196  10.330 -0.0368 -0.3117  0.5292
  113OSM    H7S11756   1.114   1.293  10.280  0.9743 -1.9395 -2.3841
  113OSM    H7T11757   0.993   1.158  10.290  1.1135 -3.3962  0.4391
  113OSM    C8S11758   1.203   1.095  10.294  0.5258  0.4199  0.3303
  113OSM    H8S11759   1.196   1.009  10.363  2.0469  0.2996  0.3658
  113OSM    H8T11760   1.298   1.149  10.312  1.4165 -0.4851 -1.4039
  113OSM    C9S11761   1.190   1.047  10.148  0.1505 -0.5544 -0.5031
  113OSM    H9S11762   1.095   0.990  10.137 -0.3043  0.0535  0.1871
  113OSM    H9T11763   1.272   0.974  10.131  0.4159  0.2177 -2.8064
  113OSM   C10S11764   1.209   1.146  10.029  0.5768  0.3616 -1.6340
  113OSM   H10S11765   1.303   1.203  10.047 -0.2163  1.1323  0.4246
  113OSM   H10T11766   1.134   1.228  10.037  0.5890  0.2847 -0.5618
  113OSM   C11S11767   1.203   1.071   9.895  0.0354 -0.7382 -0.4401
  113OSM   H11S11768   1.114   1.005   9.905 -1.4506  1.0179 -1.4976
  113OSM   H11T11769   1.293   1.006   9.887  0.5898 -0.2388  1.2523
  113OSM   C12S11770   1.178   1.163   9.774  0.3059 -0.0241 -0.6621
  113OSM   H12S11771   1.110   1.250   9.785  2.0424  1.4172 -0.8371
  113OSM   H12T11772   1.143   1.102   9.688  0.2827 -0.1764 -0.5458
  113OSM   C13S11773   1.301   1.224   9.720 -0.6192  0.0506 -0.1303
  113OSM   H13S11774   1.376   1.143   9.718  0.8985  1.4173 -0.3423
  113OSM   H13T11775   1.345   1.301   9.787 -1.2079 -1.5641  2.2587
  113OSM   C14S11776   1.293   1.287   9.574  0.5144  0.0514  0.4205
  113OSM   H14S11777   1.388   1.341   9.555 -0.2230  0.9602 -0.8182
  113OSM   H14T11778   1.204   1.352   9.564  0.6322  0.1050 -0.2687
  113OSM   C15S11779   1.280   1.183   9.460 -0.0487  0.8225  0.2695
  113OSM   H15S11780   1.181   1.133   9.470  0.4861 -0.0752  1.2510
  113OSM   H15T11781   1.361   1.108   9.462 -0.7088  0.0338 -1.3839
  113OSM   C16S11782   1.267   1.238   9.319 -0.4091  0.3819  0.6383
  113OSM   H16S11783   1.237   1.158   9.249 -2.5357 -0.9145  2.8678
  113OSM   H16T11784   1.371   1.274   9.300 -0.1466 -0.0325  1.2595
  113OSM   C17S11785   1.161   1.347   9.298 -0.4649  0.2786  0.7422
  113OSM   H17S11786   1.190   1.435   9.360  0.7627  0.4865 -0.0986
  113OSM   H17T11787   1.062   1.307   9.328 -0.0968 -2.0169 -0.8513
  113OSM   C18S11788   1.157   1.402   9.157 -0.1842  0.2210 -0.1219
  113OSM   H18S11789   1.099   1.497   9.164 -0.3650  0.1335 -0.3974
  113OSM   H18T11790   1.111   1.328   9.088 -0.8888 -0.8683  1.4564
  113OSM   H18U11791   1.262   1.425   9.129 -0.3547  2.2344  0.7201
  113OSM    C1F11792   1.599   1.135  10.449  0.3141 -0.3650  0.3175
  113OSM     OF11793   1.654   1.043  10.500 -0.4567  0.1707  0.0065
  113OSM    C2F11794   1.627   1.177  10.307  0.1921  0.1558  0.2676
  113OSM    H2F11795   1.594   1.281  10.284 -1.8092 -0.7539 -1.2360
  113OSM    H2G11796   1.574   1.110  10.236 -0.4724  1.8367 -0.8931
  113OSM    C3F11797   1.782   1.184  10.282 -0.2295 -0.7128 -0.1489
  113OSM    H3F11798   1.823   1.081  10.292  1.4589 -0.1900 -1.3826
  113OSM    H3G11799   1.833   1.242  10.361  0.5784 -0.0428 -1.1512
  113OSM    C4F11800   1.815   1.236  10.138  0.6087  0.3045 -0.5291
  113OSM    H4F11801   1.924   1.258  10.132  1.2680 -2.5558 -0.3692
  113OSM    H4G11802   1.767   1.335  10.119  2.6961  1.2881 -0.9568
  113OSM    C5F11803   1.791   1.130  10.027 -0.1843 -0.1980 -0.4041
  113OSM    H5F11804   1.682   1.107  10.015  0.3055 -2.5166 -0.9147
  113OSM    H5G11805   1.846   1.034  10.040  1.3949  0.8357  0.9249
  113OSM    C6F11806   1.831   1.168   9.883  0.3600  0.5375  0.0835
  113OSM    H6F11807   1.939   1.189   9.873  0.3763  0.6320  0.4137
  113OSM    H6G11808   1.793   1.272   9.873  3.0848  1.5742 -0.3744
  113OSM    C7F11809   1.780   1.076   9.776 -0.0140 -0.5221  0.5657
  113OSM    H7F11810   1.670   1.067   9.787 -0.1395  1.7290  1.8083
  113OSM    H7G11811   1.833   0.979   9.780  1.8039  0.1356 -3.1240
  113OSM    C8F11812   1.796   1.121   9.628  0.1397 -0.1326 -0.7578
  113OSM    H8F11813   1.806   1.035   9.559  1.7317 -0.9797  0.4595
  113OSM    H8G11814   1.901   1.158   9.629  0.4596 -0.9642  1.3298
  113OSM    C9F11815   1.710   1.231   9.576  0.2978 -0.7910 -0.5592
  113OSM    H9F11816   1.707   1.322   9.638  1.5772 -0.8829 -0.3340
  113OSM   C10F11817   1.644   1.227   9.458  0.0466  0.8010  0.2300
  113OSM   H10F11818   1.570   1.301   9.426 -1.4578 -0.4546  0.6573
  113OSM   C11F11819   1.645   1.107   9.365  0.7292  0.4918 -0.0633
  113OSM   H11F11820   1.541   1.076   9.340  0.8827 -0.3348  0.2885
  113OSM   H11G11821   1.691   1.013   9.404 -0.7408 -0.1385  0.2131
  113OSM   C12F11822   1.708   1.142   9.232  0.0714  0.4145 -0.6747
  113OSM   H12F11823   1.717   1.045   9.178 -1.2376  1.0531 -2.1416
  113OSM   H12G11824   1.809   1.188   9.245  0.1962  0.1141 -0.5771
  113OSM   C13F11825   1.611   1.214   9.134  0.0865  0.1227 -0.2646
  113OSM   H13F11826   1.596   1.318   9.169  2.2967  0.3564  0.1386
  113OSM   H13G11827   1.520   1.152   9.127  1.2389 -1.4026 -3.5217
  113OSM   C14F11828   1.675   1.220   8.989  0.0063  0.4781 -0.6794
  113OSM   H14F11829   1.725   1.124   8.965  1.3126  1.0292 -0.2179
  113OSM   H14G11830   1.749   1.301   8.973  0.8012 -0.1142 -0.0644
  113OSM   C15F11831   1.557   1.251   8.896 -0.4239  0.0153  0.5651
  113OSM   H15F11832   1.506   1.343   8.930 -0.5548  0.2133 -0.1376
  113OSM   H15G11833   1.491   1.162   8.891 -1.0226  0.5087 -1.5463
  113OSM   C16F11834   1.600   1.265   8.747  0.6563  0.9204  0.0580
  113OSM   H16F11835   1.659   1.176   8.717  0.0368  0.6343 -0.3596
  113OSM   H16G11836   1.655   1.361   8.739 -1.7920  2.2939 -1.6623
  113OSM   C17F11837   1.472   1.254   8.655  0.0484 -0.0332 -0.7952
  113OSM   H17F11838   1.391   1.319   8.694  0.0671 -0.6642  0.3325
  113OSM   H17G11839   1.437   1.151   8.673 -0.0975 -0.0400 -1.1207
  113OSM   C18F11840   1.501   1.258   8.510  0.0462  0.6626  0.3750
  113OSM   H18F11841   1.562   1.346   8.481  1.1703  0.0391  0.7564
  113OSM   H18G11842   1.404   1.251   8.457 -0.6890  1.5307  1.5721
  113OSM   H18H11843   1.568   1.171   8.488  0.5183  0.6458  1.7876
  114OSM      N11844   3.779   3.611  11.191 -0.0952 -0.3315 -0.0806
  114OSM    C1511845   3.728   3.573  11.057  0.7340  0.0340 -0.3091
  114OSM   H15A11846   3.798   3.603  10.980 -1.3999 -2.2418 -3.4266
  114OSM   H15B11847   3.636   3.624  11.031 -0.2661 -0.7043  1.5910
  114OSM   H15C11848   3.708   3.467  11.048  0.0446  0.1071  0.2574
  114OSM    C1411849   3.668   3.601  11.294 -0.4874  0.0131 -0.2958
  114OSM   H14A11850   3.708   3.630  11.390 -0.4319  0.0529 -0.3303
  114OSM   H14B11851   3.637   3.497  11.298 -0.3406 -0.0044  0.5700
  114OSM   H14C11852   3.585   3.670  11.284  0.6180  1.6887  1.4745
  114OSM    C1311853   3.892   3.522  11.232  0.2426 -0.0835  0.0901
  114OSM   H13A11854   3.876   3.417  11.215  1.0129 -0.0216 -1.1960
  114OSM   H13B11855   3.901   3.535  11.339 -1.4953 -0.4627  0.3157
  114OSM   H13C11856   3.991   3.537  11.192  0.7347 -0.2365  1.2109
  114OSM    C1211857   3.820   3.762  11.185  0.1385  0.2486  0.7892
  114OSM   H12A11858   3.898   3.771  11.110 -1.6006  1.7233 -0.9600
  114OSM   H12B11859   3.854   3.803  11.279 -2.6912  2.2404  1.0637
  114OSM    C1111860   3.713   3.858  11.135 -0.5793  0.4332 -0.4115
  114OSM   H11A11861   3.758   3.955  11.165  0.1214 -0.4346  1.4982
  114OSM   H11B11862   3.615   3.836  11.181  0.5087 -0.1871  1.7391
  114OSM      P11863   3.588   3.906  10.918  0.4022 -0.2750 -0.2950
  114OSM    O1311864   3.472   3.822  10.951 -0.6313 -0.0223 -0.3164
  114OSM    O1411865   3.586   4.049  10.944 -0.2510 -0.7737  0.0835
  114OSM    O1111866   3.621   3.893  10.767 -0.3456  1.1733  0.0438
  114OSM    O1211867   3.716   3.845  10.986 -0.8429  0.1430  0.5049
  114OSM    C1S11868   3.654   3.767  10.716  0.8323  0.7439  0.1864
  114OSM    H1S11869   3.569   3.695  10.710  0.0575  1.6433  0.2359
  114OSM    H1T11870   3.725   3.705  10.776  2.7850  2.0574 -0.7047
  114OSM     NF11871   3.725   3.661  10.507  0.8880 -0.1950 -0.5595
  114OSM    HNF11872   3.811   3.610  10.500  1.1537 -0.3412  2.2730
  114OSM    C2S11873   3.717   3.788  10.570 -0.0647 -0.3452  0.5958
  114OSM    H2S11874   3.646   3.854  10.514 -1.1497 -0.9701  1.1939
  114OSM    C3S11875   3.850   3.859  10.592 -0.0070  0.2638  0.3647
  114OSM    H3S11876   3.914   3.796  10.658  0.7559  2.4786  1.8659
  114OSM     O311877   3.846   3.983  10.660  0.3182  0.3847 -0.7968
  114OSM    HO311878   3.761   3.984  10.704  1.2823 -0.8406  1.2196
  114OSM    C4S11879   3.927   3.875  10.463  0.1885 -0.6376  0.3647
  114OSM    H4S11880   3.992   3.791  10.435  0.4206  0.1627 -1.6830
  114OSM    C5S11881   3.938   3.986  10.381  0.2341 -0.1347 -0.8366
  114OSM    H5S11882   3.895   4.081  10.414 -0.1003 -1.5092  3.1285
  114OSM    C6S11883   4.019   3.990  10.258 -0.2670  1.0582  1.1181
  114OSM    H6S11884   4.091   3.906  10.248 -0.6477  0.8232  0.2220
  114OSM    H6T11885   4.089   4.076  10.262  0.1450  0.8059 -0.1411
  114OSM    C7S11886   3.925   4.000  10.137  0.0882 -0.3156  1.1972
  114OSM    H7S11887   3.882   4.102  10.143 -0.9032 -0.7840  4.2674
  114OSM    H7T11888   3.835   3.935  10.147 -1.0357  0.9449 -0.2689
  114OSM    C8S11889   3.997   3.970  10.003  0.0526 -0.1687  0.8081
  114OSM    H8S11890   4.050   3.873  10.009 -0.1443 -0.2207  1.9262
  114OSM    H8T11891   4.067   4.056   9.990 -1.0144  0.5773 -0.2347
  114OSM    C9S11892   3.907   3.964   9.873 -0.2287  0.3891 -0.7181
  114OSM    H9S11893   3.869   4.067   9.861 -1.0578  0.2852  0.8535
  114OSM    H9T11894   3.815   3.908   9.900 -0.1748  0.6906  0.1304
  114OSM   C10S11895   3.987   3.913   9.749 -0.2197  0.4126 -0.5642
  114OSM   H10S11896   4.018   3.809   9.776 -2.1659  0.4594  2.2884
  114OSM   H10T11897   4.088   3.957   9.735  0.8102 -1.4031  0.6518
  114OSM   C11S11898   3.907   3.934   9.624  0.5750  0.2049 -0.6069
  114OSM   H11S11899   3.915   4.042   9.600  0.7576  0.8078  1.8407
  114OSM   H11T11900   3.800   3.916   9.646  0.2418 -0.1470 -2.3426
  114OSM   C12S11901   3.929   3.842   9.501 -0.2840 -0.4262  0.2412
  114OSM   H12S11902   3.905   3.736   9.524 -3.3495  0.3720  1.1250
  114OSM   H12T11903   4.037   3.828   9.477 -1.0889 -3.8736 -2.2783
  114OSM   C13S11904   3.832   3.883   9.389  0.3514 -0.3703 -0.6724
  114OSM   H13S11905   3.847   3.992   9.370  0.3874 -0.3806 -0.7029
  114OSM   H13T11906   3.728   3.875   9.426  0.8244  3.0361  1.8792
  114OSM   C14S11907   3.834   3.790   9.261 -0.4289  0.4912 -0.5879
  114OSM   H14S11908   3.804   3.689   9.297  1.5284 -0.6607 -2.0316
  114OSM   H14T11909   3.942   3.788   9.237 -0.8279 -1.0537 -2.4653
  114OSM   C15S11910   3.750   3.833   9.138 -0.1136 -0.4186 -0.1701
  114OSM   H15S11911   3.777   3.934   9.102  2.4670 -1.7523 -2.4195
  114OSM   H15T11912   3.644   3.847   9.167 -1.2265 -1.0887 -3.4748
  114OSM   C16S11913   3.768   3.739   9.024 -0.2888 -0.1445 -0.0528
  114OSM   H16S11914   3.666   3.698   9.007  0.0931 -1.1962  0.0777
  114OSM   H16T11915   3.820   3.648   9.062 -0.1569 -0.1401 -0.2232
  114OSM   C17S11916   3.836   3.809   8.900  0.1874  0.3590  0.2496
  114OSM   H17S11917   3.938   3.842   8.930  1.5816 -1.9787 -1.5221
  114OSM   H17T11918   3.766   3.888   8.866  1.2737  1.8073  1.2534
  114OSM   C18S11919   3.856   3.706   8.789  0.1300 -0.1381 -0.4977
  114OSM   H18S11920   3.939   3.637   8.813  0.5082  0.7928  0.9901
  114OSM   H18T11921   3.870   3.752   8.689  0.2166 -0.2736 -0.5475
  114OSM   H18U11922   3.768   3.637   8.786 -1.8134  2.1619  0.5110
  114OSM    C1F11923   3.625   3.595  10.449 -0.6776 -0.1996 -0.8553
  114OSM     OF11924   3.513   3.654  10.433 -0.2740  0.6206  0.2501
  114OSM    C2F11925   3.639   3.452  10.399 -0.6414 -0.4948  0.0449
  114OSM    H2F11926   3.540   3.403  10.411 -1.3240  0.9214  0.3598
  114OSM    H2G11927   3.722   3.399  10.450 -0.7188  0.3989  1.1171
  114OSM    C3F11928   3.669   3.438  10.248 -0.1990 -0.2051  0.0964
  114OSM    H3F11929   3.572   3.468  10.203  1.1707  0.1145 -2.9233
  114OSM    H3G11930   3.686   3.333  10.216  0.7142 -0.5740  1.6702
  114OSM    C4F11931   3.771   3.531  10.187 -0.0516  0.3852  0.4330
  114OSM    H4F11932   3.877   3.503  10.206  0.1006  1.0914  0.6383
  114OSM    H4G11933   3.755   3.627  10.240 -1.8865  1.7936 -2.4283
  114OSM    C5F11934   3.753   3.547  10.038 -0.2265  0.2616 -0.9366
  114OSM    H5F11935   3.816   3.632  10.004  0.0003  1.7656  2.7662
  114OSM    H5G11936   3.647   3.566  10.009 -0.6101 -1.2111 -0.5653
  114OSM    C6F11937   3.781   3.420   9.963 -0.5875  0.8507  1.0529
  114OSM    H6F11938   3.729   3.327   9.995 -2.6240  1.4382 -0.3138
  114OSM    H6G11939   3.886   3.387   9.955 -1.5512 -2.3612  0.2480
  114OSM    C7F11940   3.711   3.415   9.828 -0.2351 -0.3999  0.7159
  114OSM    H7F11941   3.610   3.458   9.843 -0.1162  0.8407 -1.6076
  114OSM    H7G11942   3.703   3.317   9.777 -2.3066 -1.1156  2.2805
  114OSM    C8F11943   3.790   3.513   9.734  1.0450  0.4851  0.1396
  114OSM    H8F11944   3.891   3.469   9.717  0.6104 -0.1713 -0.8325
  114OSM    H8G11945   3.802   3.606   9.793  0.8867  0.6780 -0.1291
  114OSM    C9F11946   3.715   3.540   9.603  0.1099  0.3683 -0.1960
  114OSM    H9F11947   3.625   3.601   9.618  0.1173  0.1763  0.6360
  114OSM   C10F11948   3.755   3.501   9.476  0.5138  0.7247 -0.0063
  114OSM   H10F11949   3.694   3.518   9.386  0.6938  1.0193 -0.0742
  114OSM   C11F11950   3.880   3.419   9.444 -0.3918  0.0814 -0.5603
  114OSM   H11F11951   3.927   3.369   9.531 -0.0675 -0.3678 -0.9893
  114OSM   H11G11952   3.944   3.497   9.399 -1.6222  0.7470 -1.1986
  114OSM   C12F11953   3.853   3.304   9.333 -0.8952 -0.1331  0.2092
  114OSM   H12F11954   3.802   3.217   9.380  1.4055 -0.8481  1.5262
  114OSM   H12G11955   3.950   3.263   9.297 -0.1016  1.3229  0.6041
  114OSM   C13F11956   3.773   3.341   9.205  0.0636 -0.1252 -0.1930
  114OSM   H13F11957   3.837   3.399   9.135 -0.9719  0.7276 -0.4598
  114OSM   H13G11958   3.682   3.401   9.229  0.9819  1.5027 -0.6401
  114OSM   C14F11959   3.751   3.219   9.118  0.3634 -0.3930  0.0741
  114OSM   H14F11960   3.691   3.148   9.179 -0.7089  0.6495  0.2750
  114OSM   H14G11961   3.853   3.181   9.094  0.0955 -0.1595 -1.5302
  114OSM   C15F11962   3.680   3.253   8.989 -0.9217  0.1483  0.6085
  114OSM   H15F11963   3.747   3.330   8.947  0.1408 -1.5662 -0.9781
  114OSM   H15G11964   3.578   3.298   8.998 -1.4134 -1.1958  2.3757
  114OSM   C16F11965   3.672   3.134   8.895  0.1880  0.3184  1.0871
  114OSM   H16F11966   3.600   3.064   8.941  0.8593 -1.5642 -0.5770
  114OSM   H16G11967   3.767   3.077   8.882  0.5383  1.4716 -2.4502
  114OSM   C17F11968   3.627   3.162   8.755 -0.0063  0.2295  0.2535
  114OSM   H17F11969   3.625   3.070   8.693 -0.8645  1.3092 -1.3813
  114OSM   H17G11970   3.699   3.235   8.712 -0.7488  1.6523  1.3255
  114OSM   C18F11971   3.484   3.222   8.748 -0.2728 -0.3248  0.1596
  114OSM   H18F11972   3.407   3.154   8.789  0.0177 -1.7889 -1.5758
  114OSM   H18G11973   3.455   3.236   8.642  0.5239  0.7999  0.0720
  114OSM   H18H11974   3.477   3.323   8.794 -1.5493 -0.5857  0.5737
  115OSM      N11975   1.956   3.317  10.748 -0.1407  0.4524 -0.5049
  115OSM    C1511976   1.997   3.328  10.607  0.4030  0.2326 -0.1528
  115OSM   H15A11977   2.075   3.402  10.603 -1.2004  1.9256 -1.8259
  115OSM   H15B11978   1.929   3.374  10.538 -0.5317 -0.8688 -0.0081
  115OSM   H15C11979   2.028   3.233  10.565  0.3847 -0.1388  0.6398
  115OSM    C1411980   2.068   3.250  10.823  0.2000  1.0875 -0.2912
  115OSM   H14A11981   2.042   3.238  10.927  2.0067  0.1923  0.1092
  115OSM   H14B11982   2.163   3.302  10.829  1.0639 -0.4909  0.7075
  115OSM   H14C11983   2.096   3.150  10.793  2.4106  0.7324  2.4403
  115OSM    C1311984   1.930   3.457  10.802 -0.9952 -0.1689  0.4329
  115OSM   H13A11985   1.859   3.504  10.735  1.3898 -0.0165 -2.1496
  115OSM   H13B11986   2.016   3.519  10.785 -0.0340 -1.8086 -0.9901
  115OSM   H13C11987   1.897   3.465  10.905 -1.4190 -0.9561  0.3700
  115OSM    C1211988   1.829   3.238  10.756  0.3979 -0.0499  0.3742
  115OSM   H12A11989   1.854   3.146  10.706 -0.0981  0.0275 -0.0220
  115OSM   H12B11990   1.755   3.293  10.701 -0.2809  0.5456  1.8351
  115OSM    C1111991   1.767   3.202  10.891  0.2423 -0.6776 -0.1006
  115OSM   H11A11992   1.843   3.165  10.963 -0.8510  1.2987  2.2086
  115OSM   H11B11993   1.691   3.123  10.871 -1.0580  0.1408  1.2855
  115OSM      P11994   1.539   3.326  10.972  0.2595 -0.3387 -0.0551
  115OSM    O1311995   1.486   3.210  11.048 -0.0519 -0.5147 -0.3947
  115OSM    O1411996   1.495   3.459  11.022 -0.4206 -0.1604  0.2361
  115OSM    O1111997   1.485   3.323  10.819 -0.0952 -0.3753 -0.0523
  115OSM    O1211998   1.701   3.310  10.966  0.3350  0.3047  0.0681
  115OSM    C1S11999   1.505   3.445  10.741  0.3689 -0.2552  0.0850
  115OSM    H1S12000   1.615   3.454  10.727  0.3294 -0.3178 -0.2791
  115OSM    H1T12001   1.460   3.538  10.782  1.9141  0.4193  0.3386
  115OSM     NF12002   1.499   3.519  10.510 -0.4483  0.3433  0.1349
  115OSM    HNF12003   1.432   3.579  10.466 -0.4561  0.6538  0.5700
  115OSM    C2S12004   1.456   3.417  10.597 -0.2977  0.8672 -0.1255
  115OSM    H2S12005   1.504   3.321  10.569 -0.1335  1.4642 -1.9582
  115OSM    C3S12006   1.302   3.391  10.611  0.7057 -0.4190 -0.4350
  115OSM    H3S12007   1.251   3.477  10.659 -0.7454 -2.4517  1.8731
  115OSM     O312008   1.262   3.280  10.693  0.5574 -0.2316  0.2812
  115OSM    HO312009   1.333   3.283  10.757 -0.3927 -0.3947  1.3766
  115OSM    C4S12010   1.238   3.377  10.471 -0.4572  0.5068 -1.2659
  115OSM    H4S12011   1.270   3.276  10.438  0.6491  0.5081 -0.2595
  115OSM    C5S12012   1.169   3.469  10.401  0.2503  0.5219  0.8848
  115OSM    H5S12013   1.141   3.565  10.447  1.5420  2.2843 -1.7464
  115OSM    C6S12014   1.114   3.439  10.263  0.1099  0.6333  0.4770
  115OSM    H6S12015   1.051   3.348  10.260 -0.7667  1.2459  0.0391
  115OSM    H6T12016   1.199   3.432  10.191 -2.1798  1.8311 -2.5427
  115OSM    C7S12017   1.020   3.547  10.206  0.1289 -0.5508 -0.7395
  115OSM    H7S12018   1.077   3.642  10.206  1.3154 -1.2401 -0.0719
  115OSM    H7T12019   0.931   3.564  10.270  1.3046 -1.7256  1.3070
  115OSM    C8S12020   0.971   3.512  10.067 -0.2134 -0.1685  0.1239
  115OSM    H8S12021   0.910   3.592  10.021 -2.1074 -1.1252  0.8383
  115OSM    H8T12022   0.894   3.431  10.072 -0.9652  0.6151  3.0548
  115OSM    C9S12023   1.082   3.489   9.963  0.3052  0.1993 -1.0182
  115OSM    H9S12024   1.154   3.408   9.990  3.2074  3.1873  0.9523
  115OSM    H9T12025   1.154   3.573   9.972  0.1425  0.1481  1.4959
  115OSM   C10S12026   1.019   3.471   9.831  0.7707 -0.2323  0.3070
  115OSM   H10S12027   0.940   3.546   9.812 -0.2852 -1.1151  1.0744
  115OSM   H10T12028   0.966   3.374   9.833  2.7586 -1.4049 -0.7400
  115OSM   C11S12029   1.125   3.485   9.719 -0.3336  0.9149  0.8649
  115OSM   H11S12030   1.200   3.405   9.739 -0.5718  0.9563  2.0112
  115OSM   H11T12031   1.170   3.586   9.729 -1.7264  1.5428  0.9342
  115OSM   C12S12032   1.065   3.478   9.578  0.0005  0.3185  0.6341
  115OSM   H12S12033   0.965   3.527   9.578 -0.2163 -0.1147  0.6893
  115OSM   H12T12034   1.043   3.371   9.558  1.0048  0.5073 -1.7614
  115OSM   C13S12035   1.148   3.532   9.465 -0.1716  0.7837  0.8317
  115OSM   H13S12036   1.246   3.481   9.457 -1.1508 -0.9010 -1.2082
  115OSM   H13T12037   1.176   3.634   9.501 -0.5944  1.6729 -1.2431
  115OSM   C14S12038   1.068   3.541   9.336 -0.7347 -0.2265  0.4175
  115OSM   H14S12039   1.112   3.620   9.273 -1.7468  0.8887  1.0649
  115OSM   H14T12040   0.966   3.570   9.369 -0.9754  0.3247 -0.7718
  115OSM   C15S12041   1.052   3.399   9.267 -0.6352  0.1100  0.2136
  115OSM   H15S12042   1.005   3.328   9.339 -0.7088 -3.4650 -3.0390
  115OSM   H15T12043   1.152   3.360   9.240 -0.4674  1.0485 -0.5928
  115OSM   C16S12044   0.966   3.411   9.136 -0.6002  0.1936 -0.1591
  115OSM   H16S12045   0.865   3.442   9.170 -0.2503  0.6092  0.5125
  115OSM   H16T12046   0.961   3.313   9.085  0.8602 -0.8190  1.5250
  115OSM   C17S12047   1.001   3.511   9.026 -0.8470  0.5083 -0.3116
  115OSM   H17S12048   1.110   3.502   9.009 -0.7538  0.3221  0.3563
  115OSM   H17T12049   0.981   3.612   9.068  2.3996  1.2118 -0.1909
  115OSM   C18S12050   0.928   3.487   8.893  0.0710 -0.7765  0.6128
  115OSM   H18S12051   0.961   3.562   8.818 -0.5419 -0.3943  0.7234
  115OSM   H18T12052   0.819   3.501   8.908 -0.0127 -0.4036 -0.2929
  115OSM   H18U12053   0.948   3.381   8.868  3.6260  0.3418 -2.2060
  115OSM    C1F12054   1.626   3.544  10.470  0.4253 -0.1167  0.5546
  115OSM     OF12055   1.712   3.480  10.516  0.6360  0.3752  0.0994
  115OSM    C2F12056   1.654   3.660  10.373  0.5609  0.2648 -0.8863
  115OSM    H2F12057   1.647   3.751  10.438 -1.3764 -0.3630 -0.1443
  115OSM    H2G12058   1.582   3.674  10.290 -0.1243  0.2252 -0.3116
  115OSM    C3F12059   1.803   3.648  10.329 -0.4376 -0.4619  0.2988
  115OSM    H3F12060   1.873   3.621  10.411  1.3297 -1.7746 -1.5421
  115OSM    H3G12061   1.837   3.752  10.310 -1.6824  0.3360  2.0399
  115OSM    C4F12062   1.834   3.550  10.212 -0.5576 -0.3388  0.2593
  115OSM    H4F12063   1.763   3.465  10.202 -2.9078  1.7759 -2.9294
  115OSM    H4G12064   1.938   3.511  10.213 -1.0298 -1.7188  2.0793
  115OSM    C5F12065   1.818   3.623  10.087  0.0513  0.3738  1.0555
  115OSM    H5F12066   1.888   3.709  10.089 -0.7723  1.0906  0.3191
  115OSM    H5G12067   1.718   3.671  10.081  0.4731  1.1453 -0.2952
  115OSM    C6F12068   1.833   3.537   9.965  0.6897 -0.5207 -0.0314
  115OSM    H6F12069   1.747   3.467   9.962  0.8751 -0.7135 -1.8107
  115OSM    H6G12070   1.920   3.469   9.977  0.0320 -0.9249  3.2700
  115OSM    C7F12071   1.838   3.623   9.838  0.1060  0.2311 -0.6027
  115OSM    H7F12072   1.928   3.687   9.838  2.0949 -2.3399  1.6588
  115OSM    H7G12073   1.748   3.687   9.829 -1.0792 -1.3614 -0.6616
  115OSM    C8F12074   1.844   3.541   9.709 -0.3391 -0.3122  0.0658
  115OSM    H8F12075   1.748   3.486   9.699 -1.3339  1.1253  1.4035
  115OSM    H8G12076   1.917   3.458   9.726 -0.0531  0.1408  1.0921
  115OSM    C9F12077   1.886   3.625   9.592  0.0033 -0.1849 -0.4215
  115OSM    H9F12078   1.974   3.685   9.620  1.3632 -2.3679  0.2708
  115OSM   C10F12079   1.833   3.621   9.466 -0.9592  0.5622 -0.4704
  115OSM   H10F12080   1.885   3.685   9.393  0.1286  0.4523  0.1896
  115OSM   C11F12081   1.731   3.523   9.421  0.4265  0.3917  0.8028
  115OSM   H11F12082   1.626   3.553   9.443  0.0199  0.9750 -1.5883
  115OSM   H11G12083   1.740   3.428   9.478  1.3651  0.3511  0.5975
  115OSM   C12F12084   1.734   3.492   9.271  0.4393  0.3180  0.2113
  115OSM   H12F12085   1.673   3.401   9.255 -0.6887  1.4301 -2.4413
  115OSM   H12G12086   1.836   3.459   9.242  0.8583  1.1005  0.7451
  115OSM   C13F12087   1.679   3.611   9.187  0.0006  0.8089  0.1591
  115OSM   H13F12088   1.752   3.693   9.173  0.3171  0.0901 -3.2890
  115OSM   H13G12089   1.591   3.650   9.243 -0.8326 -0.6999 -0.0311
  115OSM   C14F12090   1.643   3.569   9.043 -0.8089  0.6609  0.1098
  115OSM   H14F12091   1.558   3.499   9.058 -0.8452  0.3783 -1.2687
  115OSM   H14G12092   1.736   3.524   9.001  1.2068  2.9360  1.8426
  115OSM   C15F12093   1.602   3.678   8.952  0.1521 -0.3106  0.3039
  115OSM   H15F12094   1.680   3.754   8.928  0.0169  0.0021  0.8469
  115OSM   H15G12095   1.530   3.741   9.008 -0.5290 -0.7081 -0.1127
  115OSM   C16F12096   1.531   3.635   8.823  0.1065 -0.1822  0.5291
  115OSM   H16F12097   1.588   3.564   8.760  3.2067  1.5553  1.1441
  115OSM   H16G12098   1.524   3.719   8.751 -2.4976 -1.3712 -0.7152
  115OSM   C17F12099   1.382   3.600   8.852 -0.4568  0.3419  0.0794
  115OSM   H17F12100   1.332   3.682   8.908 -1.3619  1.8960 -2.8189
  115OSM   H17G12101   1.378   3.516   8.925  0.6304  0.2969  0.1047
  115OSM   C18F12102   1.305   3.591   8.723  0.6613 -0.2476  0.5163
  115OSM   H18F12103   1.211   3.532   8.731 -0.4142  1.3697  0.1864
  115OSM   H18G12104   1.367   3.551   8.641  0.8725 -1.0259  1.0413
  115OSM   H18H12105   1.280   3.695   8.695  3.0161  0.1069 -0.4971
  116OSM      N12106   3.834   6.015  10.891 -0.7650  0.1591 -0.2115
  116OSM    C1512107   3.836   5.905  10.790 -0.3591  0.3097  0.1299
  116OSM   H15A12108   3.934   5.899  10.745 -0.0621  0.0885  0.7907
  116OSM   H15B12109   3.769   5.926  10.709 -0.4606 -0.6019 -0.0288
  116OSM   H15C12110   3.810   5.806  10.825 -0.3679 -0.1003 -0.9960
  116OSM    C1412111   3.715   6.010  10.982  1.0019  0.3418 -0.4464
  116OSM   H14A12112   3.722   6.088  11.057 -1.0018 -2.4571  2.9453
  116OSM   H14B12113   3.707   5.920  11.041  2.3439 -0.2078 -1.0644
  116OSM   H14C12114   3.617   6.019  10.939 -0.2507 -1.3586  1.8379
  116OSM    C1312115   3.969   6.001  10.962  0.5218 -0.8740 -0.1943
  116OSM   H13A12116   3.985   6.072  11.041 -1.6392 -0.8156  0.2437
  116OSM   H13B12117   4.041   6.008  10.881  1.5888  1.4175  0.8843
  116OSM   H13C12118   3.979   5.900  11.001  0.8791 -0.6833  0.2099
  116OSM    C1212119   3.832   6.148  10.810 -0.0134 -0.3469  0.9932
  116OSM   H12A12120   3.828   6.221  10.889 -0.6379 -0.0684  0.7127
  116OSM   H12B12121   3.744   6.146  10.747  1.2963 -0.1171 -0.9287
  116OSM    C1112122   3.948   6.186  10.714  0.3617 -0.9892 -0.8062
  116OSM   H11A12123   3.937   6.276  10.649  2.2960 -0.7373 -0.8508
  116OSM   H11B12124   3.948   6.108  10.635  0.3422 -0.2668 -1.5418
  116OSM      P12125   4.125   6.309  10.855 -0.1390  0.2187  0.4812
  116OSM    O1312126   4.034   6.338  10.967 -0.0456 -0.0878 -0.1531
  116OSM    O1412127   4.268   6.287  10.893 -0.1249  0.0896 -0.0058
  116OSM    O1112128   4.118   6.428  10.749  0.0729 -0.3465  0.2440
  116OSM    O1212129   4.073   6.188  10.772 -0.3344  0.0670 -0.1813
  116OSM    C1S12130   4.181   6.406  10.622  0.2919  0.1871 -0.0843
  116OSM    H1S12131   4.158   6.309  10.573  0.6564  0.6458 -1.1969
  116OSM    H1T12132   4.292   6.400  10.633  0.2140 -0.6356  0.3333
  116OSM     NF12133   4.205   6.512  10.392  0.1454  0.6248 -0.0094
  116OSM    HNF12134   4.293   6.555  10.372 -0.4335  2.0472  0.3346
  116OSM    C2S12135   4.147   6.529  10.527  0.2409 -0.0389  0.3913
  116OSM    H2S12136   4.036   6.531  10.521  0.2542  1.9195  0.2319
  116OSM    C3S12137   4.174   6.666  10.593 -0.1267 -0.4134  0.0249
  116OSM    H3S12138   4.281   6.664  10.622 -0.0379  1.0734 -0.1178
  116OSM     O312139   4.103   6.684  10.714 -0.6854  0.3591 -0.1600
  116OSM    HO312140   4.071   6.595  10.731  0.6312  0.1207  1.2965
  116OSM    C4S12141   4.127   6.778  10.514  0.4665 -1.0131 -0.5268
  116OSM    H4S12142   4.018   6.791  10.508  0.7090  3.1911  0.7823
  116OSM    C5S12143   4.209   6.866  10.456 -0.6127  0.5180  0.3347
  116OSM    H5S12144   4.318   6.852  10.459 -0.2424  2.8158 -0.4450
  116OSM    C6S12145   4.162   6.975  10.364 -0.1555 -0.9603 -0.0070
  116OSM    H6S12146   4.136   7.065  10.423  0.6396 -0.7582  0.0464
  116OSM    H6T12147   4.061   6.954  10.322  0.2976  0.5599 -2.0340
  116OSM    C7S12148   4.244   7.010  10.236 -0.7360 -0.6851  0.1196
  116OSM    H7S12149   4.342   7.059  10.256 -0.3502 -1.0190 -0.9113
  116OSM    H7T12150   4.173   7.075  10.180 -0.2195 -0.3401 -0.1458
  116OSM    C8S12151   4.265   6.881  10.152 -0.3505  0.8919  0.4284
  116OSM    H8S12152   4.165   6.834  10.144  0.3516 -0.4465 -1.0158
  116OSM    H8T12153   4.334   6.815  10.209  1.2536  0.7409 -1.5753
  116OSM    C9S12154   4.338   6.913  10.025 -0.1529  0.1666 -0.3434
  116OSM    H9S12155   4.358   6.810   9.988  0.3033 -0.6078  1.8539
  116OSM    H9T12156   4.435   6.962  10.047 -0.2892  0.7589 -1.0278
  116OSM   C10S12157   4.250   6.991   9.930  0.1488 -0.0284  0.0497
  116OSM   H10S12158   4.238   7.098   9.958  1.7989  0.4037 -0.7802
  116OSM   H10T12159   4.148   6.946   9.936  0.0245  0.0475 -1.2361
  116OSM   C11S12160   4.308   6.969   9.792  0.0886 -0.3583  0.3143
  116OSM   H11S12161   4.311   6.861   9.767 -1.6404 -0.8332  1.9690
  116OSM   H11T12162   4.414   7.002   9.784 -0.3740  1.1642  0.0077
  116OSM   C12S12163   4.239   7.041   9.676  0.4033 -0.4023  0.3280
  116OSM   H12S12164   4.209   7.144   9.704  1.2601  0.2688 -1.1213
  116OSM   H12T12165   4.141   6.989   9.666  0.8225 -1.3345  0.9583
  116OSM   C13S12166   4.322   7.063   9.548  0.0688 -0.8919 -0.3829
  116OSM   H13S12167   4.348   6.966   9.501  1.0814  0.2717 -2.3157
  116OSM   H13T12168   4.425   7.094   9.576  0.0811 -0.9037 -0.4165
  116OSM   C14S12169   4.261   7.166   9.457 -0.0339  0.4495 -0.2477
  116OSM   H14S12170   4.301   7.267   9.483  0.8807  0.4426 -1.5650
  116OSM   H14T12171   4.151   7.160   9.468  0.1360 -2.5509  0.7916
  116OSM   C15S12172   4.286   7.152   9.307  0.7745  0.1676 -0.4579
  116OSM   H15S12173   4.234   7.234   9.252 -0.2763  0.1267  0.4398
  116OSM   H15T12174   4.235   7.056   9.283  0.7126 -0.2559  1.2947
  116OSM   C16S12175   4.429   7.150   9.255 -0.1833 -0.1942  0.2727
  116OSM   H16S12176   4.507   7.101   9.316  0.2533  0.0340 -0.0931
  116OSM   H16T12177   4.456   7.258   9.251 -0.9448  0.0322  1.0524
  116OSM   C17S12178   4.434   7.069   9.124 -0.5372  0.4273 -0.1480
  116OSM   H17S12179   4.374   7.124   9.048 -0.0660  2.4595  0.8546
  116OSM   H17T12180   4.392   6.967   9.133 -2.2959  1.1768  0.6216
  116OSM   C18S12181   4.578   7.061   9.063 -0.1539 -0.0488 -0.2745
  116OSM   H18S12182   4.646   7.005   9.132  0.9917  1.6368  0.0158
  116OSM   H18T12183   4.629   7.158   9.049  0.2661 -0.1897  0.2342
  116OSM   H18U12184   4.589   7.009   8.965 -1.0245 -0.3560 -0.2155
  116OSM    C1F12185   4.162   6.404  10.317  0.5156 -0.8177 -1.0856
  116OSM     OF12186   4.072   6.330  10.355  0.1868  0.4720 -0.2541
  116OSM    C2F12187   4.247   6.378  10.200 -0.5326 -0.4083  0.2129
  116OSM    H2F12188   4.259   6.268  10.188 -0.0077 -0.1729 -1.6949
  116OSM    H2G12189   4.350   6.417  10.208 -1.5903  3.1910 -1.6302
  116OSM    C3F12190   4.186   6.447  10.072 -0.3166  0.0383 -0.3706
  116OSM    H3F12191   4.168   6.552  10.100 -0.4175  0.2765 -1.3040
  116OSM    H3G12192   4.090   6.397  10.046 -0.3321 -0.0688 -0.1119
  116OSM    C4F12193   4.281   6.441   9.952  0.0115  0.7660  0.5519
  116OSM    H4F12194   4.292   6.337   9.913 -1.0895  1.3057 -1.3503
  116OSM    H4G12195   4.384   6.476   9.977 -0.1442  0.0168  2.4186
  116OSM    C5F12196   4.223   6.526   9.842  0.3691 -0.3158 -0.1154
  116OSM    H5F12197   4.192   6.625   9.880 -0.8423 -0.3767 -0.8874
  116OSM    H5G12198   4.135   6.475   9.798 -0.3415  1.1302 -0.4057
  116OSM    C6F12199   4.323   6.552   9.732  0.0336 -0.1083  0.1144
  116OSM    H6F12200   4.370   6.457   9.700 -1.6876 -0.8885 -0.2270
  116OSM    H6G12201   4.403   6.618   9.772  1.5112 -2.1970  0.7540
  116OSM    C7F12202   4.256   6.619   9.607  0.1153 -0.2962  0.0484
  116OSM    H7F12203   4.214   6.717   9.638  0.3544 -0.7775  1.9915
  116OSM    H7G12204   4.166   6.556   9.587  0.8865 -2.5487  2.9779
  116OSM    C8F12205   4.337   6.613   9.484  0.1666 -0.0700  0.1953
  116OSM    H8F12206   4.370   6.510   9.455 -2.7478 -0.7616 -1.0017
  116OSM    H8G12207   4.433   6.661   9.511 -0.1045 -0.0309  1.0982
  116OSM    C9F12208   4.272   6.679   9.361  0.6998  0.4682 -0.5292
  116OSM    H9F12209   4.189   6.742   9.396 -1.1038 -2.5715  1.0385
  116OSM   C10F12210   4.306   6.680   9.234 -0.5936 -0.0323 -0.4104
  116OSM   H10F12211   4.243   6.731   9.159 -0.4204  0.6551 -0.0895
  116OSM   C11F12212   4.428   6.606   9.186  0.7130 -0.6589 -0.0849
  116OSM   H11F12213   4.442   6.508   9.238 -1.4571 -0.6780  0.5743
  116OSM   H11G12214   4.512   6.675   9.207  0.8811 -0.5682 -1.0056
  116OSM   C12F12215   4.433   6.600   9.030  0.2339  0.0657 -0.1458
  116OSM   H12F12216   4.350   6.541   8.985  0.8300 -1.0212  0.1464
  116OSM   H12G12217   4.524   6.543   9.004 -0.9786 -1.3291 -1.5395
  116OSM   C13F12218   4.436   6.737   8.950  0.1485  0.4758  0.3477
  116OSM   H13F12219   4.530   6.793   8.971  2.2240 -1.9506 -1.7637
  116OSM   H13G12220   4.344   6.794   8.972  0.0915  0.3370  0.4728
  116OSM   C14F12221   4.434   6.709   8.799  0.5032  0.2098  0.4063
  116OSM   H14F12222   4.359   6.630   8.780  0.5592 -0.3082  2.1090
  116OSM   H14G12223   4.529   6.665   8.761 -1.7153 -2.3253 -2.6686
  116OSM   C15F12224   4.415   6.840   8.717  0.3117 -0.3764  0.0928
  116OSM   H15F12225   4.517   6.882   8.711  0.4971 -0.4846  2.0177
  116OSM   H15G12226   4.350   6.911   8.773  2.3918  2.0258 -0.3563
  116OSM   C16F12227   4.362   6.803   8.573  0.7423 -0.2049 -0.1286
  116OSM   H16F12228   4.254   6.780   8.572  0.6766  0.0028  1.2290
  116OSM   H16G12229   4.411   6.713   8.530 -0.4448 -1.1189  0.3790
  116OSM   C17F12230   4.400   6.921   8.479  0.2542  0.5480  0.1742
  116OSM   H17F12231   4.367   6.897   8.376 -0.0525  0.4927  0.2870
  116OSM   H17G12232   4.511   6.931   8.479  0.1754  2.0015  2.2524
  116OSM   C18F12233   4.347   7.061   8.524  0.5587 -0.9237 -0.3163
  116OSM   H18F12234   4.381   7.088   8.626 -2.0858  3.0321 -0.2634
  116OSM   H18G12235   4.236   7.052   8.528  0.5857 -0.8633  0.9760
  116OSM   H18H12236   4.377   7.134   8.446 -0.9132 -0.7934 -0.7945
  117OSM      N12237   1.446   0.835  11.094  0.4836 -0.2883 -0.1433
  117OSM    C1512238   1.397   0.969  11.036 -0.6297  0.1889  0.8238
  117OSM   H15A12239   1.375   0.958  10.930  2.3888 -1.0087  0.2291
  117OSM   H15B12240   1.476   1.039  11.056  1.5603 -2.0583  0.5095
  117OSM   H15C12241   1.315   1.007  11.095  0.3670 -1.4986  3.4491
  117OSM    C1412242   1.443   0.840  11.246 -0.4823  0.0115  0.7678
  117OSM   H14A12243   1.488   0.935  11.272 -3.0625  1.0466  1.8662
  117OSM   H14B12244   1.503   0.757  11.278  1.5198  0.0536 -2.5025
  117OSM   H14C12245   1.339   0.833  11.274 -0.4349 -1.9691  0.5450
  117OSM    C1312246   1.365   0.723  11.042  0.5525 -0.0231  0.2875
  117OSM   H13A12247   1.347   0.733  10.936 -0.3790 -2.4534  0.1674
  117OSM   H13B12248   1.278   0.712  11.105  0.1066 -1.4949 -0.5580
  117OSM   H13C12249   1.424   0.633  11.047  1.9836  0.8572 -0.0279
  117OSM    C1212250   1.588   0.803  11.043  0.5514  0.3743 -0.4038
  117OSM   H12A12251   1.641   0.896  11.023 -0.5026  0.6016 -2.4663
  117OSM   H12B12252   1.584   0.775  10.939  0.2637  0.8344 -0.5228
  117OSM    C1112253   1.683   0.702  11.116  0.1107  0.5362 -0.2554
  117OSM   H11A12254   1.685   0.728  11.224  1.7494 -0.7636  0.0605
  117OSM   H11B12255   1.782   0.723  11.070 -0.7725  2.9137 -1.2690
  117OSM      P12256   1.662   0.494  10.956 -0.3191  0.2887  0.0047
  117OSM    O1312257   1.809   0.494  10.955  0.1666 -0.0834 -0.0994
  117OSM    O1412258   1.595   0.363  10.946  0.1832 -0.1898 -0.0919
  117OSM    O1112259   1.614   0.593  10.835  0.1586  0.8373  0.0882
  117OSM    O1212260   1.624   0.574  11.086  0.2542 -0.1835  0.1125
  117OSM    C1S12261   1.696   0.658  10.743 -0.1131 -0.3967 -0.0542
  117OSM    H1S12262   1.794   0.607  10.733  0.4614  0.7298 -0.3498
  117OSM    H1T12263   1.719   0.761  10.778 -1.0210 -0.6064  1.2090
  117OSM     NF12264   1.726   0.742  10.509 -0.4730  0.0496 -0.6270
  117OSM    HNF12265   1.714   0.839  10.489  0.2465  0.1163 -0.7538
  117OSM    C2S12266   1.635   0.674  10.595  0.0395  0.3828 -0.5696
  117OSM    H2S12267   1.620   0.579  10.540 -0.5496  0.2688 -0.2159
  117OSM    C3S12268   1.496   0.740  10.609  0.0013 -0.7194  0.1348
  117OSM    H3S12269   1.511   0.843  10.649  0.1059 -1.4057  1.9528
  117OSM     O312270   1.412   0.669  10.698 -0.2329 -0.6237  0.4361
  117OSM    HO312271   1.475   0.605  10.734 -0.5396 -0.4828  1.2608
  117OSM    C4S12272   1.432   0.754  10.471 -0.6095  0.0807  0.6382
  117OSM    H4S12273   1.419   0.861  10.447 -0.4209 -0.2756 -1.1455
  117OSM    C5S12274   1.407   0.657  10.378  0.1390 -0.2473 -0.5243
  117OSM    H5S12275   1.432   0.554  10.408  1.9343  0.6108  1.0932
  117OSM    C6S12276   1.348   0.690  10.248 -0.0078  0.2273  1.1457
  117OSM    H6S12277   1.264   0.763  10.249 -0.3532 -0.0077 -2.0165
  117OSM    H6T12278   1.294   0.600  10.209 -0.8983  0.3204  2.1153
  117OSM    C7S12279   1.466   0.705  10.150 -1.2610 -0.4789  0.0506
  117OSM    H7S12280   1.546   0.628  10.157 -2.6774 -2.1110 -0.8523
  117OSM    H7T12281   1.514   0.803  10.172 -0.0450 -0.8415 -0.8489
  117OSM    C8S12282   1.442   0.714   9.998 -0.1911 -0.5282 -0.8607
  117OSM    H8S12283   1.361   0.788   9.984 -0.0256 -0.3575 -0.9245
  117OSM    H8T12284   1.402   0.617   9.961  0.0434 -1.2806  0.7593
  117OSM    C9S12285   1.568   0.765   9.922 -0.0474  0.2954 -0.6228
  117OSM    H9S12286   1.648   0.688   9.915 -2.2934 -2.1060 -1.2548
  117OSM    H9T12287   1.608   0.856   9.971 -1.0846  0.7437 -0.5925
  117OSM   C10S12288   1.544   0.811   9.776  0.4150  0.2176 -0.3345
  117OSM   H10S12289   1.640   0.839   9.728  0.0617  0.2187 -1.0440
  117OSM   H10T12290   1.472   0.894   9.792  0.5954  0.3804 -0.3723
  117OSM   C11S12291   1.471   0.712   9.685  0.0088 -0.1392 -0.2738
  117OSM   H11S12292   1.371   0.691   9.730 -0.1185  0.0403 -0.4728
  117OSM   H11T12293   1.523   0.614   9.698 -1.4821 -0.7181  2.1555
  117OSM   C12S12294   1.472   0.771   9.544  0.2117 -0.1684 -0.2461
  117OSM   H12S12295   1.567   0.741   9.494 -0.2351 -2.1284 -0.0193
  117OSM   H12T12296   1.468   0.882   9.545  0.9148 -0.0721 -2.5749
  117OSM   C13S12297   1.347   0.734   9.466  0.1444  0.5542  0.0637
  117OSM   H13S12298   1.272   0.789   9.526 -0.6185 -0.8847  0.4694
  117OSM   H13T12299   1.337   0.624   9.473  0.2316  0.5124 -0.4707
  117OSM   C14S12300   1.344   0.776   9.314 -0.5819 -0.1645 -0.0477
  117OSM   H14S12301   1.412   0.719   9.248  1.3103  1.3655  0.4782
  117OSM   H14T12302   1.375   0.883   9.315  3.8894 -1.2367 -0.6303
  117OSM   C15S12303   1.208   0.746   9.241 -0.9865  0.1938 -0.0532
  117OSM   H15S12304   1.128   0.816   9.276 -1.8523 -0.9548  0.3164
  117OSM   H15T12305   1.172   0.650   9.283  1.1089 -0.8936 -0.6431
  117OSM   C16S12306   1.223   0.752   9.090  0.5964 -0.2565  0.9314
  117OSM   H16S12307   1.124   0.729   9.045  0.6779  2.1208 -0.5650
  117OSM   H16T12308   1.290   0.667   9.065  2.1996  0.9143  1.1404
  117OSM   C17S12309   1.283   0.888   9.026  0.2346  0.1437 -0.8260
  117OSM   H17S12310   1.376   0.904   9.084  0.3361  0.9105 -1.1968
  117OSM   H17T12311   1.207   0.966   9.049 -1.0235 -0.6151 -2.2003
  117OSM   C18S12312   1.313   0.878   8.880 -0.2494 -0.1719  0.1979
  117OSM   H18S12313   1.394   0.806   8.859 -0.3625 -0.3086  0.2255
  117OSM   H18T12314   1.354   0.972   8.839  0.9698 -0.7662  0.0262
  117OSM   H18U12315   1.225   0.836   8.826 -1.4399  0.6824  1.3909
  117OSM    C1F12316   1.833   0.679  10.457  0.6362 -0.2044 -0.0050
  117OSM     OF12317   1.855   0.561  10.488  0.0872 -0.2349 -0.2958
  117OSM    C2F12318   1.920   0.772  10.379  0.6547  0.1528 -0.0223
  117OSM    H2F12319   1.979   0.829  10.453  1.3137 -2.1906  1.3896
  117OSM    H2G12320   1.857   0.842  10.320  3.6919  0.2416 -3.5684
  117OSM    C3F12321   2.020   0.692  10.287 -0.4126  0.1037  0.6782
  117OSM    H3F12322   2.058   0.600  10.336  1.8338 -0.0193 -1.1218
  117OSM    H3G12323   2.107   0.760  10.282 -0.8343  0.5809 -1.1651
  117OSM    C4F12324   1.958   0.661  10.152 -0.2855 -0.2350 -0.2984
  117OSM    H4F12325   1.951   0.750  10.085 -1.1761  0.3179  0.5089
  117OSM    H4G12326   1.853   0.631  10.170 -0.5305  0.4982 -0.4601
  117OSM    C5F12327   2.036   0.563  10.067 -0.9726 -0.6161  0.7029
  117OSM    H5F12328   2.044   0.462  10.112  1.0762 -1.2481 -0.8970
  117OSM    H5G12329   2.137   0.609  10.060 -1.0724 -0.6205 -1.4685
  117OSM    C6F12330   1.990   0.549   9.920 -0.0074 -0.5448 -0.4067
  117OSM    H6F12331   1.890   0.596   9.905 -0.0679  0.5071  2.5606
  117OSM    H6G12332   1.981   0.442   9.892 -2.4676 -0.4050 -0.3531
  117OSM    C7F12333   2.081   0.619   9.818 -0.2310 -0.1075 -0.3849
  117OSM    H7F12334   2.186   0.585   9.828  0.6308  2.2323 -0.8188
  117OSM    H7G12335   2.101   0.725   9.846 -0.0284 -0.2890  0.1738
  117OSM    C8F12336   2.029   0.605   9.672 -0.2379 -0.1783  0.6223
  117OSM    H8F12337   2.004   0.499   9.649  1.5705 -0.4984 -0.0797
  117OSM    H8G12338   2.110   0.632   9.601  0.3296 -0.3431  1.2014
  117OSM    C9F12339   1.897   0.681   9.640 -0.3985  0.8965 -0.4795
  117OSM    H9F12340   1.818   0.667   9.715  0.4259  1.8627  0.6091
  117OSM   C10F12341   1.864   0.752   9.530  0.1961 -0.7803 -0.3894
  117OSM   H10F12342   1.769   0.807   9.536  2.6925  4.0843 -0.6688
  117OSM   C11F12343   1.952   0.786   9.410 -0.0110  0.1756  0.8374
  117OSM   H11F12344   2.056   0.746   9.421  0.0371 -0.3845 -1.2454
  117OSM   H11G12345   1.954   0.896   9.392  1.1194  0.0097 -0.1813
  117OSM   C12F12346   1.892   0.714   9.278  0.5518  0.6110 -0.8264
  117OSM   H12F12347   1.793   0.765   9.268  0.3096  0.2976 -0.0554
  117OSM   H12G12348   1.877   0.607   9.302  0.7680  0.2827 -2.0980
  117OSM   C13F12349   1.978   0.743   9.155 -0.3251 -0.4381 -0.1639
  117OSM   H13F12350   2.080   0.705   9.177 -1.4766 -3.7863 -0.1064
  117OSM   H13G12351   1.986   0.854   9.154 -0.5843 -0.4058  0.7529
  117OSM   C14F12352   1.923   0.695   9.020  0.4210  0.4487  0.2107
  117OSM   H14F12353   1.899   0.587   9.030 -1.8185  0.3151 -4.1894
  117OSM   H14G12354   2.009   0.700   8.948 -0.9793  0.6792 -1.5160
  117OSM   C15F12355   1.799   0.771   8.993  0.7000  0.6407  0.6712
  117OSM   H15F12356   1.822   0.874   9.029 -1.0962  0.8441  1.3544
  117OSM   H15G12357   1.709   0.739   9.050  0.5505 -0.8903 -0.3854
  117OSM   C16F12358   1.762   0.762   8.843 -0.0796 -0.0613  0.6250
  117OSM   H16F12359   1.688   0.683   8.816  0.3664 -0.6183  1.0054
  117OSM   H16G12360   1.855   0.755   8.782  0.7718  2.8227  1.4244
  117OSM   C17F12361   1.698   0.893   8.782  0.2888  0.5657 -0.3846
  117OSM   H17F12362   1.772   0.975   8.777 -0.3600  1.1530 -0.5902
  117OSM   H17G12363   1.618   0.926   8.852 -0.6087  0.6277 -1.4201
  117OSM   C18F12364   1.636   0.854   8.655  0.1609 -0.0590 -0.2257
  117OSM   H18F12365   1.713   0.826   8.580  0.9070  1.0645  0.0819
  117OSM   H18G12366   1.571   0.935   8.616  0.0527  0.5789  1.2032
  117OSM   H18H12367   1.563   0.773   8.674 -0.0712  0.6104  2.1364
  118OSM      N12368   1.532   2.547  11.124 -0.1935  0.1211  0.0493
  118OSM    C1512369   1.413   2.460  11.113 -0.2423  0.2814  0.2157
  118OSM   H15A12370   1.368   2.433  11.207 -0.7062 -1.5615 -0.4934
  118OSM   H15B12371   1.436   2.366  11.066 -0.8497  0.4840 -0.5099
  118OSM   H15C12372   1.336   2.507  11.052 -1.3067 -0.0608  1.2601
  118OSM    C1412373   1.487   2.681  11.179 -0.5828 -0.3417 -0.4729
  118OSM   H14A12374   1.417   2.733  11.115 -0.0062 -0.1781 -0.9853
  118OSM   H14B12375   1.570   2.750  11.189 -0.7699 -0.2465  0.6051
  118OSM   H14C12376   1.439   2.672  11.276  0.3348  3.0676  0.4474
  118OSM    C1312377   1.623   2.467  11.208 -0.4315 -0.2611  0.1979
  118OSM   H13A12378   1.595   2.446  11.310 -3.3027 -2.0380 -0.8453
  118OSM   H13B12379   1.714   2.525  11.212  0.1239 -1.1857  1.9850
  118OSM   H13C12380   1.647   2.377  11.153 -1.2334 -0.9656  0.9638
  118OSM    C1212381   1.593   2.579  10.984 -0.2745 -0.3037 -1.1335
  118OSM   H12A12382   1.690   2.620  11.007  0.2528 -1.0939 -1.8695
  118OSM   H12B12383   1.534   2.659  10.943  0.3326  0.8310  0.1200
  118OSM    C1112384   1.606   2.472  10.877 -0.1280 -0.1369 -0.9502
  118OSM   H11A12385   1.632   2.518  10.780  1.1025 -1.4000 -1.2461
  118OSM   H11B12386   1.508   2.420  10.868  0.8048 -2.5760  1.4617
  118OSM      P12387   1.844   2.384  10.919  0.3562  0.2900  0.4769
  118OSM    O1312388   1.868   2.504  11.001  0.5917 -0.0604 -0.5493
  118OSM    O1412389   1.894   2.252  10.964  0.0133  0.5097 -0.4307
  118OSM    O1112390   1.899   2.406  10.772  0.2331 -0.7304  0.7349
  118OSM    O1212391   1.691   2.365  10.914  0.2613  0.1535  0.1967
  118OSM    C1S12392   1.937   2.301  10.686 -0.4781 -0.2131  0.9454
  118OSM    H1S12393   1.892   2.201  10.705 -1.0333  0.0620  1.1001
  118OSM    H1T12394   2.046   2.282  10.683 -0.2933  0.7262  1.3897
  118OSM     NF12395   1.889   2.216  10.455 -0.0095  0.2030 -0.1971
  118OSM    HNF12396   1.964   2.216  10.390 -0.4418 -0.2080 -0.7133
  118OSM    C2S12397   1.879   2.332  10.542  0.5738 -0.0355 -0.5952
  118OSM    H2S12398   1.773   2.353  10.564  1.3664  0.6693  3.2941
  118OSM    C3S12399   1.943   2.455  10.482 -0.7561 -0.1627 -0.6935
  118OSM    H3S12400   2.053   2.439  10.484 -0.6099  0.7881 -0.3939
  118OSM     O312401   1.937   2.569  10.564 -0.2393 -0.0645  0.1575
  118OSM    HO312402   1.910   2.537  10.650  0.7699  1.0595  0.9107
  118OSM    C4S12403   1.914   2.490  10.340  0.6411 -0.1620  0.1023
  118OSM    H4S12404   1.970   2.423  10.273  0.6251  1.3684 -1.5044
  118OSM    C5S12405   1.838   2.583  10.289  0.3537  0.1119 -0.0492
  118OSM    H5S12406   1.793   2.665  10.346 -1.0769  0.1553 -1.1690
  118OSM    C6S12407   1.819   2.601  10.147  0.0347 -0.2845  0.2001
  118OSM    H6S12408   1.711   2.611  10.123 -0.2121  0.0642  1.3944
  118OSM    H6T12409   1.861   2.515  10.091  1.0020  0.3698 -0.1073
  118OSM    C7S12410   1.903   2.720  10.079 -0.2011 -0.1013  0.5650
  118OSM    H7S12411   2.006   2.722  10.119  1.6703  1.0735 -3.7652
  118OSM    H7T12412   1.856   2.815  10.113 -0.1492 -0.0463  0.4824
  118OSM    C8S12413   1.921   2.721   9.927 -0.6316 -0.0596  0.4009
  118OSM    H8S12414   2.002   2.653   9.896  0.2387  1.0315  0.2178
  118OSM    H8T12415   1.943   2.823   9.889  1.0720 -0.3834  0.4719
  118OSM    C9S12416   1.802   2.683   9.848  0.4585  0.6834 -0.4495
  118OSM    H9S12417   1.708   2.731   9.884 -0.3401  1.3007 -3.1304
  118OSM    H9T12418   1.788   2.573   9.841  1.8494  0.5688 -2.2365
  118OSM   C10S12419   1.826   2.705   9.705  0.4305 -1.1575  0.2347
  118OSM   H10S12420   1.912   2.646   9.666  0.6423  0.2333 -1.5340
  118OSM   H10T12421   1.857   2.810   9.687 -1.6497 -0.5457  0.0126
  118OSM   C11S12422   1.721   2.675   9.599 -0.0558 -0.2203 -0.3532
  118OSM   H11S12423   1.635   2.735   9.635  1.5865  2.1781 -0.1726
  118OSM   H11T12424   1.696   2.567   9.600 -2.0107  0.1887 -0.3521
  118OSM   C12S12425   1.767   2.732   9.466  0.2691 -0.0632 -1.1218
  118OSM   H12S12426   1.875   2.712   9.447  0.2877  1.0368 -2.3314
  118OSM   H12T12427   1.741   2.840   9.461  1.3829  0.2251 -1.0885
  118OSM   C13S12428   1.679   2.662   9.356  0.5244  0.5362  0.1227
  118OSM   H13S12429   1.569   2.674   9.367  0.2452 -1.4473 -0.1968
  118OSM   H13T12430   1.705   2.555   9.368 -0.1774  0.3193 -0.2584
  118OSM   C14S12431   1.701   2.707   9.220  0.4181  0.2388  0.6452
  118OSM   H14S12432   1.808   2.706   9.193  0.5286 -0.6192  1.0789
  118OSM   H14T12433   1.682   2.816   9.208  4.1802  1.0347  0.7315
  118OSM   C15S12434   1.622   2.631   9.111  0.0708  0.8992 -0.0927
  118OSM   H15S12435   1.519   2.626   9.154 -0.4785  2.5253 -1.1060
  118OSM   H15T12436   1.676   2.535   9.119  0.1079  0.9516  0.2997
  118OSM   C16S12437   1.619   2.702   8.981 -0.3810  0.7519 -0.8118
  118OSM   H16S12438   1.720   2.702   8.934 -0.2523 -1.1020 -0.5730
  118OSM   H16T12439   1.580   2.806   8.992 -1.6868  0.1462  0.5970
  118OSM   C17S12440   1.545   2.624   8.869  0.4758  0.2469  0.0319
  118OSM   H17S12441   1.470   2.689   8.819  0.1890  0.3939  0.6392
  118OSM   H17T12442   1.490   2.547   8.929  2.4098 -0.3194  1.1550
  118OSM   C18S12443   1.636   2.553   8.764  0.2673 -0.0439 -0.0977
  118OSM   H18S12444   1.690   2.625   8.699  1.3415 -0.8955 -0.1685
  118OSM   H18T12445   1.581   2.492   8.688  1.1198  0.0583 -0.8070
  118OSM   H18U12446   1.713   2.488   8.810  2.3392  2.0913 -0.3471
  118OSM    C1F12447   1.810   2.103  10.477  0.2297 -0.1067  0.8060
  118OSM     OF12448   1.721   2.099  10.560 -0.3951  0.7838 -0.2470
  118OSM    C2F12449   1.833   1.995  10.375  0.3279 -0.2582 -0.7275
  118OSM    H2F12450   1.899   1.926  10.432 -1.1207 -0.5520  0.6785
  118OSM    H2G12451   1.895   2.039  10.295  0.7205  2.3890  0.9351
  118OSM    C3F12452   1.703   1.933  10.330 -0.2524  0.4847  0.4413
  118OSM    H3F12453   1.650   1.885  10.415  0.3102 -0.8124  0.0903
  118OSM    H3G12454   1.739   1.851  10.264  0.9158  1.8608 -0.6995
  118OSM    C4F12455   1.593   2.021  10.254 -0.1572 -1.1202 -0.4621
  118OSM    H4F12456   1.556   2.092  10.331  0.1410 -0.5004 -0.8849
  118OSM    H4G12457   1.504   1.960  10.230 -1.1050  0.6529 -1.6728
  118OSM    C5F12458   1.653   2.106  10.135 -0.1463 -0.1052 -0.0325
  118OSM    H5F12459   1.693   2.019  10.079  1.5811  0.8214 -0.3086
  118OSM    H5G12460   1.746   2.149  10.177  1.0002 -1.8963 -0.6191
  118OSM    C6F12461   1.551   2.194  10.065 -0.0364 -0.6850 -0.1446
  118OSM    H6F12462   1.501   2.241  10.153  2.0189  0.5250  0.4343
  118OSM    H6G12463   1.488   2.124  10.006  0.0364 -0.0647 -0.9789
  118OSM    C7F12464   1.613   2.290   9.959 -0.0890  0.6314  0.3778
  118OSM    H7F12465   1.679   2.360  10.015  0.3632  0.6364 -0.1516
  118OSM    H7G12466   1.531   2.351   9.916 -1.4376 -0.7018  0.9831
  118OSM    C8F12467   1.692   2.223   9.845  0.8674 -0.5190 -0.0946
  118OSM    H8F12468   1.763   2.153   9.893  0.8921  0.0829  0.7785
  118OSM    H8G12469   1.749   2.307   9.799  0.8697 -0.6698 -0.3644
  118OSM    C9F12470   1.608   2.148   9.751 -0.3061  0.1148 -0.4252
  118OSM    H9F12471   1.555   2.059   9.789 -1.2871  0.3013 -1.2981
  118OSM   C10F12472   1.584   2.169   9.621  0.2941  0.0016 -0.7312
  118OSM   H10F12473   1.503   2.109   9.576 -0.5459  0.6848 -0.1800
  118OSM   C11F12474   1.647   2.272   9.535 -0.1228  0.4587  0.2121
  118OSM   H11F12475   1.715   2.334   9.597 -0.0941  0.3786  0.2610
  118OSM   H11G12476   1.579   2.349   9.494 -1.3272 -0.5706  0.2165
  118OSM   C12F12477   1.736   2.201   9.430 -0.7895 -0.0547  0.2755
  118OSM   H12F12478   1.815   2.147   9.486  0.9737  2.4031  0.2971
  118OSM   H12G12479   1.784   2.285   9.376 -2.7326  3.3524  3.3942
  118OSM   C13F12480   1.667   2.128   9.318  0.4287 -0.9382  0.4612
  118OSM   H13F12481   1.604   2.057   9.376  2.1871 -2.1924  0.9223
  118OSM   H13G12482   1.747   2.074   9.263  0.0973 -3.1601  2.0309
  118OSM   C14F12483   1.594   2.218   9.214  0.3126  0.5787 -0.5768
  118OSM   H14F12484   1.660   2.304   9.187 -2.4451  2.3342 -2.1725
  118OSM   H14G12485   1.504   2.268   9.255 -1.5016 -1.9743 -1.2258
  118OSM   C15F12486   1.565   2.149   9.084  0.4694 -0.2263 -0.2620
  118OSM   H15F12487   1.470   2.091   9.092  0.1887  0.4211  1.7949
  118OSM   H15G12488   1.642   2.078   9.048  0.6523  0.2986 -0.9117
  118OSM   C16F12489   1.547   2.244   8.963  0.2075  0.2390 -0.3457
  118OSM   H16F12490   1.640   2.298   8.937 -0.3915  0.7807 -1.4040
  118OSM   H16G12491   1.484   2.324   9.007 -0.7170 -0.7515  0.1849
  118OSM   C17F12492   1.490   2.177   8.839  0.5070  0.0879  0.0232
  118OSM   H17F12493   1.439   2.252   8.774 -0.4579 -0.0395  0.6186
  118OSM   H17G12494   1.422   2.093   8.865 -1.4749  1.9047  0.9917
  118OSM   C18F12495   1.602   2.128   8.739  0.1139  0.3404 -1.0213
  118OSM   H18F12496   1.679   2.069   8.794 -0.0292  1.9951  1.0504
  118OSM   H18G12497   1.660   2.217   8.707  2.1621 -1.6713 -3.4491
  118OSM   H18H12498   1.551   2.085   8.650 -3.1375  1.6386  0.0688
  119OSM      N12499   2.666   0.685  10.981  0.0868  0.5517  0.1283
  119OSM    C1512500   2.776   0.576  10.981 -0.2651  0.0330  0.8908
  119OSM   H15A12501   2.771   0.518  11.072 -3.2798  0.6498  1.2512
  119OSM   H15B12502   2.873   0.621  10.977 -1.5917  3.0132 -0.6953
  119OSM   H15C12503   2.763   0.503  10.902  1.2035  0.1705  0.5119
  119OSM    C1412504   2.537   0.609  10.988 -0.3137  0.3311 -1.2395
  119OSM   H14A12505   2.536   0.559  11.084  1.7686  0.8913 -0.8862
  119OSM   H14B12506   2.518   0.537  10.911  0.7725  0.3685 -1.5568
  119OSM   H14C12507   2.455   0.679  11.000  0.2190  0.5309  2.4405
  119OSM    C1312508   2.694   0.777  11.096  0.1056 -0.5546  0.1993
  119OSM   H13A12509   2.626   0.859  11.080 -0.5367 -0.8423  1.3143
  119OSM   H13B12510   2.784   0.836  11.087 -1.0989  1.3985  0.4601
  119OSM   H13C12511   2.682   0.728  11.192 -0.9943  0.8459  0.8049
  119OSM    C1212512   2.676   0.757  10.854  0.5376  0.2754  0.5269
  119OSM   H12A12513   2.647   0.696  10.770  2.1218  0.2789 -0.0628
  119OSM   H12B12514   2.780   0.779  10.834  0.2420  2.2189  1.0039
  119OSM    C1112515   2.599   0.893  10.836  0.5579  0.6195 -0.7251
  119OSM   H11A12516   2.495   0.866  10.865  1.4063 -1.0428  1.0172
  119OSM   H11B12517   2.605   0.934  10.733 -1.7170  0.0608 -1.1226
  119OSM      P12518   2.782   1.072  10.903  0.0839  0.1794 -0.5263
  119OSM    O1312519   2.783   1.191  10.994  0.1078  0.0061  0.1111
  119OSM    O1412520   2.891   0.978  10.933 -0.3620 -0.3995 -1.0159
  119OSM    O1112521   2.784   1.118  10.750 -0.4810 -0.2195 -0.1130
  119OSM    O1212522   2.644   0.995  10.921 -0.7877 -0.0589 -1.1649
  119OSM    C1S12523   2.678   1.208  10.709 -0.7064  0.1222 -0.2903
  119OSM    H1S12524   2.711   1.314  10.724  2.3217 -0.4685 -2.0048
  119OSM    H1T12525   2.584   1.183  10.761 -0.5999 -0.7849 -0.5306
  119OSM     NF12526   2.553   1.108  10.517  0.6602 -0.6893  0.7698
  119OSM    HNF12527   2.588   1.026  10.472 -1.4625 -0.8355 -0.7526
  119OSM    C2S12528   2.647   1.202  10.557 -0.4242 -0.1669  0.0445
  119OSM    H2S12529   2.605   1.301  10.528 -1.7966  0.4520  3.5869
  119OSM    C3S12530   2.785   1.195  10.485 -0.4962  0.0318  0.2888
  119OSM    H3S12531   2.843   1.105  10.513 -1.6238 -0.9453 -0.4081
  119OSM     O312532   2.880   1.299  10.508  0.2047  0.5293  0.1836
  119OSM    HO312533   2.829   1.366  10.553 -0.4358  1.9600 -2.4937
  119OSM    C4S12534   2.763   1.189  10.334  0.3166 -0.1233  0.2418
  119OSM    H4S12535   2.758   1.088  10.292 -3.6979 -0.0933  0.2763
  119OSM    C5S12536   2.751   1.282  10.240  0.6214 -0.6942 -0.4469
  119OSM    H5S12537   2.749   1.386  10.275 -1.5177 -1.3889  1.8094
  119OSM    C6S12538   2.722   1.261  10.092  0.4961  0.7522 -0.6068
  119OSM    H6S12539   2.815   1.297  10.043 -0.3813  1.4158 -1.8283
  119OSM    H6T12540   2.634   1.318  10.057 -0.2035  0.4947  0.6573
  119OSM    C7S12541   2.688   1.116  10.043  0.1386 -0.2873  0.5801
  119OSM    H7S12542   2.595   1.079  10.092 -1.1994  1.7580 -0.3089
  119OSM    H7T12543   2.770   1.045  10.069  1.5458  0.3604 -1.8112
  119OSM    C8S12544   2.665   1.119   9.888 -0.2407  0.3076  0.0048
  119OSM    H8S12545   2.612   1.215   9.868 -0.3950  0.1165 -0.5165
  119OSM    H8T12546   2.605   1.032   9.855  0.0847  0.1989 -0.3156
  119OSM    C9S12547   2.795   1.119   9.806 -0.0169 -0.1674 -0.4779
  119OSM    H9S12548   2.846   1.021   9.811  1.9518  0.8510  0.1135
  119OSM    H9T12549   2.852   1.209   9.835 -0.4648  0.4402 -1.4291
  119OSM   C10S12550   2.767   1.147   9.657  0.0099  0.4462 -0.2975
  119OSM   H10S12551   2.758   1.256   9.640  2.1832  1.1317  2.2428
  119OSM   H10T12552   2.672   1.095   9.631  0.2271  0.5860 -1.4215
  119OSM   C11S12553   2.885   1.089   9.573 -0.0438 -0.8290 -0.1489
  119OSM   H11S12554   2.884   0.981   9.596  0.2548 -0.9902 -0.8725
  119OSM   H11T12555   2.986   1.126   9.602 -0.2754 -1.2051  1.1844
  119OSM   C12S12556   2.879   1.109   9.417  0.4844  0.1259  0.0058
  119OSM   H12S12557   2.782   1.073   9.378  0.4665  0.1758  0.0052
  119OSM   H12T12558   2.961   1.043   9.380  1.1762  0.0206  1.6392
  119OSM   C13S12559   2.912   1.246   9.370 -0.6356 -0.5396  0.1966
  119OSM   H13S12560   3.023   1.246   9.374 -0.6474 -0.3689  0.6100
  119OSM   H13T12561   2.872   1.331   9.430 -1.1207 -0.0543 -0.7881
  119OSM   C14S12562   2.877   1.281   9.222 -0.3710  0.1957  0.4816
  119OSM   H14S12563   2.766   1.283   9.225 -0.4059 -1.1395  1.6304
  119OSM   H14T12564   2.910   1.193   9.163 -1.1384  1.0283 -1.2320
  119OSM   C15S12565   2.937   1.407   9.170  0.4171  0.4827  0.4332
  119OSM   H15S12566   3.044   1.408   9.199  0.5962  1.3031 -0.2225
  119OSM   H15T12567   2.889   1.500   9.205 -0.0003  1.8541 -3.3064
  119OSM   C16S12568   2.928   1.388   9.014 -0.4156  0.1971  0.4199
  119OSM   H16S12569   2.827   1.355   8.983  0.2169  0.1896 -1.8150
  119OSM   H16T12570   3.008   1.317   8.986 -0.1681  0.6649 -0.1006
  119OSM   C17S12571   2.961   1.516   8.939  0.3644 -0.1637  0.0055
  119OSM   H17S12572   2.955   1.510   8.828  0.9890 -0.7535 -0.0012
  119OSM   H17T12573   3.062   1.557   8.959  0.5312 -1.1394  1.2617
  119OSM   C18S12574   2.879   1.645   8.968 -0.0077  0.4385 -0.1047
  119OSM   H18S12575   2.904   1.674   9.072  1.4620  0.1473 -0.3553
  119OSM   H18T12576   2.770   1.633   8.947 -0.1650  0.6410  0.5641
  119OSM   H18U12577   2.913   1.727   8.902  0.7722 -0.0493 -0.3264
  119OSM    C1F12578   2.422   1.116  10.555  0.2248  0.2482 -0.1177
  119OSM     OF12579   2.370   1.218  10.604  0.0764 -0.2086 -0.2751
  119OSM    C2F12580   2.349   0.989  10.525  0.0230 -0.0815 -0.1051
  119OSM    H2F12581   2.276   0.962  10.603 -1.1519  0.7666 -0.8739
  119OSM    H2G12582   2.425   0.910  10.505 -0.3561 -0.5593  0.3169
  119OSM    C3F12583   2.259   1.014  10.400  0.4878  0.2619  0.8695
  119OSM    H3F12584   2.184   1.092  10.424 -0.5118  0.3618 -2.1810
  119OSM    H3G12585   2.197   0.926  10.372  0.3464 -0.0985  2.2475
  119OSM    C4F12586   2.339   1.058  10.273  0.1586  0.5689 -0.1722
  119OSM    H4F12587   2.412   0.978  10.248  1.0140  1.4193 -0.5024
  119OSM    H4G12588   2.400   1.150  10.286 -0.6244  1.1154 -0.3147
  119OSM    C5F12589   2.245   1.089  10.159 -0.3104  0.5739  0.0729
  119OSM    H5F12590   2.187   1.181  10.184 -1.7050 -0.0337 -0.8172
  119OSM    H5G12591   2.171   1.006  10.164 -1.6148  1.6979  0.0323
  119OSM    C6F12592   2.307   1.087  10.020  0.0140 -0.0024  0.2216
  119OSM    H6F12593   2.373   0.998  10.022  0.9708  0.6993  0.5593
  119OSM    H6G12594   2.371   1.174   9.995  0.8081 -0.9645 -1.1706
  119OSM    C7F12595   2.213   1.039   9.905 -0.1116 -0.5155  0.0530
  119OSM    H7F12596   2.132   1.116   9.907 -0.1205 -0.5011 -0.5670
  119OSM    H7G12597   2.163   0.941   9.920 -0.6370 -0.4727 -1.2492
  119OSM    C8F12598   2.289   1.043   9.769 -0.2794 -0.0377  0.7546
  119OSM    H8F12599   2.361   0.959   9.763 -1.0656 -0.6467 -0.7260
  119OSM    H8G12600   2.351   1.136   9.768 -1.3446  0.7030 -1.1885
  119OSM    C9F12601   2.192   1.041   9.656 -0.0225 -0.3849 -0.8231
  119OSM    H9F12602   2.131   0.949   9.658  1.3030 -1.2775 -0.2559
  119OSM   C10F12603   2.178   1.128   9.557 -0.5775  0.5099  0.2177
  119OSM   H10F12604   2.122   1.100   9.467  1.5851  0.4231 -1.1750
  119OSM   C11F12605   2.263   1.249   9.535 -0.2385 -0.2858  0.3427
  119OSM   H11F12606   2.334   1.231   9.451  0.5612 -1.0638  1.1667
  119OSM   H11G12607   2.338   1.263   9.615  1.7015  1.4502 -1.6434
  119OSM   C12F12608   2.178   1.378   9.504  0.2016 -0.3934 -0.5562
  119OSM   H12F12609   2.245   1.466   9.499  2.5100 -1.9703  0.4207
  119OSM   H12G12610   2.121   1.406   9.595 -1.7326  2.0212 -2.3692
  119OSM   C13F12611   2.073   1.385   9.390  0.1003  0.2909  0.5414
  119OSM   H13F12612   2.043   1.491   9.404  1.0080  0.5377  0.7010
  119OSM   H13G12613   1.975   1.337   9.407 -0.2646  1.7270  3.0686
  119OSM   C14F12614   2.132   1.347   9.253  0.3747 -0.0454  0.5292
  119OSM   H14F12615   2.158   1.241   9.233  3.0104  0.8127 -1.1814
  119OSM   H14G12616   2.231   1.397   9.250  0.8889 -1.0213 -2.1992
  119OSM   C15F12617   2.037   1.395   9.138 -1.0989  0.0940  0.9176
  119OSM   H15F12618   1.947   1.329   9.137 -1.3094  0.3755 -0.2069
  119OSM   H15G12619   2.097   1.373   9.047 -0.1159  1.5497  1.1731
  119OSM   C16F12620   2.023   1.543   9.136  0.3526  0.1653  0.5548
  119OSM   H16F12621   2.120   1.589   9.166  0.9437  0.0907 -1.1150
  119OSM   H16G12622   1.936   1.561   9.202 -1.3212  2.3866 -2.0424
  119OSM   C17F12623   1.980   1.615   8.997  0.6193 -0.0380  0.9433
  119OSM   H17F12624   2.074   1.627   8.938 -0.1467 -0.0490 -0.3297
  119OSM   H17G12625   1.934   1.710   9.031  0.6555 -0.0379  0.9921
  119OSM   C18F12626   1.876   1.535   8.919  0.1073 -0.0842  0.2581
  119OSM   H18F12627   1.922   1.435   8.905  2.1283  0.8367 -0.1289
  119OSM   H18G12628   1.844   1.575   8.820 -1.0394  1.9422  1.3911
  119OSM   H18H12629   1.785   1.530   8.981  1.1745 -0.9720  1.8289
  120OSM      N12630   0.767   4.997  10.293 -0.2706  0.7232  0.5051
  120OSM    C1512631   0.799   4.854  10.294  0.0346 -0.2330  0.1731
  120OSM   H15A12632   0.765   4.796  10.378  2.3854 -0.0441  1.3195
  120OSM   H15B12633   0.905   4.842  10.283  0.3105  1.1591  1.0302
  120OSM   H15C12634   0.762   4.810  10.202 -2.2160 -0.7117  1.2353
  120OSM    C1412635   0.793   5.065  10.159 -0.2678  0.3476  0.5701
  120OSM   H14A12636   0.736   5.010  10.086 -0.1201  0.8213  0.0943
  120OSM   H14B12637   0.899   5.076  10.139 -0.6703  1.8141 -0.9793
  120OSM   H14C12638   0.758   5.167  10.164  0.7620  0.7844 -0.5492
  120OSM    C1312639   0.633   5.028  10.336  0.0829 -0.2631 -0.1275
  120OSM   H13A12640   0.600   4.978  10.425  0.7338  0.4817  0.5469
  120OSM   H13B12641   0.563   4.998  10.259  0.3845 -3.0967  0.6147
  120OSM   H13C12642   0.624   5.131  10.366  0.9555  0.0028 -0.7160
  120OSM    C1212643   0.864   5.063  10.390  0.5536  0.2254 -0.1535
  120OSM   H12A12644   0.965   5.046  10.357 -0.2757 -2.2317 -1.7305
  120OSM   H12B12645   0.871   5.008  10.482  0.3670 -1.6411 -1.1933
  120OSM    C1112646   0.843   5.211  10.431  0.7049  0.0768  0.4012
  120OSM   H11A12647   0.841   5.281  10.344  0.7879  1.3314  1.3741
  120OSM   H11B12648   0.923   5.247  10.499  1.1147 -1.3725  0.7030
  120OSM      P12649   0.631   5.353  10.510  0.2557  0.0705  0.1459
  120OSM    O1312650   0.548   5.336  10.633 -0.4068  0.4332 -0.1266
  120OSM    O1412651   0.726   5.471  10.502  0.2564  0.1835  0.2156
  120OSM    O1112652   0.541   5.346  10.375 -0.0583 -0.2522  0.4566
  120OSM    O1212653   0.721   5.228  10.504 -0.3797  0.9238 -0.2780
  120OSM    C1S12654   0.576   5.434  10.262 -0.1939 -0.2000 -0.7428
  120OSM    H1S12655   0.686   5.438  10.245  0.4280 -1.3372  2.2887
  120OSM    H1T12656   0.537   5.536  10.284 -1.3234 -0.6152 -0.7484
  120OSM     NF12657   0.576   5.472  10.020 -0.1775  0.5634  0.2096
  120OSM    HNF12658   0.521   5.544   9.980  0.3369  1.7159  1.4982
  120OSM    C2S12659   0.516   5.390  10.124 -0.2671  0.8211  0.4318
  120OSM    H2S12660   0.537   5.282  10.113 -0.3273  0.8882 -0.3675
  120OSM    C3S12661   0.360   5.406  10.135 -0.7791  0.5392  0.5043
  120OSM    H3S12662   0.338   5.514  10.150 -2.1071  0.3187  0.2000
  120OSM     O312663   0.304   5.336  10.251  0.5141 -0.1385  0.5678
  120OSM    HO312664   0.378   5.324  10.311  0.1648  0.0425  1.0331
  120OSM    C4S12665   0.288   5.352  10.011  0.3241  0.1457  0.1217
  120OSM    H4S12666   0.291   5.242   9.998  1.5535  0.0482  1.0124
  120OSM    C5S12667   0.216   5.427   9.919 -0.5551  0.5386 -0.3935
  120OSM    H5S12668   0.208   5.535   9.939 -1.6391  0.6257 -1.2516
  120OSM    C6S12669   0.152   5.363   9.797  0.2923  0.2537 -0.1918
  120OSM    H6S12670   0.190   5.260   9.778 -2.0160 -0.3430 -2.0057
  120OSM    H6T12671   0.176   5.424   9.708  1.6066  0.9946  0.6317
  120OSM    C7S12672  -0.002   5.359   9.822 -0.2652  0.4573 -0.4316
  120OSM    H7S12673  -0.039   5.463   9.830  0.1791  0.5224  1.0090
  120OSM    H7T12674  -0.030   5.306   9.915  1.2847  0.7223  0.2020
  120OSM    C8S12675  -0.076   5.296   9.702 -0.4952 -0.2701 -0.4990
  120OSM    H8S12676  -0.181   5.277   9.734 -0.1521  0.8318  1.4209
  120OSM    H8T12677  -0.038   5.196   9.670  1.0377 -0.1485  0.8097
  120OSM    C9S12678  -0.077   5.389   9.583  0.3744  0.3454 -0.1768
  120OSM    H9S12679   0.018   5.385   9.524  0.4135 -0.8098 -0.0604
  120OSM    H9T12680  -0.098   5.491   9.621 -3.0049  1.9532 -5.3976
  120OSM   C10S12681  -0.185   5.363   9.481  0.0464  0.6334  0.1238
  120OSM   H10S12682  -0.213   5.457   9.430  1.7313  0.8058 -0.5512
  120OSM   H10T12683  -0.274   5.323   9.535  0.9841 -2.5941 -0.4796
  120OSM   C11S12684  -0.151   5.250   9.388 -0.2133 -0.0043  0.3331
  120OSM   H11S12685  -0.128   5.162   9.452  0.1228  1.1653  1.8522
  120OSM   H11T12686  -0.053   5.274   9.340 -0.4664  1.2074  0.3926
  120OSM   C12S12687  -0.263   5.225   9.291  0.9229  0.6666  0.1889
  120OSM   H12S12688  -0.288   5.326   9.251 -0.2291  0.7060  0.9606
  120OSM   H12T12689  -0.344   5.182   9.353  1.1438 -2.4745 -1.5344
  120OSM   C13S12690  -0.229   5.120   9.177  0.2137 -0.5417 -0.3016
  120OSM   H13S12691  -0.197   5.036   9.242 -2.7209 -0.2937  1.6336
  120OSM   H13T12692  -0.145   5.142   9.107 -0.9477  0.2370 -1.4953
  120OSM   C14S12693  -0.350   5.074   9.097  0.4405  0.3920  0.6965
  120OSM   H14S12694  -0.392   5.151   9.028  1.0268  0.0336 -0.0823
  120OSM   H14T12695  -0.434   5.063   9.169 -1.5063  1.3525 -1.2867
  120OSM   C15S12696  -0.323   4.937   9.035 -0.0624  0.4006 -0.1963
  120OSM   H15S12697  -0.322   4.854   9.108 -3.1107 -0.0999 -0.5734
  120OSM   H15T12698  -0.227   4.930   8.981 -0.9033 -0.1101 -1.6989
  120OSM   C16S12699  -0.430   4.894   8.941  0.3711  0.7378 -0.3028
  120OSM   H16S12700  -0.420   4.951   8.846 -0.6052 -1.6035 -1.8871
  120OSM   H16T12701  -0.536   4.910   8.971 -0.1718 -0.0523 -1.6865
  120OSM   C17S12702  -0.427   4.742   8.902 -0.4020 -0.7793  0.0891
  120OSM   H17S12703  -0.510   4.720   8.831  2.1279  1.0015 -3.7503
  120OSM   H17T12704  -0.441   4.702   9.005 -1.2473  2.5817  1.4094
  120OSM   C18S12705  -0.306   4.693   8.825  0.4966 -0.0751 -0.1655
  120OSM   H18S12706  -0.207   4.707   8.873  0.8269 -0.4332 -0.7230
  120OSM   H18T12707  -0.291   4.756   8.735 -1.2844 -0.7305 -0.9567
  120OSM   H18U12708  -0.308   4.585   8.799 -2.0084 -0.6061  1.9254
  120OSM    C1F12709   0.694   5.453   9.977  0.6634  0.0676 -0.6598
  120OSM     OF12710   0.772   5.380  10.029  0.9718  0.5668 -0.3029
  120OSM    C2F12711   0.730   5.515   9.851 -0.7775  0.2601  0.0487
  120OSM    H2F12712   0.643   5.573   9.812 -1.5025 -0.3041  0.7963
  120OSM    H2G12713   0.760   5.433   9.783 -0.1629  0.4387  0.0959
  120OSM    C3F12714   0.849   5.619   9.865  1.1656  0.5090 -0.3314
  120OSM    H3F12715   0.937   5.577   9.919  0.4632 -0.7861 -0.1723
  120OSM    H3G12716   0.824   5.705   9.930 -0.1775 -2.5900  3.6682
  120OSM    C4F12717   0.886   5.653   9.729  0.5378  1.0317  0.1743
  120OSM    H4F12718   0.945   5.747   9.731 -0.7706  1.8989  1.9657
  120OSM    H4G12719   0.805   5.695   9.666 -0.3035  0.7894  1.0685
  120OSM    C5F12720   0.969   5.548   9.656 -0.3281 -0.8472  0.1028
  120OSM    H5F12721   0.908   5.486   9.587  0.7716 -0.1076 -1.6049
  120OSM    H5G12722   1.014   5.482   9.733 -2.4599 -2.5511  0.0007
  120OSM    C6F12723   1.069   5.611   9.560 -0.4451  0.2339 -0.1958
  120OSM    H6F12724   1.141   5.675   9.615  0.3938 -2.4566  2.0708
  120OSM    H6G12725   1.012   5.672   9.487 -0.8252 -0.6795 -0.6733
  120OSM    C7F12726   1.149   5.507   9.490  0.1256 -0.2901 -0.2108
  120OSM    H7F12727   1.086   5.435   9.434  2.3928 -1.3399 -1.5423
  120OSM    H7G12728   1.212   5.461   9.569  0.0122 -0.4683 -0.2246
  120OSM    C8F12729   1.249   5.566   9.388 -0.6605  0.4692  0.1307
  120OSM    H8F12730   1.310   5.490   9.335 -0.3188  1.2644 -0.6378
  120OSM    H8G12731   1.326   5.621   9.446 -0.0402  1.5618 -1.6472
  120OSM    C9F12732   1.181   5.672   9.294  0.0664 -0.5436  0.1992
  120OSM    H9F12733   1.191   5.775   9.330  2.9477 -0.8915  0.6379
  120OSM   C10F12734   1.114   5.632   9.181  0.8021  0.4587 -0.4004
  120OSM   H10F12735   1.062   5.700   9.111  1.0970 -0.2562 -1.3265
  120OSM   C11F12736   1.094   5.494   9.130 -0.4161  0.0370  0.2878
  120OSM   H11F12737   1.135   5.417   9.200  0.7360  0.1093 -0.2837
  120OSM   H11G12738   1.141   5.481   9.030 -0.5322 -1.6797  0.4188
  120OSM   C12F12739   0.949   5.445   9.105 -0.7502 -0.2021 -0.0886
  120OSM   H12F12740   0.945   5.336   9.084 -0.5327 -0.5377  1.4347
  120OSM   H12G12741   0.914   5.513   9.025  1.5218  0.8441 -0.2958
  120OSM   C13F12742   0.844   5.477   9.225  0.3564  0.4909  0.4272
  120OSM   H13F12743   0.851   5.582   9.261  1.1216  0.2943  0.8652
  120OSM   H13G12744   0.868   5.403   9.304  2.8391  0.7694  0.0372
  120OSM   C14F12745   0.701   5.455   9.177  0.2591  0.4199 -0.5860
  120OSM   H14F12746   0.690   5.356   9.128 -1.0458 -0.4944  1.4343
  120OSM   H14G12747   0.673   5.530   9.099 -0.6655  0.5475 -0.1453
  120OSM   C15F12748   0.593   5.484   9.288 -0.7056  0.5354 -0.0441
  120OSM   H15F12749   0.595   5.594   9.303 -0.5193  0.5337 -0.0614
  120OSM   H15G12750   0.625   5.437   9.384 -0.5091  1.9187  0.5934
  120OSM   C16F12751   0.451   5.443   9.248 -0.0384  0.0112  0.2620
  120OSM   H16F12752   0.433   5.335   9.262  2.0019 -0.4002  0.1283
  120OSM   H16G12753   0.414   5.478   9.149 -0.1901  0.6288  0.5277
  120OSM   C17F12754   0.351   5.520   9.336  0.0236  0.0027  0.5923
  120OSM   H17F12755   0.247   5.497   9.302 -0.2385  0.2415  1.2051
  120OSM   H17G12756   0.361   5.630   9.347 -2.1889  0.3589 -0.3161
  120OSM   C18F12757   0.363   5.475   9.479 -0.2292  1.0551  0.1709
  120OSM   H18F12758   0.298   5.534   9.547 -0.6797 -0.2130  0.8682
  120OSM   H18G12759   0.469   5.488   9.510  0.2856  3.2091 -2.1258
  120OSM   H18H12760   0.341   5.367   9.491  2.9040  0.2553 -0.3411
  121OSM      N12761   0.927   0.466  11.073  0.4692  0.2728  0.3740
  121OSM    C1512762   0.822   0.571  11.086  0.1974 -0.7788  0.1761
  121OSM   H15A12763   0.728   0.525  11.061  0.1491  0.2608 -1.7340
  121OSM   H15B12764   0.848   0.658  11.027 -2.1164 -0.3418 -0.2970
  121OSM   H15C12765   0.815   0.611  11.186  1.4220 -0.3499  0.1109
  121OSM    C1412766   1.058   0.531  11.061 -0.2040  1.2147  0.2863
  121OSM   H14A12767   1.135   0.458  11.079 -1.0810 -1.2320 -4.3012
  121OSM   H14B12768   1.067   0.608  11.136 -0.5477 -0.5295  2.1784
  121OSM   H14C12769   1.060   0.574  10.961 -2.5484 -1.2766 -0.9747
  121OSM    C1312770   0.917   0.387  11.200  0.2433  0.1537 -0.2553
  121OSM   H13A12771   0.825   0.331  11.207 -0.8299  1.9583  1.1263
  121OSM   H13B12772   0.924   0.461  11.279  0.0737  2.9515 -2.6646
  121OSM   H13C12773   1.002   0.321  11.208  0.1750  0.1685  0.7304
  121OSM    C1212774   0.906   0.370  10.961 -0.1494  0.2567 -0.6942
  121OSM   H12A12775   1.000   0.318  10.952  1.1322  2.1468  0.8206
  121OSM   H12B12776   0.898   0.427  10.870 -2.5618 -1.2430 -1.5124
  121OSM    C1112777   0.790   0.268  10.963  0.9515 -0.1222  0.4940
  121OSM   H11A12778   0.807   0.198  11.048  0.6704 -0.5783  0.1742
  121OSM   H11B12779   0.804   0.217  10.866 -1.4470  0.7846 -0.4220
  121OSM      P12780   0.543   0.225  10.950 -0.2323  0.2192  0.1693
  121OSM    O1312781   0.558   0.137  11.071 -0.8178 -0.3606 -0.1303
  121OSM    O1412782   0.412   0.292  10.929 -0.6564 -0.2187  0.0061
  121OSM    O1112783   0.581   0.156  10.809 -0.4872 -0.7252 -0.4907
  121OSM    O1212784   0.654   0.334  10.961  0.3049 -0.3892  0.4727
  121OSM    C1S12785   0.540   0.220  10.688 -0.3585 -0.0711  0.1769
  121OSM    H1S12786   0.500   0.322  10.703  2.2905  0.9012  1.2212
  121OSM    H1T12787   0.458   0.157  10.647 -0.1951 -1.0703  1.3391
  121OSM     NF12788   0.606   0.302  10.461  0.5874 -0.6591 -0.5508
  121OSM    HNF12789   0.563   0.253  10.386  0.1484 -1.5481  0.2714
  121OSM    C2S12790   0.653   0.224  10.577  0.0809 -0.4227 -0.4741
  121OSM    H2S12791   0.739   0.276  10.623 -1.1315 -0.8373  2.4393
  121OSM    C3S12792   0.696   0.077  10.544 -0.3113  0.0001 -0.8197
  121OSM    H3S12793   0.602   0.027  10.512  0.2203 -1.2006 -0.5311
  121OSM     O312794   0.740  -0.006  10.658 -0.0695 -0.1632  0.3043
  121OSM    HO312795   0.722   0.040  10.741 -1.0352 -0.6010  0.3547
  121OSM    C4S12796   0.794   0.074  10.433 -0.1299 -0.8100 -0.3166
  121OSM    H4S12797   0.863   0.159  10.441  1.2186 -1.9829  1.2639
  121OSM    C5S12798   0.805  -0.015  10.334 -0.9268 -0.5774  0.2001
  121OSM    H5S12799   0.733  -0.098  10.338 -1.9640 -0.0206 -3.3483
  121OSM    C6S12800   0.915  -0.007  10.227  0.1214  0.3107  0.2760
  121OSM    H6S12801   0.880  -0.054  10.133  0.4272 -0.2820  0.4589
  121OSM    H6T12802   0.997  -0.076  10.254 -1.8128 -2.1627  0.1492
  121OSM    C7S12803   0.977   0.129  10.210  0.5214 -0.3215 -0.0629
  121OSM    H7S12804   1.032   0.156  10.302  1.0798 -1.4762 -0.0464
  121OSM    H7T12805   0.894   0.199  10.185  1.1374  0.6032  0.4078
  121OSM    C8S12806   1.078   0.133  10.090  0.0277  0.2992  0.3254
  121OSM    H8S12807   1.153   0.054  10.112  1.0173  1.0458 -0.2504
  121OSM    H8T12808   1.129   0.232  10.082  1.1132 -0.3395 -1.1718
  121OSM    C9S12809   1.020   0.105   9.952  0.3538  0.6037 -0.0664
  121OSM    H9S12810   0.984   0.002   9.935 -0.9868  1.1079 -0.4118
  121OSM    H9T12811   1.101   0.115   9.876  1.1504  0.9849  0.8069
  121OSM   C10S12812   0.911   0.205   9.912 -0.7453  0.1903 -0.0282
  121OSM   H10S12813   0.942   0.312   9.907  2.2069 -0.6303 -2.7329
  121OSM   H10T12814   0.824   0.185   9.978  0.5381 -0.9765  1.3698
  121OSM   C11S12815   0.875   0.179   9.762  1.0298  0.0311  0.0140
  121OSM   H11S12816   0.808   0.263   9.737 -0.7702 -1.3379  0.0797
  121OSM   H11T12817   0.826   0.079   9.766 -2.8227  1.7410 -0.9361
  121OSM   C12S12818   0.985   0.176   9.657 -0.5608  0.3313 -0.8249
  121OSM   H12S12819   1.058   0.095   9.676 -1.0925  0.1938  0.8102
  121OSM   H12T12820   1.045   0.269   9.663 -0.2678  0.1730 -1.2707
  121OSM   C13S12821   0.942   0.154   9.513 -0.4538  0.0617  0.0727
  121OSM   H13S12822   0.864   0.232   9.500  0.3828  0.9811  0.4381
  121OSM   H13T12823   0.886   0.058   9.516 -2.8899  1.4299  1.1295
  121OSM   C14S12824   1.049   0.176   9.406  0.1244 -0.1602 -0.3148
  121OSM   H14S12825   1.139   0.112   9.409  0.3017 -0.0994 -2.6870
  121OSM   H14T12826   1.069   0.285   9.413  2.5583 -0.4899 -1.2928
  121OSM   C15S12827   0.986   0.154   9.270  0.0517  0.3518  0.6245
  121OSM   H15S12828   0.904   0.229   9.269 -0.1363  0.1601  1.3097
  121OSM   H15T12829   0.945   0.051   9.265  2.5642 -0.9349  3.3983
  121OSM   C16S12830   1.077   0.173   9.146 -0.0893 -0.2977  0.0575
  121OSM   H16S12831   1.021   0.134   9.058 -1.6468 -0.0656  0.9139
  121OSM   H16T12832   1.172   0.119   9.168  0.1657  0.1149 -0.0312
  121OSM   C17S12833   1.112   0.316   9.099  0.4615  1.0177 -0.3380
  121OSM   H17S12834   1.168   0.380   9.170  2.0741 -0.4916 -0.1654
  121OSM   H17T12835   1.015   0.366   9.085 -0.8471 -1.3282 -0.2153
  121OSM   C18S12836   1.184   0.316   8.960  0.1164  0.2421  0.3725
  121OSM   H18S12837   1.194   0.419   8.921 -1.6202  0.4152  0.3009
  121OSM   H18T12838   1.142   0.241   8.889 -0.7498  0.5420  0.5548
  121OSM   H18U12839   1.286   0.273   8.969  0.3396  1.0776  2.1410
  121OSM    C1F12840   0.578   0.430  10.464 -0.0198  0.0234 -0.6475
  121OSM     OF12841   0.600   0.495  10.567 -0.0780  0.3570 -0.4177
  121OSM    C2F12842   0.511   0.491  10.347 -0.5286 -0.2460  0.1659
  121OSM    H2F12843   0.406   0.504  10.378 -0.6132  0.8522 -0.5225
  121OSM    H2G12844   0.503   0.420  10.261  1.5642 -1.3636  0.8122
  121OSM    C3F12845   0.569   0.627  10.299 -0.3766 -0.6061  0.5149
  121OSM    H3F12846   0.674   0.612  10.264 -0.7965 -2.0350 -0.2075
  121OSM    H3G12847   0.568   0.701  10.382  3.3167  0.0698  0.1433
  121OSM    C4F12848   0.491   0.688  10.181 -0.1045 -0.1935  0.1634
  121OSM    H4F12849   0.496   0.798  10.192 -1.9905 -0.0545 -0.0683
  121OSM    H4G12850   0.384   0.659  10.190 -0.5434  1.3684  0.1502
  121OSM    C5F12851   0.554   0.646  10.045  0.3160 -0.8122  0.5421
  121OSM    H5F12852   0.537   0.538  10.022 -0.6886 -0.3790 -0.8990
  121OSM    H5G12853   0.664   0.656  10.058  0.1859  2.2075 -0.0726
  121OSM    C6F12854   0.501   0.727   9.925  0.3717 -0.0718 -0.9611
  121OSM    H6F12855   0.530   0.833   9.942  1.8069 -0.2028 -2.3851
  121OSM    H6G12856   0.390   0.714   9.924  0.1139  1.4964  0.7984
  121OSM    C7F12857   0.570   0.683   9.805 -0.0468  0.5955 -0.1172
  121OSM    H7F12858   0.544   0.577   9.786  3.2428 -0.3684  0.1333
  121OSM    H7G12859   0.680   0.690   9.818 -0.3083  0.5533  2.6193
  121OSM    C8F12860   0.540   0.754   9.672 -1.0954 -0.1520  0.3048
  121OSM    H8F12861   0.609   0.725   9.590 -0.2107  2.1808  0.1631
  121OSM    H8G12862   0.566   0.858   9.701  2.3969 -0.3699 -1.4680
  121OSM    C9F12863   0.396   0.743   9.636  1.1488 -0.3556 -0.0252
  121OSM    H9F12864   0.330   0.733   9.723 -1.1731  1.1864 -1.4941
  121OSM   C10F12865   0.343   0.739   9.509  1.1428 -0.2803  0.8845
  121OSM   H10F12866   0.235   0.726   9.491  1.4937  0.9856 -3.0448
  121OSM   C11F12867   0.417   0.752   9.382 -0.3756 -0.1967  0.4588
  121OSM   H11F12868   0.476   0.662   9.355 -0.1330 -0.3085  1.3394
  121OSM   H11G12869   0.489   0.836   9.384 -0.0538 -0.4595  0.2329
  121OSM   C12F12870   0.328   0.786   9.265  0.2496  0.0961  0.4522
  121OSM   H12F12871   0.288   0.888   9.281 -0.9959 -0.2410 -0.3227
  121OSM   H12G12872   0.241   0.716   9.261  0.0582  0.2363  1.8216
  121OSM   C13F12873   0.394   0.774   9.117  0.4581  0.1500 -0.3350
  121OSM   H13F12874   0.426   0.669   9.101 -0.7465 -0.3715  0.4964
  121OSM   H13G12875   0.484   0.838   9.123 -0.0838  0.7784  2.6765
  121OSM   C14F12876   0.305   0.815   9.002  0.4813 -0.1472  0.1923
  121OSM   H14F12877   0.243   0.903   9.030 -0.1844 -0.8157  0.8687
  121OSM   H14G12878   0.234   0.730   8.995  0.2656  0.0924 -0.6566
  121OSM   C15F12879   0.377   0.833   8.869  0.0429  0.2997  0.1540
  121OSM   H15F12880   0.427   0.740   8.834  0.7695  0.5416  0.5319
  121OSM   H15G12881   0.470   0.890   8.892  1.7191 -2.4964  0.8688
  121OSM   C16F12882   0.296   0.896   8.754 -0.6898 -0.3060  0.1606
  121OSM   H16F12883   0.214   0.833   8.712 -0.4405  1.1263 -2.6894
  121OSM   H16G12884   0.379   0.892   8.680  1.1036 -1.0470  2.1174
  121OSM   C17F12885   0.238   1.030   8.778 -0.5903  0.1098  0.4102
  121OSM   H17F12886   0.310   1.107   8.814 -0.7565 -0.0070  0.9969
  121OSM   H17G12887   0.163   1.024   8.860  0.6358  0.1403  1.5714
  121OSM   C18F12888   0.174   1.086   8.647  0.4157  0.8900 -0.0935
  121OSM   H18F12889   0.107   1.175   8.654  1.1882  1.5462 -0.8064
  121OSM   H18G12890   0.124   1.004   8.592  1.4609  1.2335 -1.5969
  121OSM   H18H12891   0.251   1.108   8.571  0.7997 -1.0730 -0.3091
  122OSM      N12892   1.787   6.614  10.930 -0.0262 -0.5206  0.0919
  122OSM    C1512893   1.700   6.531  11.013  0.8105  0.4533  0.3104
  122OSM   H15A12894   1.684   6.575  11.110  1.4295  3.1583 -0.7289
  122OSM   H15B12895   1.740   6.430  11.022 -1.9326 -0.5532  2.6585
  122OSM   H15C12896   1.598   6.538  10.979  0.6117 -0.1471  0.7655
  122OSM    C1412897   1.733   6.756  10.928  0.5067 -0.6965  0.3925
  122OSM   H14A12898   1.628   6.748  10.903  1.0814 -2.5005 -1.8360
  122OSM   H14B12899   1.776   6.812  10.846  1.3418 -0.2225  1.1272
  122OSM   H14C12900   1.747   6.812  11.019 -0.0453 -0.2560  0.2105
  122OSM    C1312901   1.924   6.614  10.989  0.2275  0.7186 -0.6132
  122OSM   H13A12902   1.991   6.531  10.973  2.0494  2.2540 -1.2469
  122OSM   H13B12903   1.915   6.638  11.094 -0.1705 -0.5011 -0.3506
  122OSM   H13C12904   1.988   6.694  10.958 -1.2672  2.6712  1.0374
  122OSM    C1212905   1.786   6.568  10.786 -0.8234 -0.4636  0.7072
  122OSM   H12A12906   1.834   6.630  10.712  2.1021 -1.8102  1.3634
  122OSM   H12B12907   1.686   6.568  10.743 -0.6933  1.2941  0.3353
  122OSM    C1112908   1.859   6.426  10.767  0.4106  0.3275 -0.1376
  122OSM   H11A12909   1.965   6.428  10.800  0.3804  1.2046 -0.0495
  122OSM   H11B12910   1.854   6.404  10.658 -1.1380  1.5650 -0.3579
  122OSM      P12911   1.765   6.180  10.762  0.3198  0.0505  0.3672
  122OSM    O1312912   1.721   6.080  10.854 -0.4828  0.4380  0.1701
  122OSM    O1412913   1.677   6.206  10.648  0.0718  0.4039 -0.0110
  122OSM    O1112914   1.903   6.130  10.705 -0.4153 -0.1026  0.0087
  122OSM    O1212915   1.790   6.321  10.841  0.0487  0.3245 -0.1103
  122OSM    C1S12916   1.916   6.041  10.593 -0.1642  0.0407 -0.2377
  122OSM    H1S12917   1.824   5.986  10.567  0.0708 -1.6557  2.1865
  122OSM    H1T12918   1.994   5.964  10.612 -0.9438 -0.7480 -0.1997
  122OSM     NF12919   1.984   6.025  10.355 -0.2813  0.4525  0.0689
  122OSM    HNF12920   2.074   5.982  10.358  0.0264  1.1107  0.4958
  122OSM    C2S12921   1.968   6.124  10.468  0.0485 -0.0534 -0.2359
  122OSM    H2S12922   1.892   6.202  10.448  0.0111 -0.6403 -2.8055
  122OSM    C3S12923   2.101   6.197  10.500  0.3550 -0.5815  0.5511
  122OSM    H3S12924   2.183   6.125  10.517  0.7307  0.5175  4.5680
  122OSM     O312925   2.099   6.272  10.619 -0.5520  0.0560 -0.6041
  122OSM    HO312926   2.012   6.253  10.655 -0.7564 -0.4877 -1.3690
  122OSM    C4S12927   2.142   6.283  10.378  0.1398 -0.2759  0.4356
  122OSM    H4S12928   2.237   6.254  10.331 -0.3897 -2.0411  0.3539
  122OSM    C5S12929   2.074   6.385  10.324 -0.6405 -0.3186 -0.4994
  122OSM    H5S12930   1.982   6.412  10.377 -0.5773 -1.2927  0.1300
  122OSM    C6S12931   2.117   6.467  10.207 -0.5878 -0.3102 -0.5778
  122OSM    H6S12932   2.176   6.408  10.134  0.0455 -0.1848 -0.1762
  122OSM    H6T12933   2.152   6.565  10.246 -2.1292  0.8226 -1.8707
  122OSM    C7S12934   1.995   6.524  10.132  0.1002  0.2478 -0.3444
  122OSM    H7S12935   1.943   6.601  10.193  0.5455  0.4395 -0.2049
  122OSM    H7T12936   1.921   6.441  10.133 -0.4740  0.7545  0.1194
  122OSM    C8S12937   2.016   6.563   9.982  0.8513 -0.0737 -0.2009
  122OSM    H8S12938   2.092   6.493   9.940 -0.1569 -1.1584 -0.2705
  122OSM    H8T12939   2.056   6.665   9.963  2.4019 -1.0651 -2.7065
  122OSM    C9S12940   1.885   6.555   9.905 -0.7600 -0.0506 -0.2890
  122OSM    H9S12941   1.814   6.629   9.949 -1.3174 -1.0998  0.6067
  122OSM    H9T12942   1.829   6.460   9.914 -0.2397 -0.5095 -1.6793
  122OSM   C10S12943   1.894   6.598   9.756 -0.4696  0.9065  0.0553
  122OSM   H10S12944   1.970   6.535   9.704 -2.6529 -1.6725 -0.2069
  122OSM   H10T12945   1.933   6.702   9.757  0.5217  0.5499  1.9503
  122OSM   C11S12946   1.768   6.608   9.677 -0.5210 -0.1780  0.7809
  122OSM   H11S12947   1.704   6.690   9.716  1.0822  1.2500  0.5243
  122OSM   H11T12948   1.705   6.519   9.657  0.5909 -0.4366 -2.0604
  122OSM   C12S12949   1.801   6.660   9.537 -0.5617 -0.3577 -0.0608
  122OSM   H12S12950   1.853   6.758   9.536  0.3959 -0.8539 -0.7257
  122OSM   H12T12951   1.700   6.677   9.494 -0.1373 -0.0590 -0.9663
  122OSM   C13S12952   1.883   6.557   9.450  0.3025 -0.6412 -0.5252
  122OSM   H13S12953   1.843   6.456   9.474 -2.1808  0.6135  1.0514
  122OSM   H13T12954   1.990   6.559   9.477  0.1875 -3.9926  0.6771
  122OSM   C14S12955   1.863   6.592   9.298 -0.0586  0.8875  0.0492
  122OSM   H14S12956   1.756   6.580   9.271  0.5032 -1.3201 -1.4647
  122OSM   H14T12957   1.927   6.524   9.237 -3.0937 -3.3854  1.1881
  122OSM   C15S12958   1.914   6.741   9.279  0.0721 -0.2443  0.4129
  122OSM   H15S12959   2.010   6.759   9.333  0.9050  2.6111 -1.7679
  122OSM   H15T12960   1.841   6.809   9.327  1.3701  2.2063 -0.8766
  122OSM   C16S12961   1.931   6.779   9.129  0.5291  0.7973 -0.1537
  122OSM   H16S12962   1.957   6.887   9.126 -0.0509  0.9365 -0.3641
  122OSM   H16T12963   1.834   6.766   9.075  0.1474 -0.4229  0.7839
  122OSM   C17S12964   2.042   6.709   9.054  0.2289  0.2280  0.5700
  122OSM   H17S12965   2.030   6.733   8.947 -2.1106 -0.7454  0.5459
  122OSM   H17T12966   2.026   6.600   9.072 -0.5838  0.6000  2.3429
  122OSM   C18S12967   2.184   6.745   9.092 -0.4109 -0.2567 -0.5213
  122OSM   H18S12968   2.211   6.704   9.191 -1.1156 -0.9112 -0.5891
  122OSM   H18T12969   2.194   6.855   9.086  0.1084 -0.3547 -1.9372
  122OSM   H18U12970   2.263   6.710   9.021  1.5001  1.7220  0.5104
  122OSM    C1F12971   1.879   5.963  10.302  0.0539 -0.1038  0.5904
  122OSM     OF12972   1.761   5.975  10.331 -0.7745 -0.6971 -0.6545
  122OSM    C2F12973   1.897   5.846  10.209  0.4282  0.2355 -0.4168
  122OSM    H2F12974   1.798   5.819  10.167 -0.1493  1.9976 -0.2592
  122OSM    H2G12975   1.941   5.765  10.272  0.0381  1.1869  1.1379
  122OSM    C3F12976   1.988   5.866  10.087  0.4718 -0.4119  0.2211
  122OSM    H3F12977   2.032   5.782  10.029 -2.2054 -1.0124 -1.1080
  122OSM    H3G12978   2.078   5.923  10.117  0.6312 -0.1676 -0.6958
  122OSM    C4F12979   1.915   5.947   9.983  0.2537  0.4691  0.1843
  122OSM    H4F12980   1.866   6.038  10.025  0.9304  0.8291  0.2097
  122OSM    H4G12981   1.833   5.885   9.940  2.2163 -2.1648 -0.0257
  122OSM    C5F12982   1.997   5.987   9.863  0.7907  0.2845  0.0231
  122OSM    H5F12983   1.924   6.014   9.783  0.3459 -2.5203 -0.6205
  122OSM    H5G12984   2.053   5.897   9.830 -1.0347 -1.7112  2.0962
  122OSM    C6F12985   2.105   6.091   9.894 -0.1549 -0.2826 -0.2378
  122OSM    H6F12986   2.192   6.041   9.943  0.0165 -1.0028 -1.2566
  122OSM    H6G12987   2.069   6.181   9.948 -2.1060  0.1259 -2.0841
  122OSM    C7F12988   2.147   6.151   9.756  0.4386 -0.3729 -0.1925
  122OSM    H7F12989   2.059   6.175   9.694  1.9302  1.5770 -1.6792
  122OSM    H7G12990   2.194   6.073   9.692  1.9061  1.2586 -1.1627
  122OSM    C8F12991   2.228   6.284   9.784 -0.1689  0.4198  0.6253
  122OSM    H8F12992   2.240   6.295   9.894 -0.0269  0.3424  0.6169
  122OSM    H8G12993   2.153   6.362   9.761 -1.3071 -0.2699  1.8634
  122OSM    C9F12994   2.362   6.303   9.720  1.8386 -0.1763  0.6015
  122OSM    H9F12995   2.449   6.268   9.777  2.2202  0.8800  0.6856
  122OSM   C10F12996   2.384   6.375   9.608  0.4500  0.0699 -0.0878
  122OSM   H10F12997   2.486   6.383   9.568  0.8512  0.1376  0.9257
  122OSM   C11F12998   2.277   6.443   9.524 -0.3568  0.3851  0.7707
  122OSM   H11F12999   2.253   6.540   9.572  0.9831  1.2536 -0.2443
  122OSM   H11G13000   2.178   6.392   9.525  0.1880 -0.7663 -0.8341
  122OSM   C12F13001   2.317   6.443   9.378 -0.0106  0.1826  0.7022
  122OSM   H12F13002   2.405   6.509   9.362  0.0608 -0.0729 -0.0073
  122OSM   H12G13003   2.233   6.472   9.311 -0.8455 -1.8622  0.8010
  122OSM   C13F13004   2.351   6.304   9.317 -0.5345  0.5783 -0.1405
  122OSM   H13F13005   2.270   6.232   9.342 -0.1629  0.4077  0.5990
  122OSM   H13G13006   2.436   6.265   9.377  0.5077  1.1670 -1.2058
  122OSM   C14F13007   2.381   6.298   9.167 -1.1816  0.4227 -0.6114
  122OSM   H14F13008   2.294   6.349   9.120 -1.5406  0.7329  0.3759
  122OSM   H14G13009   2.389   6.191   9.138  1.8252  0.2336  0.5338
  122OSM   C15F13010   2.507   6.372   9.141  0.1509 -0.3484 -0.4286
  122OSM   H15F13011   2.590   6.340   9.208 -0.1035  0.6864  0.3961
  122OSM   H15G13012   2.495   6.477   9.174  0.5151 -0.4562  0.0642
  122OSM   C16F13013   2.558   6.385   8.997 -0.1660 -0.6607  0.1762
  122OSM   H16F13014   2.564   6.278   8.967 -0.6134 -0.3786 -0.9979
  122OSM   H16G13015   2.662   6.423   8.983 -0.7215  0.6437 -0.5343
  122OSM   C17F13016   2.464   6.451   8.899  0.4999  0.6147 -0.0352
  122OSM   H17F13017   2.451   6.558   8.926 -0.5393  0.7481 -1.0012
  122OSM   H17G13018   2.363   6.406   8.908  0.7436  0.4831  2.6910
  122OSM   C18F13019   2.491   6.436   8.748 -0.2546 -0.1452  0.0489
  122OSM   H18F13020   2.590   6.484   8.731  0.1536  1.2649  4.8106
  122OSM   H18G13021   2.406   6.485   8.698 -0.1948  2.6898  2.4702
  122OSM   H18H13022   2.507   6.331   8.716  1.7184 -0.2501  1.1637
  123OSM      N13023   4.584   5.378   5.972  0.1630 -0.0048 -0.8052
  123OSM    C1513024   4.606   5.470   5.864 -0.0593 -0.4131  0.1475
  123OSM   H15A13025   4.516   5.529   5.854 -2.0370 -3.3281 -0.6934
  123OSM   H15B13026   4.605   5.421   5.768  2.5776  0.3040 -0.3309
  123OSM   H15C13027   4.685   5.535   5.898  1.0782 -1.3933 -0.5353
  123OSM    C1413028   4.512   5.255   5.921  0.0458  0.2145 -0.0694
  123OSM   H14A13029   4.414   5.280   5.884  0.7994  1.7191 -1.1964
  123OSM   H14B13030   4.498   5.184   6.001  2.0583 -0.6498 -0.4282
  123OSM   H14C13031   4.574   5.209   5.844  0.0535 -0.8960  0.5802
  123OSM    C1313032   4.721   5.320   6.016  0.4697 -0.3333  0.2429
  123OSM   H13A13033   4.739   5.226   5.966 -2.3540 -0.7385 -0.1757
  123OSM   H13B13034   4.725   5.296   6.121 -0.3389  2.6110  1.0480
  123OSM   H13C13035   4.796   5.391   5.985 -0.9652  1.7881  1.3970
  123OSM    C1213036   4.514   5.439   6.095 -0.7130 -0.4601 -0.1449
  123OSM   H12A13037   4.571   5.525   6.127 -1.7248  0.5965 -1.0854
  123OSM   H12B13038   4.527   5.380   6.185  2.0984  1.3404  0.7698
  123OSM    C1113039   4.368   5.477   6.076  0.5338  0.1333 -0.1076
  123OSM   H11A13040   4.334   5.537   6.163  0.1667  1.3784 -1.0786
  123OSM   H11B13041   4.314   5.380   6.064  2.7566 -0.9417 -2.5341
  123OSM      P13042   4.376   5.722   5.970 -0.0499 -0.0006 -0.2578
  123OSM    O1313043   4.463   5.757   5.855  0.0467 -0.5273 -0.3979
  123OSM    O1413044   4.252   5.796   5.976 -0.2266 -0.1932  0.8011
  123OSM    O1113045   4.452   5.747   6.100 -0.0627 -0.5351 -0.5657
  123OSM    O1213046   4.348   5.565   5.960  0.0391 -0.2495 -0.7235
  123OSM    C1S13047   4.388   5.804   6.218 -0.6582 -0.2175 -0.3413
  123OSM    H1S13048   4.340   5.723   6.278 -2.1462  1.3858  0.7303
  123OSM    H1T13049   4.310   5.882   6.207  1.0164  2.1172  2.6943
  123OSM     NF13050   4.445   5.887   6.450 -0.1091  0.0615  0.4995
  123OSM    HNF13051   4.453   5.984   6.474 -1.3948 -0.0008  1.2843
  123OSM    C2S13052   4.497   5.859   6.319 -0.4559 -0.0885  0.3825
  123OSM    H2S13053   4.574   5.780   6.332  0.8044  0.9849 -0.3299
  123OSM    C3S13054   4.560   5.983   6.249 -0.3787 -0.0004 -0.5088
  123OSM    H3S13055   4.481   6.061   6.248 -0.5080 -0.0973  0.6612
  123OSM     O313056   4.614   5.974   6.115  0.1887 -0.2077  0.4061
  123OSM    HO313057   4.588   5.886   6.087  0.9371 -1.1144  2.3796
  123OSM    C4S13058   4.667   6.034   6.342  0.6275 -0.1159  0.1035
  123OSM    H4S13059   4.626   6.121   6.395  0.8825 -0.1757  0.4031
  123OSM    C5S13060   4.793   5.999   6.358 -0.4485 -0.7923  0.2073
  123OSM    H5S13061   4.840   5.911   6.311  0.7467 -0.7160  1.2147
  123OSM    C6S13062   4.889   6.056   6.461 -0.6670 -0.3272  0.1044
  123OSM    H6S13063   4.846   6.136   6.525 -0.0296 -0.4694  0.7140
  123OSM    H6T13064   4.974   6.107   6.411 -1.1559  0.8825  0.4654
  123OSM    C7S13065   4.944   5.948   6.554  0.4457  0.1021  0.0426
  123OSM    H7S13066   5.006   6.008   6.624 -0.5091  1.7691 -0.4851
  123OSM    H7T13067   5.003   5.880   6.488  1.5677 -1.8767  2.8839
  123OSM    C8S13068   4.843   5.861   6.638  0.2459  0.3237 -0.7379
  123OSM    H8S13069   4.897   5.791   6.705 -0.3479  0.3234 -0.2527
  123OSM    H8T13070   4.773   5.803   6.575 -0.0110  0.5645 -0.6768
  123OSM    C9S13071   4.762   5.949   6.738  0.1747  0.3673 -0.0051
  123OSM    H9S13072   4.706   5.879   6.804  0.2556  1.1853  0.9541
  123OSM    H9T13073   4.677   5.997   6.686 -2.5167 -1.9375  1.9207
  123OSM   C10S13074   4.834   6.048   6.822 -0.0245 -0.2776 -0.6409
  123OSM   H10S13075   4.853   6.136   6.758 -1.3728  0.8248  0.4054
  123OSM   H10T13076   4.933   6.016   6.861 -0.2679 -2.1132 -1.4351
  123OSM   C11S13077   4.734   6.103   6.935  0.2517  0.1944  0.5068
  123OSM   H11S13078   4.645   6.036   6.935 -0.8128  1.5634 -0.2441
  123OSM   H11T13079   4.691   6.202   6.911 -0.7641 -0.4149 -0.2402
  123OSM   C12S13080   4.793   6.097   7.076  0.1802  0.0824  0.0785
  123OSM   H12S13081   4.879   6.168   7.073 -0.4421  0.8349 -0.1569
  123OSM   H12T13082   4.829   5.993   7.094 -0.0707  0.0464  0.3701
  123OSM   C13S13083   4.710   6.120   7.198  0.3702  0.1972 -0.6549
  123OSM   H13S13084   4.625   6.051   7.217 -1.0073  2.2164  0.9319
  123OSM   H13T13085   4.658   6.218   7.186  2.3010  1.0837 -2.3450
  123OSM   C14S13086   4.783   6.112   7.330 -0.7964  0.0610 -0.3293
  123OSM   H14S13087   4.858   6.194   7.327 -0.0180 -0.6147  0.1957
  123OSM   H14T13088   4.837   6.016   7.344  0.4006  0.6064 -0.9668
  123OSM   C15S13089   4.686   6.133   7.449  0.5830 -0.1619  0.6565
  123OSM   H15S13090   4.613   6.051   7.465  1.9832 -1.6636 -0.3026
  123OSM   H15T13091   4.628   6.227   7.433  1.8434  0.7856  1.4130
  123OSM   C16S13092   4.758   6.148   7.581  0.2112  0.0294 -0.0566
  123OSM   H16S13093   4.680   6.164   7.658 -1.0547  1.0025 -1.5034
  123OSM   H16T13094   4.829   6.234   7.579  1.4797 -0.9913 -1.4271
  123OSM   C17S13095   4.847   6.026   7.609  0.3002 -0.5476  0.0373
  123OSM   H17S13096   4.952   6.054   7.586 -0.7401  0.5449 -4.1990
  123OSM   H17T13097   4.810   5.934   7.558 -0.4019  0.0538 -0.5674
  123OSM   C18S13098   4.842   6.006   7.766 -0.5142  0.1421 -0.0142
  123OSM   H18S13099   4.891   6.092   7.817  0.2161 -0.8519  0.9898
  123OSM   H18T13100   4.905   5.917   7.786  1.4352  1.1085 -1.4115
  123OSM   H18U13101   4.737   5.989   7.797 -0.4131  0.2574  0.4014
  123OSM    C1F13102   4.407   5.789   6.533 -0.3026 -0.4145 -0.0432
  123OSM     OF13103   4.395   5.673   6.494 -0.4938 -0.3414  0.3558
  123OSM    C2F13104   4.382   5.832   6.675 -0.3088  0.3641 -0.8465
  123OSM    H2F13105   4.402   5.941   6.681  1.0578  0.1169 -0.6514
  123OSM    H2G13106   4.460   5.780   6.735  0.1590  1.0738 -0.8295
  123OSM    C3F13107   4.240   5.805   6.729  0.3779 -0.1615  0.4027
  123OSM    H3F13108   4.193   5.707   6.707 -3.3069  1.1950  1.4813
  123OSM    H3G13109   4.180   5.890   6.690  0.7221  1.1175  2.4898
  123OSM    C4F13110   4.215   5.829   6.882 -0.9325 -0.5080  0.0770
  123OSM    H4F13111   4.110   5.799   6.903 -1.4213  0.8288 -0.3738
  123OSM    H4G13112   4.225   5.936   6.909 -0.3653 -0.3549 -0.6891
  123OSM    C5F13113   4.306   5.742   6.970  0.2536  0.4241  0.8033
  123OSM    H5F13114   4.413   5.761   6.947  0.4772  0.0620  1.5113
  123OSM    H5G13115   4.287   5.640   6.929 -1.2163  0.6432  0.8841
  123OSM    C6F13116   4.286   5.742   7.122 -0.0639  0.2325 -0.1392
  123OSM    H6F13117   4.305   5.847   7.153  0.8188  0.2650 -0.7761
  123OSM    H6G13118   4.369   5.679   7.161 -1.5636 -0.6560  1.7796
  123OSM    C7F13119   4.152   5.695   7.188 -0.5723 -0.5162  0.2173
  123OSM    H7F13120   4.158   5.586   7.172  1.2024 -0.4925  0.5401
  123OSM    H7G13121   4.070   5.735   7.125  0.4689 -1.2997 -1.7499
  123OSM    C8F13122   4.138   5.720   7.339  0.7968  1.5761  0.2652
  123OSM    H8F13123   4.136   5.828   7.363 -2.5722  1.7347 -0.3334
  123OSM    H8G13124   4.230   5.671   7.379  1.4095  1.7505 -0.8857
  123OSM    C9F13125   4.009   5.662   7.394  0.6054  0.2804  0.0006
  123OSM    H9F13126   3.926   5.669   7.321  1.4080  1.6729 -0.8286
  123OSM   C10F13127   3.993   5.601   7.512  0.1690  0.1587  0.6051
  123OSM   H10F13128   3.892   5.563   7.533  0.4809 -0.4623  1.0106
  123OSM   C11F13129   4.092   5.572   7.625 -0.0733 -0.1418  0.1351
  123OSM   H11F13130   4.184   5.631   7.607  0.3953 -0.5392  1.1756
  123OSM   H11G13131   4.122   5.465   7.620 -1.8138 -0.6969  0.7671
  123OSM   C12F13132   4.062   5.606   7.774  0.2690  0.6471  0.1702
  123OSM   H12F13133   3.973   5.555   7.817 -0.7175  1.1792 -1.1635
  123OSM   H12G13134   4.033   5.714   7.773 -0.8269  0.3964  1.4765
  123OSM   C13F13135   4.187   5.590   7.855 -0.1412 -0.1015 -0.2064
  123OSM   H13F13136   4.268   5.640   7.798 -0.9980  1.6919  0.0612
  123OSM   H13G13137   4.209   5.481   7.855 -0.7240 -0.2212 -0.8693
  123OSM   C14F13138   4.191   5.648   8.002  0.6727 -0.2821  0.1356
  123OSM   H14F13139   4.119   5.604   8.074  1.3865  0.8380  1.5826
  123OSM   H14G13140   4.171   5.758   7.996  1.7137 -0.1176 -0.5934
  123OSM   C15F13141   4.329   5.626   8.066  0.1591 -0.3416  0.7362
  123OSM   H15F13142   4.393   5.680   7.993  0.2863 -0.8819  0.4364
  123OSM   H15G13143   4.345   5.516   8.056  0.8565 -0.2319  0.6311
  123OSM   C16F13144   4.347   5.689   8.197 -0.1002 -0.2516  0.0395
  123OSM   H16F13145   4.286   5.645   8.279 -0.0918 -0.8561 -0.2751
  123OSM   H16G13146   4.314   5.794   8.183  1.4847 -0.0865 -3.3942
  123OSM   C17F13147   4.494   5.684   8.249 -0.0866 -0.2577  0.0685
  123OSM   H17F13148   4.565   5.721   8.172 -0.5020 -0.7430 -0.5558
  123OSM   H17G13149   4.526   5.579   8.266  2.3383  0.1375 -1.5621
  123OSM   C18F13150   4.513   5.764   8.373 -0.1385  0.7078 -0.9015
  123OSM   H18F13151   4.473   5.866   8.354  0.0976  1.0325  0.2512
  123OSM   H18G13152   4.623   5.768   8.389 -0.1172 -0.5277 -0.6250
  123OSM   H18H13153   4.459   5.716   8.458 -2.3047  1.0737 -1.9996
  124OSM      N13154   5.962   4.274   6.048  0.3227  0.5285  0.2460
  124OSM    C1513155   5.927   4.234   6.177 -0.2273  0.4655  0.0528
  124OSM   H15A13156   5.969   4.137   6.200 -2.3488 -0.0005  2.3593
  124OSM   H15B13157   5.822   4.235   6.201  0.0945  0.1522  1.5563
  124OSM   H15C13158   5.971   4.299   6.252 -2.7677  1.3148  0.9173
  124OSM    C1413159   5.894   4.185   5.948 -0.2879 -0.6389 -0.0251
  124OSM   H14A13160   5.947   4.090   5.943 -0.3457 -0.6512 -0.4445
  124OSM   H14B13161   5.904   4.232   5.851 -3.2695  1.9665  0.7740
  124OSM   H14C13162   5.788   4.190   5.965 -0.7769  0.9608 -2.8956
  124OSM    C1313163   5.909   4.412   6.034  0.1204 -0.5259 -0.5325
  124OSM   H13A13164   5.801   4.413   6.038  0.0466  2.3839 -1.3959
  124OSM   H13B13165   5.950   4.457   5.945  1.9209  1.2467  1.1014
  124OSM   H13C13166   5.937   4.475   6.117  0.7450 -1.1139 -0.2833
  124OSM    C1213167   6.115   4.267   6.041 -0.2405  0.2527  0.3477
  124OSM   H12A13168   6.167   4.352   6.084  0.6255  0.0218 -0.2133
  124OSM   H12B13169   6.154   4.279   5.941  1.1550  0.5940  0.8950
  124OSM    C1113170   6.182   4.142   6.107 -0.0213  0.3713 -0.9780
  124OSM   H11A13171   6.179   4.148   6.218  0.7294  1.3774 -1.0054
  124OSM   H11B13172   6.293   4.142   6.096  0.0483  2.6290 -0.7167
  124OSM      P13173   6.117   3.893   6.146  0.4836 -0.0130  0.0206
  124OSM    O1313174   6.000   3.813   6.105  0.2055  0.5794 -0.6907
  124OSM    O1413175   6.248   3.829   6.133 -0.6125 -0.3631  0.1336
  124OSM    O1113176   6.085   3.943   6.298 -0.1746 -1.0897 -0.1883
  124OSM    O1213177   6.122   4.023   6.053 -0.5730  0.1379 -0.2148
  124OSM    C1S13178   6.086   3.841   6.399 -0.8482  0.3070  0.4077
  124OSM    H1S13179   6.186   3.795   6.407 -0.7184  0.7641  1.6186
  124OSM    H1T13180   6.015   3.761   6.371  1.1408 -1.8914  1.3361
  124OSM     NF13181   6.089   3.789   6.637 -0.3089 -0.3569 -0.8113
  124OSM    HNF13182   6.017   3.738   6.684 -0.7836 -1.0072 -2.2160
  124OSM    C2S13183   6.056   3.890   6.544  0.3553 -0.3316 -0.3751
  124OSM    H2S13184   6.119   3.980   6.562 -0.4049  0.6141 -2.2330
  124OSM    C3S13185   5.914   3.950   6.550  0.2572  0.3471 -0.4782
  124OSM    H3S13186   5.839   3.873   6.522 -2.1936  2.1968  0.5866
  124OSM     O313187   5.906   4.062   6.470  0.6019  0.4870  0.2776
  124OSM    HO313188   5.989   4.054   6.422 -0.3342 -2.0296 -1.1254
  124OSM    C4S13189   5.883   3.995   6.689  0.0593 -0.8425  0.4888
  124OSM    H4S13190   5.962   4.065   6.720 -1.1305  0.2603  1.0707
  124OSM    C5S13191   5.776   3.971   6.767  0.4806  0.0451 -0.1175
  124OSM    H5S13192   5.695   3.907   6.731 -0.6437  1.0271  0.6098
  124OSM    C6S13193   5.766   4.020   6.909  0.1108  0.2300 -0.1499
  124OSM    H6S13194   5.680   3.963   6.950 -1.1633  1.7347 -0.6623
  124OSM    H6T13195   5.744   4.129   6.903 -0.4081  0.1090 -0.4821
  124OSM    C7S13196   5.893   4.004   6.999 -0.1632 -0.0034 -0.5776
  124OSM    H7S13197   5.886   4.074   7.085  1.1574 -0.5658  0.0085
  124OSM    H7T13198   5.981   4.028   6.936 -1.7362  1.0963 -2.4867
  124OSM    C8S13199   5.905   3.864   7.059  0.2114 -0.1741 -0.0832
  124OSM    H8S13200   5.894   3.796   6.972  0.5309  1.5729 -1.5471
  124OSM    H8T13201   5.816   3.833   7.118 -0.9254  0.0156 -1.6416
  124OSM    C9S13202   6.035   3.846   7.136 -0.3387 -0.2367 -0.2077
  124OSM    H9S13203   6.112   3.902   7.080 -0.8529  1.1859  0.4635
  124OSM    H9T13204   6.059   3.737   7.137 -1.8575 -0.6000 -0.2144
  124OSM   C10S13205   6.028   3.896   7.273  0.7261 -0.3692  0.0741
  124OSM   H10S13206   6.017   4.006   7.288  2.0401 -0.2645  0.3867
  124OSM   H10T13207   6.117   3.887   7.339  1.5346  1.0812 -0.7688
  124OSM   C11S13208   5.911   3.834   7.356  0.1842 -0.8011  0.2254
  124OSM   H11S13209   5.901   3.724   7.355  1.7328 -0.9516  0.2374
  124OSM   H11T13210   5.819   3.890   7.328  1.2143  1.9399  1.9250
  124OSM   C12S13211   5.923   3.865   7.508  0.1629 -0.1894  0.6220
  124OSM   H12S13212   5.820   3.881   7.547  0.3341  1.1907  0.5843
  124OSM   H12T13213   5.976   3.961   7.522 -1.7341  1.1409 -0.7099
  124OSM   C13S13214   5.974   3.752   7.597  0.0090  0.2465 -0.2424
  124OSM   H13S13215   6.075   3.725   7.559 -0.1667 -0.0044 -0.5292
  124OSM   H13T13216   5.897   3.672   7.594 -0.4407  0.6907 -0.6632
  124OSM   C14S13217   5.980   3.793   7.747 -0.4561  0.4275  1.0283
  124OSM   H14S13218   5.882   3.839   7.769 -0.4433  0.3210  1.3064
  124OSM   H14T13219   6.062   3.866   7.768 -1.0009  1.8161 -1.3406
  124OSM   C15S13220   5.997   3.668   7.840 -0.4064 -0.1467  0.7217
  124OSM   H15S13221   6.055   3.688   7.933  1.0298 -4.3647  0.9651
  124OSM   H15T13222   6.048   3.589   7.781 -0.9637  0.5136 -0.6898
  124OSM   C16S13223   5.858   3.624   7.884 -0.8810  0.8120 -0.5299
  124OSM   H16S13224   5.814   3.577   7.793 -1.8473 -0.0195  0.3363
  124OSM   H16T13225   5.794   3.711   7.912 -1.6385  0.0313  0.2414
  124OSM   C17S13226   5.855   3.533   8.008 -0.5884 -0.1922  0.2004
  124OSM   H17S13227   5.918   3.446   7.980 -0.6106 -0.0305 -0.3800
  124OSM   H17T13228   5.748   3.501   8.010 -0.6006 -0.1127  1.9147
  124OSM   C18S13229   5.903   3.592   8.141 -0.3525 -0.3244  1.1736
  124OSM   H18S13230   5.861   3.694   8.155  3.1958  1.2078  1.6115
  124OSM   H18T13231   6.012   3.607   8.125 -0.5937 -0.0988 -0.4842
  124OSM   H18U13232   5.883   3.533   8.233 -1.2591 -2.3552 -0.2363
  124OSM    C1F13233   6.215   3.746   6.654  0.0158 -0.1204  0.3492
  124OSM     OF13234   6.316   3.814   6.624 -0.0087  1.1272  0.6889
  124OSM    C2F13235   6.225   3.613   6.718 -0.2431  0.1957 -0.8112
  124OSM    H2F13236   6.289   3.547   6.656 -0.8002 -1.6969  0.5408
  124OSM    H2G13237   6.128   3.561   6.708 -0.2546  0.0640 -0.0521
  124OSM    C3F13238   6.281   3.637   6.862 -0.1090  0.3910  0.1364
  124OSM    H3F13239   6.192   3.678   6.913 -2.7934 -1.2074 -2.8515
  124OSM    H3G13240   6.367   3.706   6.873 -1.0717  1.6730 -0.1056
  124OSM    C4F13241   6.327   3.516   6.942 -0.4638  0.3396 -0.2263
  124OSM    H4F13242   6.408   3.472   6.880  0.8454  0.9090  1.0450
  124OSM    H4G13243   6.246   3.439   6.943 -0.0458 -0.1078 -0.4764
  124OSM    C5F13244   6.377   3.550   7.079  0.3069  0.2579  0.4008
  124OSM    H5F13245   6.297   3.596   7.142  0.0557  1.9116 -1.0339
  124OSM    H5G13246   6.456   3.626   7.065  0.8767 -0.6376 -1.5369
  124OSM    C6F13247   6.443   3.434   7.143 -0.3498 -0.3940 -0.2009
  124OSM    H6F13248   6.520   3.397   7.071 -0.7699 -1.0694 -0.3063
  124OSM    H6G13249   6.390   3.339   7.161  1.3516 -1.3783 -0.1574
  124OSM    C7F13250   6.529   3.471   7.267 -0.1193  0.0936 -0.2077
  124OSM    H7F13251   6.603   3.550   7.239  2.4420 -0.9325  2.9930
  124OSM    H7G13252   6.581   3.376   7.291 -1.0139 -0.5586 -0.7970
  124OSM    C8F13253   6.455   3.513   7.401  0.5308 -0.4335  0.5408
  124OSM    H8F13254   6.383   3.587   7.360  2.5877  1.2542 -0.2219
  124OSM    H8G13255   6.539   3.553   7.462 -1.0277  0.6703  2.0553
  124OSM    C9F13256   6.386   3.400   7.467  0.2497  0.5073  0.3945
  124OSM    H9F13257   6.321   3.333   7.409  1.5659 -0.0722 -0.4402
  124OSM   C10F13258   6.391   3.365   7.598 -0.5532  0.3616 -0.0151
  124OSM   H10F13259   6.323   3.288   7.638 -0.5655  0.1664 -0.4056
  124OSM   C11F13260   6.462   3.437   7.714 -0.2055 -0.1741  0.2114
  124OSM   H11F13261   6.530   3.518   7.682  1.0577 -1.1163  0.4383
  124OSM   H11G13262   6.531   3.359   7.752  1.4260  0.2798 -1.6254
  124OSM   C12F13263   6.366   3.498   7.822  0.4282  0.2754  0.1638
  124OSM   H12F13264   6.298   3.574   7.778 -0.7720  0.0248  1.5196
  124OSM   H12G13265   6.425   3.544   7.904  2.0540 -1.1765 -0.1346
  124OSM   C13F13266   6.308   3.381   7.906 -0.2955  0.4213 -0.7475
  124OSM   H13F13267   6.397   3.323   7.939 -0.4509  1.2429  1.2291
  124OSM   H13G13268   6.253   3.309   7.842  0.4191 -0.3712 -0.4909
  124OSM   C14F13269   6.229   3.404   8.035 -0.0640 -0.1561  0.1684
  124OSM   H14F13270   6.124   3.396   7.998  0.3434 -1.9447 -0.7351
  124OSM   H14G13271   6.249   3.506   8.074 -0.8215  0.8643 -1.9602
  124OSM   C15F13272   6.239   3.287   8.142  0.8326 -0.2042  0.6947
  124OSM   H15F13273   6.348   3.271   8.156  1.1438  2.5917  2.1840
  124OSM   H15G13274   6.201   3.191   8.100  0.0011  0.2485  0.3845
  124OSM   C16F13275   6.173   3.316   8.279  0.2671  0.1488 -0.6254
  124OSM   H16F13276   6.063   3.310   8.262  0.3018 -0.7614 -0.5533
  124OSM   H16G13277   6.202   3.418   8.314  1.7956 -0.9908  1.6780
  124OSM   C17F13278   6.226   3.221   8.378 -0.1859  0.7775 -0.2134
  124OSM   H17F13279   6.332   3.251   8.394  0.2771 -1.4558  1.3845
  124OSM   H17G13280   6.234   3.119   8.336 -0.4112  1.4117 -1.8546
  124OSM   C18F13281   6.149   3.215   8.510 -0.2381  0.4583  0.7763
  124OSM   H18F13282   6.192   3.142   8.582  1.2192 -0.3392 -0.8285
  124OSM   H18G13283   6.041   3.198   8.491 -0.0841  1.2055 -0.9843
  124OSM   H18H13284   6.167   3.315   8.556  0.4428  0.8524 -0.3131
  125OSM      N13285   6.123   4.913   5.941  0.5159 -0.1611  0.4677
  125OSM    C1513286   6.067   4.930   6.079 -0.0560 -0.2719  0.2334
  125OSM   H15A13287   5.999   4.849   6.100  1.2562 -1.7201 -0.8192
  125OSM   H15B13288   6.015   5.024   6.088  1.1977  0.9110 -3.0305
  125OSM   H15C13289   6.145   4.934   6.154  2.1168  0.0903 -1.9047
  125OSM    C1413290   6.012   4.888   5.847  0.0478  0.0814  0.0538
  125OSM   H14A13291   6.049   4.843   5.756 -0.7563 -0.5625  0.0401
  125OSM   H14B13292   5.949   4.974   5.836 -0.0898  0.0355  0.4395
  125OSM   H14C13293   5.958   4.804   5.887 -0.5287 -0.3711 -1.6015
  125OSM    C1313294   6.191   5.042   5.900  0.6692 -0.9747 -0.8103
  125OSM   H13A13295   6.264   5.075   5.972  0.4744 -1.3303 -0.4486
  125OSM   H13B13296   6.122   5.126   5.905  2.1419  0.2099  2.6976
  125OSM   H13C13297   6.238   5.037   5.802  0.3505  0.4570 -1.0694
  125OSM    C1213298   6.228   4.798   5.938 -0.3588  0.2251  0.2322
  125OSM   H12A13299   6.325   4.829   5.972 -0.5801  0.5945  0.5335
  125OSM   H12B13300   6.248   4.775   5.834 -3.2979 -0.4450 -0.2789
  125OSM    C1113301   6.191   4.674   6.021  0.6110 -0.1616  0.3163
  125OSM   H11A13302   6.088   4.645   5.990  0.8113 -1.6643  0.9717
  125OSM   H11B13303   6.198   4.697   6.129 -1.0440  0.0179  0.4119
  125OSM      P13304   6.408   4.540   6.081  0.3679 -0.2106 -0.4040
  125OSM    O1313305   6.507   4.455   6.018  0.4065  0.3830  0.3263
  125OSM    O1413306   6.454   4.670   6.137  0.8824 -0.1572 -0.5241
  125OSM    O1113307   6.341   4.461   6.208  0.7783 -0.2986  0.4173
  125OSM    O1213308   6.288   4.576   5.987 -0.3849  0.2848  0.0948
  125OSM    C1S13309   6.425   4.397   6.303 -0.3866  0.2364  0.2928
  125OSM    H1S13310   6.531   4.430   6.316  0.3272 -1.7416 -0.0762
  125OSM    H1T13311   6.431   4.287   6.285 -1.2757  0.4153 -1.3681
  125OSM     NF13312   6.490   4.370   6.536 -1.2609  0.8013 -0.0297
  125OSM    HNF13313   6.497   4.273   6.558  0.8889  1.2161  1.4729
  125OSM    C2S13314   6.378   4.403   6.449 -0.5223  0.0263 -0.1839
  125OSM    H2S13315   6.357   4.511   6.466  0.8253  0.1999  0.5968
  125OSM    C3S13316   6.243   4.331   6.474 -0.3661  0.7847  0.3099
  125OSM    H3S13317   6.257   4.222   6.456 -1.6187  0.5065  0.9099
  125OSM     O313318   6.146   4.364   6.378 -0.1739 -0.0664 -0.2125
  125OSM    HO313319   6.204   4.409   6.316 -1.9937  1.3226 -1.0232
  125OSM    C4S13320   6.196   4.357   6.608 -0.0095  1.0436 -0.3726
  125OSM    H4S13321   6.187   4.465   6.626  1.7736  1.0276  0.8495
  125OSM    C5S13322   6.180   4.272   6.708 -0.4912  0.3414 -0.0867
  125OSM    H5S13323   6.205   4.166   6.691  2.6927  1.0887 -0.5677
  125OSM    C6S13324   6.128   4.311   6.838  0.5889 -0.1094 -0.3635
  125OSM    H6S13325   6.026   4.271   6.857  0.4284 -0.2955 -1.5383
  125OSM    H6T13326   6.109   4.420   6.847 -0.9263 -0.4239  0.7639
  125OSM    C7S13327   6.216   4.274   6.963 -0.0365  0.8574  0.4489
  125OSM    H7S13328   6.319   4.314   6.964  1.0621 -1.7920  1.3416
  125OSM    H7T13329   6.224   4.164   6.968 -0.7500  0.7508 -0.4085
  125OSM    C8S13330   6.144   4.320   7.086 -0.5848  0.3051  0.1793
  125OSM    H8S13331   6.037   4.288   7.085 -0.1416 -1.3287 -1.9773
  125OSM    H8T13332   6.157   4.430   7.081  0.3272  0.2150  0.4021
  125OSM    C9S13333   6.204   4.278   7.217 -1.2172 -0.3905  0.4011
  125OSM    H9S13334   6.311   4.279   7.186 -0.3014 -2.3883  3.1426
  125OSM    H9T13335   6.178   4.172   7.239 -1.7920 -0.3911 -0.2420
  125OSM   C10S13336   6.193   4.374   7.337  0.1232  0.1552  0.1693
  125OSM   H10S13337   6.088   4.398   7.362  0.5096  1.6106  0.5134
  125OSM   H10T13338   6.236   4.474   7.314 -0.4392  0.7726  1.6549
  125OSM   C11S13339   6.254   4.316   7.474  0.3728 -0.2030 -0.0735
  125OSM   H11S13340   6.361   4.286   7.467  0.3089 -0.1595 -1.3896
  125OSM   H11T13341   6.208   4.219   7.501 -0.3786  0.8290  2.8225
  125OSM   C12S13342   6.240   4.408   7.597 -0.1995  0.2958  0.4600
  125OSM   H12S13343   6.133   4.430   7.617  0.1213  1.7343  0.6963
  125OSM   H12T13344   6.275   4.508   7.564  0.7770  0.5367  2.1422
  125OSM   C13S13345   6.310   4.360   7.718 -0.4612  0.0594  0.1813
  125OSM   H13S13346   6.416   4.336   7.695 -0.2278  0.2184  1.0487
  125OSM   H13T13347   6.271   4.260   7.747  0.6839 -0.2738  0.6550
  125OSM   C14S13348   6.300   4.453   7.844 -0.5614 -0.1856 -0.7699
  125OSM   H14S13349   6.199   4.446   7.889  1.5869 -0.3888  4.7004
  125OSM   H14T13350   6.315   4.558   7.814 -3.1228  0.1919 -0.8981
  125OSM   C15S13351   6.410   4.416   7.945 -0.2365  0.5064  0.0559
  125OSM   H15S13352   6.512   4.453   7.917  0.6326 -2.3001 -0.8375
  125OSM   H15T13353   6.420   4.308   7.967  1.3584  0.3794 -1.0672
  125OSM   C16S13354   6.375   4.467   8.085  1.0666 -0.2121  0.1473
  125OSM   H16S13355   6.319   4.383   8.130  0.8554 -1.4513 -2.3039
  125OSM   H16T13356   6.320   4.564   8.081  0.5286 -0.5087  0.2853
  125OSM   C17S13357   6.499   4.479   8.179 -0.0371  0.2079 -0.5347
  125OSM   H17S13358   6.469   4.507   8.282  0.5021  0.6607 -0.4929
  125OSM   H17T13359   6.558   4.568   8.146 -0.7663  0.8866 -0.0410
  125OSM   C18S13360   6.585   4.351   8.189  0.3316 -0.1756 -0.1117
  125OSM   H18S13361   6.616   4.315   8.089 -2.3558 -1.0664 -0.6990
  125OSM   H18T13362   6.540   4.270   8.251  1.5562 -1.7353 -1.1711
  125OSM   H18U13363   6.680   4.367   8.246  1.2781 -1.3899 -1.2968
  125OSM    C1F13364   6.590   4.463   6.563  0.0946 -0.2126  0.2184
  125OSM     OF13365   6.571   4.587   6.556 -0.5369 -0.2035  0.0694
  125OSM    C2F13366   6.726   4.401   6.587  0.0009  0.3712 -1.0899
  125OSM    H2F13367   6.771   4.390   6.486  1.5342 -1.5571 -0.2530
  125OSM    H2G13368   6.701   4.303   6.633 -2.3243  2.0703  1.5952
  125OSM    C3F13369   6.804   4.488   6.690 -0.2552  0.1571 -0.2756
  125OSM    H3F13370   6.737   4.487   6.778 -2.1469  1.8315 -1.6201
  125OSM    H3G13371   6.815   4.592   6.652  1.9125 -0.4827 -1.5918
  125OSM    C4F13372   6.950   4.450   6.724  0.2184  0.8146  0.1571
  125OSM    H4F13373   7.001   4.449   6.625 -2.7303 -1.0594 -1.5106
  125OSM    H4G13374   6.951   4.346   6.763  1.7097  0.9477  0.5258
  125OSM    C5F13375   7.019   4.544   6.821  0.2765 -0.0597  0.3946
  125OSM    H5F13376   7.007   4.652   6.798 -2.7238  0.4240  3.3719
  125OSM    H5G13377   7.128   4.525   6.814  0.3309  0.3898 -0.0211
  125OSM    C6F13378   6.974   4.524   6.971 -0.0008  1.0513 -0.3069
  125OSM    H6F13379   7.018   4.427   7.005 -0.0184  0.8797 -0.7629
  125OSM    H6G13380   6.865   4.504   6.977 -0.0613  1.1527 -0.9828
  125OSM    C7F13381   7.005   4.635   7.069 -0.0548  1.1489  0.4195
  125OSM    H7F13382   6.963   4.733   7.037  1.8415  1.7548 -0.3783
  125OSM    H7G13383   7.112   4.661   7.054  0.1731  1.5619  2.4993
  125OSM    C8F13384   6.986   4.595   7.215  0.0114 -0.3239 -0.6895
  125OSM    H8F13385   7.045   4.504   7.239  1.9814  0.7242 -1.3709
  125OSM    H8G13386   6.884   4.553   7.226 -0.0135  0.2036  1.6619
  125OSM    C9F13387   6.994   4.715   7.303 -0.0117  0.2756  0.3020
  125OSM    H9F13388   6.933   4.799   7.266 -0.2864 -0.3480 -0.7237
  125OSM   C10F13389   7.067   4.723   7.416  0.5749  0.0327  0.2375
  125OSM   H10F13390   7.054   4.812   7.480 -1.5646 -0.1196  0.1013
  125OSM   C11F13391   7.150   4.616   7.476 -0.7704  0.7089 -0.3198
  125OSM   H11F13392   7.238   4.657   7.529  1.6842 -2.0983 -1.9675
  125OSM   H11G13393   7.201   4.552   7.401 -1.0337 -1.2219  1.0609
  125OSM   C12F13394   7.088   4.522   7.581  0.4400 -0.2315 -0.0657
  125OSM   H12F13395   7.154   4.436   7.606  0.1368  0.0900  2.0229
  125OSM   H12G13396   6.994   4.481   7.538 -0.4873  1.8575 -0.1361
  125OSM   C13F13397   7.044   4.586   7.710  0.1063 -0.9830 -0.2041
  125OSM   H13F13398   6.954   4.650   7.695 -0.7932 -1.9402  0.8561
  125OSM   H13G13399   7.117   4.651   7.763 -1.6528  0.3377  0.6996
  125OSM   C14F13400   6.984   4.497   7.820  0.5923  0.5827 -0.2355
  125OSM   H14F13401   7.063   4.426   7.852  3.1361  3.0467 -0.7293
  125OSM   H14G13402   6.897   4.442   7.778  2.0852 -1.5454 -0.7326
  125OSM   C15F13403   6.928   4.576   7.939 -0.3164 -0.0982  0.0973
  125OSM   H15F13404   6.822   4.543   7.954  0.5275 -2.7316  0.8992
  125OSM   H15G13405   6.935   4.681   7.905  2.5683 -0.9062 -2.2396
  125OSM   C16F13406   7.003   4.563   8.068  0.9415  0.3791  0.3001
  125OSM   H16F13407   7.112   4.564   8.049  0.9363  1.1728  0.2923
  125OSM   H16G13408   6.985   4.460   8.106  0.0287 -0.3652 -1.9680
  125OSM   C17F13409   6.976   4.663   8.177 -0.0479 -0.3054  0.7060
  125OSM   H17F13410   7.057   4.645   8.251  0.3562  1.1441  0.6393
  125OSM   H17G13411   6.882   4.630   8.227 -1.0504  0.9339 -0.3109
  125OSM   C18F13412   6.985   4.809   8.132 -0.3007 -0.7111 -0.2078
  125OSM   H18F13413   6.917   4.844   8.051 -0.4080  1.1997  0.6489
  125OSM   H18G13414   7.089   4.829   8.099 -0.2363  2.4975  1.4996
  125OSM   H18H13415   6.972   4.881   8.216  0.9480 -0.7287  0.0221
  126OSM      N13416   3.097   4.073   6.522  0.4855  0.2467  0.4022
  126OSM    C1513417   3.079   4.153   6.649 -0.0615 -0.2365 -0.5769
  126OSM   H15A13418   3.017   4.239   6.630  1.3972  1.1158  0.4786
  126OSM   H15B13419   3.181   4.181   6.674 -0.5371  0.8163  0.2507
  126OSM   H15C13420   3.038   4.108   6.739 -1.3878  0.8623 -0.5993
  126OSM    C1413421   2.957   4.053   6.468 -0.3201  0.0571 -0.0100
  126OSM   H14A13422   2.907   4.148   6.454 -0.6970  0.2056  2.0627
  126OSM   H14B13423   2.893   3.996   6.533 -4.4456  1.9912 -1.9654
  126OSM   H14C13424   2.969   4.002   6.373  0.0823 -0.6658  0.4195
  126OSM    C1313425   3.189   4.136   6.423 -0.8663 -0.7669  0.6963
  126OSM   H13A13426   3.176   4.243   6.412  1.2992 -0.5891 -0.6159
  126OSM   H13B13427   3.162   4.092   6.328  1.4777 -0.6242 -0.0749
  126OSM   H13C13428   3.292   4.114   6.447 -0.7594  0.5041  1.4909
  126OSM    C1213429   3.159   3.937   6.564 -0.3142  0.8775  0.6396
  126OSM   H12A13430   3.167   3.870   6.481  0.0323 -0.4361  1.7022
  126OSM   H12B13431   3.099   3.884   6.637 -0.2797 -0.4756 -0.2801
  126OSM    C1113432   3.304   3.942   6.628 -0.2226 -0.1409  0.2469
  126OSM   H11A13433   3.336   3.849   6.680  0.0276  0.5000  1.2669
  126OSM   H11B13434   3.311   4.017   6.710  1.4992  0.5709 -0.5047
  126OSM      P13435   3.453   3.887   6.422 -0.1296 -0.0208  0.2563
  126OSM    O1313436   3.337   3.820   6.363 -0.3619 -0.8908  0.0287
  126OSM    O1413437   3.538   3.967   6.329 -0.0917 -0.3178 -0.4994
  126OSM    O1113438   3.540   3.785   6.500 -0.4933  0.1597  0.1695
  126OSM    O1213439   3.403   3.985   6.528  0.3679  0.7469 -1.1004
  126OSM    C1S13440   3.646   3.811   6.593  0.1997 -0.5036 -0.4183
  126OSM    H1S13441   3.685   3.915   6.586 -0.2897 -0.3361 -0.6497
  126OSM    H1T13442   3.733   3.745   6.572  1.8969  1.6327 -0.4488
  126OSM     NF13443   3.713   3.792   6.839 -0.5894  0.3059 -0.1371
  126OSM    HNF13444   3.731   3.710   6.893 -1.9430  0.8894  1.2580
  126OSM    C2S13445   3.605   3.778   6.740 -0.1314 -0.0175 -0.4847
  126OSM    H2S13446   3.529   3.851   6.774  1.6797  1.9097 -0.3385
  126OSM    C3S13447   3.542   3.629   6.750  0.7309  0.3189 -0.0410
  126OSM    H3S13448   3.618   3.558   6.711  2.7671  2.9384 -1.0900
  126OSM     O313449   3.436   3.595   6.663  0.0810 -0.1902  0.0552
  126OSM    HO313450   3.432   3.662   6.595 -0.3836 -0.1341  0.1315
  126OSM    C4S13451   3.486   3.605   6.884 -0.0958  0.1257 -0.5973
  126OSM    H4S13452   3.388   3.652   6.901 -0.1156  0.1400 -0.7546
  126OSM    C5S13453   3.554   3.525   6.972 -0.4257 -0.3210 -0.3297
  126OSM    H5S13454   3.650   3.477   6.947  0.6202  0.7628  1.3874
  126OSM    C6S13455   3.498   3.488   7.108 -0.0018 -0.3540  0.2036
  126OSM    H6S13456   3.562   3.515   7.194 -1.4519 -2.4363  2.0605
  126OSM    H6T13457   3.482   3.379   7.096 -0.7429 -0.0987 -1.3496
  126OSM    C7S13458   3.361   3.543   7.136 -0.1189 -0.7011 -0.6716
  126OSM    H7S13459   3.286   3.511   7.061 -0.6993 -0.2183 -0.3101
  126OSM    H7T13460   3.369   3.654   7.130  1.2983 -0.8270 -1.4561
  126OSM    C8S13461   3.322   3.504   7.275  0.7827 -0.1263 -0.0038
  126OSM    H8S13462   3.362   3.402   7.288 -0.8547 -0.6684  1.0487
  126OSM    H8T13463   3.212   3.499   7.290  1.0264  0.0289  2.1586
  126OSM    C9S13464   3.376   3.600   7.378  0.2894 -0.0977  0.5261
  126OSM    H9S13465   3.309   3.688   7.384 -1.2296 -0.9580 -2.1727
  126OSM    H9T13466   3.480   3.627   7.351  0.7611  0.0533  2.3369
  126OSM   C10S13467   3.389   3.533   7.517 -0.1180  0.2243  0.0347
  126OSM   H10S13468   3.446   3.598   7.587  0.9847  0.0289 -0.6539
  126OSM   H10T13469   3.457   3.446   7.506 -0.4074  0.1140 -0.9965
  126OSM   C11S13470   3.263   3.483   7.588  0.5493 -0.0706 -0.5457
  126OSM   H11S13471   3.301   3.422   7.673 -0.5916  0.1366  0.1348
  126OSM   H11T13472   3.208   3.419   7.517  1.8487 -0.7036 -1.0146
  126OSM   C12S13473   3.174   3.593   7.649  0.4232  0.0658 -0.5368
  126OSM   H12S13474   3.125   3.645   7.564  0.7943  1.6991  0.2264
  126OSM   H12T13475   3.239   3.667   7.699  2.0987 -1.0950 -0.8925
  126OSM   C13S13476   3.062   3.536   7.741  0.3553 -0.8339  0.2304
  126OSM   H13S13477   2.997   3.475   7.674  0.1796  0.5667 -0.9152
  126OSM   H13T13478   2.993   3.618   7.769  1.6472  1.2000 -2.0983
  126OSM   C14S13479   3.096   3.456   7.871 -0.5823  0.3386 -0.0167
  126OSM   H14S13480   3.164   3.528   7.923  0.2200 -0.3916 -0.0319
  126OSM   H14T13481   3.161   3.369   7.849  2.8911  2.9769 -1.1109
  126OSM   C15S13482   2.975   3.418   7.954 -0.0953 -0.5311 -0.2163
  126OSM   H15S13483   2.903   3.368   7.885  0.1392 -0.2343 -0.6798
  126OSM   H15T13484   2.920   3.508   7.990 -0.5424 -0.5651 -0.7831
  126OSM   C16S13485   3.002   3.334   8.083 -0.5576 -0.1071 -0.7059
  126OSM   H16S13486   3.050   3.403   8.155 -0.2026 -0.0484 -0.9970
  126OSM   H16T13487   3.068   3.244   8.075 -2.8476 -2.1323  1.4300
  126OSM   C17S13488   2.871   3.287   8.149 -0.1004 -0.0874  0.6724
  126OSM   H17S13489   2.817   3.214   8.084 -1.6867  2.0025 -0.4752
  126OSM   H17T13490   2.809   3.379   8.153  0.9154  0.6805 -0.6132
  126OSM   C18S13491   2.891   3.228   8.285 -0.0555 -0.1994 -0.3424
  126OSM   H18S13492   2.798   3.191   8.333  0.7595  1.4144  2.7428
  126OSM   H18T13493   2.937   3.302   8.354  1.1300  1.2530 -2.5913
  126OSM   H18U13494   2.962   3.144   8.269 -1.1559 -0.9561 -1.4126
  126OSM    C1F13495   3.773   3.903   6.859  0.9676  0.6215 -0.1340
  126OSM     OF13496   3.718   4.009   6.825  0.4747  0.4061  0.5675
  126OSM    C2F13497   3.900   3.904   6.943  0.5491  0.0293  0.1693
  126OSM    H2F13498   3.930   4.007   6.972 -2.1615  0.2898  2.4139
  126OSM    H2G13499   3.988   3.865   6.887 -0.5930 -2.0976 -0.2219
  126OSM    C3F13500   3.886   3.814   7.066 -0.3466  1.0339  0.4167
  126OSM    H3F13501   3.981   3.805   7.124 -2.0879 -1.7623  3.1381
  126OSM    H3G13502   3.882   3.712   7.022  1.1830  0.6606  1.0901
  126OSM    C4F13503   3.780   3.857   7.175 -0.2997  0.0219  0.9269
  126OSM    H4F13504   3.678   3.856   7.133 -0.0245 -1.6827  0.2405
  126OSM    H4G13505   3.793   3.967   7.193  1.2587  0.2915 -1.4078
  126OSM    C5F13506   3.795   3.786   7.306 -0.8578 -0.4335  0.2981
  126OSM    H5F13507   3.904   3.796   7.325 -0.2800  1.3219 -3.0527
  126OSM    H5G13508   3.767   3.680   7.288 -2.7292  0.1962 -0.7463
  126OSM    C6F13509   3.697   3.832   7.416 -0.3728  0.1175 -0.0460
  126OSM    H6F13510   3.592   3.823   7.379 -0.5653 -3.1327  0.9776
  126OSM    H6G13511   3.708   3.939   7.445  1.4912  0.6076 -2.2635
  126OSM    C7F13512   3.720   3.744   7.539 -0.1487  0.2908 -0.3558
  126OSM    H7F13513   3.824   3.760   7.573 -0.2411 -1.8459  1.1429
  126OSM    H7G13514   3.703   3.635   7.526  0.5140 -0.0660  1.4843
  126OSM    C8F13515   3.630   3.791   7.655  0.2983 -0.0495 -0.1558
  126OSM    H8F13516   3.658   3.722   7.737  1.1710  0.3960 -0.0678
  126OSM    H8G13517   3.521   3.793   7.635  0.1817  2.5168  0.4224
  126OSM    C9F13518   3.666   3.925   7.719  0.2452  0.2664  0.0215
  126OSM    H9F13519   3.743   3.988   7.671  0.2757  1.4828  1.6051
  126OSM   C10F13520   3.638   3.966   7.846  0.4295 -0.2948  0.0502
  126OSM   H10F13521   3.671   4.062   7.886  0.5686 -1.4583  2.9697
  126OSM   C11F13522   3.544   3.901   7.944  0.2940 -0.0985 -0.4809
  126OSM   H11F13523   3.600   3.820   7.995 -1.6329 -1.9775 -1.2020
  126OSM   H11G13524   3.462   3.847   7.893 -0.0444 -0.9808  0.9629
  126OSM   C12F13525   3.482   3.995   8.048  0.6738 -0.6454  0.6498
  126OSM   H12F13526   3.436   4.084   7.998  3.9271  1.4907  1.1952
  126OSM   H12G13527   3.563   4.037   8.110 -0.4183  1.0050  1.0366
  126OSM   C13F13528   3.390   3.931   8.151  0.0471  0.3014 -0.4717
  126OSM   H13F13529   3.300   3.886   8.103  0.7658 -1.2895 -0.4129
  126OSM   H13G13530   3.345   4.011   8.214  0.5003  0.4705 -0.3633
  126OSM   C14F13531   3.447   3.821   8.245 -0.6137 -0.3672 -0.2453
  126OSM   H14F13532   3.461   3.729   8.184 -2.1570 -0.4165 -0.5613
  126OSM   H14G13533   3.369   3.815   8.323 -0.0310 -2.5836  0.2364
  126OSM   C15F13534   3.585   3.855   8.305 -1.0547 -0.1794 -0.1365
  126OSM   H15F13535   3.583   3.957   8.350 -0.7844 -0.0528 -0.4026
  126OSM   H15G13536   3.657   3.860   8.221 -1.9048  1.7556 -0.8142
  126OSM   C16F13537   3.633   3.757   8.413  0.4371  0.4601 -0.1108
  126OSM   H16F13538   3.559   3.772   8.496 -1.8642 -0.3487 -1.8962
  126OSM   H16G13539   3.729   3.795   8.455 -0.2070  0.7903  1.1330
  126OSM   C17F13540   3.642   3.617   8.372 -0.0386  0.3354  0.5590
  126OSM   H17F13541   3.715   3.603   8.288  0.1110 -0.7729  0.8599
  126OSM   H17G13542   3.541   3.592   8.334 -0.0408 -1.5716  1.7236
  126OSM   C18F13543   3.682   3.516   8.478 -0.1895 -0.7778 -0.1704
  126OSM   H18F13544   3.770   3.552   8.537  0.0586 -1.5128 -0.0841
  126OSM   H18G13545   3.715   3.428   8.420  3.1427 -0.3736  0.8727
  126OSM   H18H13546   3.602   3.487   8.549  0.3277  0.9349  1.1954
  127OSM      N13547   6.131   2.183   6.058 -0.0736 -0.1279  0.2764
  127OSM    C1513548   6.058   2.248   5.942 -0.1336 -0.8745 -0.1329
  127OSM   H15A13549   5.972   2.308   5.969  0.6715  0.3868 -0.2388
  127OSM   H15B13550   6.033   2.168   5.874  2.2713 -2.6529  0.9312
  127OSM   H15C13551   6.125   2.319   5.895 -2.0012 -0.4093 -2.2702
  127OSM    C1413552   6.033   2.084   6.113 -0.0784 -1.1685 -0.6601
  127OSM   H14A13553   6.004   2.005   6.047 -0.3738 -0.0034 -1.9723
  127OSM   H14B13554   5.942   2.139   6.134  1.2008  0.6260  0.4783
  127OSM   H14C13555   6.066   2.053   6.211 -3.2055  2.6193  1.9128
  127OSM    C1313556   6.250   2.118   6.003 -0.5139 -0.2139  0.5560
  127OSM   H13A13557   6.326   2.188   5.973 -2.8849  1.1427 -2.9523
  127OSM   H13B13558   6.228   2.072   5.908  1.0130  1.8350 -0.8759
  127OSM   H13C13559   6.298   2.053   6.075  0.2008 -0.0322  0.2544
  127OSM    C1213560   6.169   2.284   6.163  0.4763 -0.4496 -0.2027
  127OSM   H12A13561   6.235   2.238   6.235 -1.3140  0.0056  1.8672
  127OSM   H12B13562   6.086   2.320   6.223 -1.2956 -0.4652 -2.5052
  127OSM    C1113563   6.246   2.416   6.118 -0.5575  0.1284  0.4005
  127OSM   H11A13564   6.253   2.502   6.189  2.3377  2.5150 -2.4264
  127OSM   H11B13565   6.187   2.462   6.035  0.5320 -2.9470 -2.2779
  127OSM      P13566   6.493   2.373   6.177 -0.1592 -0.1755  0.0777
  127OSM    O1313567   6.586   2.267   6.136  0.0118  0.2063  0.0238
  127OSM    O1413568   6.549   2.507   6.194  0.3816 -0.1249 -0.3931
  127OSM    O1113569   6.415   2.341   6.310  0.2306 -0.0609  0.6384
  127OSM    O1213570   6.376   2.374   6.071 -0.1068 -0.0323 -0.0135
  127OSM    C1S13571   6.489   2.350   6.437 -0.1006  0.0449  0.6839
  127OSM    H1S13572   6.490   2.455   6.472  2.6638 -0.4225  2.3337
  127OSM    H1T13573   6.599   2.339   6.429 -0.1825 -0.3668 -0.0210
  127OSM     NF13574   6.521   2.283   6.657  0.4948  0.5511 -0.4889
  127OSM    HNF13575   6.610   2.240   6.673  0.2119  0.1226 -0.0571
  127OSM    C2S13576   6.444   2.250   6.544 -0.0243 -0.0153 -0.3512
  127OSM    H2S13577   6.335   2.259   6.566  0.2296  0.2772  0.8894
  127OSM    C3S13578   6.464   2.100   6.492  0.1000  0.8135  0.3320
  127OSM    H3S13579   6.570   2.088   6.461 -0.0540  1.2410 -0.3636
  127OSM     O313580   6.389   2.076   6.369  0.3896  0.1644 -0.1707
  127OSM    HO313581   6.392   2.161   6.325  2.0716 -0.4855 -1.4130
  127OSM    C4S13582   6.434   1.999   6.606 -0.1371  0.7596  0.2024
  127OSM    H4S13583   6.524   1.975   6.664  1.4437  0.7112 -2.1167
  127OSM    C5S13584   6.311   1.959   6.649  0.1191  0.1377  0.3489
  127OSM    H5S13585   6.221   2.003   6.605  0.8567  0.9127 -0.4439
  127OSM    C6S13586   6.273   1.863   6.759 -0.3562 -0.4093  0.4649
  127OSM    H6S13587   6.239   1.770   6.709 -2.2453  0.5313 -0.1210
  127OSM    H6T13588   6.183   1.903   6.810 -1.8232 -1.9730 -0.7835
  127OSM    C7S13589   6.378   1.841   6.872  0.3647 -0.4094 -0.0895
  127OSM    H7S13590   6.480   1.824   6.833  0.0167  0.9829 -1.7216
  127OSM    H7T13591   6.344   1.755   6.934 -0.1617  1.0537  1.7681
  127OSM    C8S13592   6.396   1.974   6.951 -0.2224  0.1609 -0.7043
  127OSM    H8S13593   6.295   2.007   6.983  0.2864 -0.2943  1.5562
  127OSM    H8T13594   6.438   2.051   6.883 -1.7034 -0.7949 -2.8127
  127OSM    C9S13595   6.481   1.967   7.078 -0.0291  0.0846  0.2882
  127OSM    H9S13596   6.583   1.927   7.060  0.5069  0.5984  1.9455
  127OSM    H9T13597   6.436   1.894   7.148  3.2695  0.2329  2.8100
  127OSM   C10S13598   6.480   2.104   7.153  0.4185  0.1372  0.0471
  127OSM   H10S13599   6.373   2.126   7.174  0.0948 -1.6311  0.4298
  127OSM   H10T13600   6.536   2.181   7.096  0.0892  0.6004  0.3420
  127OSM   C11S13601   6.544   2.093   7.291  0.1623 -0.0252 -0.4632
  127OSM   H11S13602   6.548   2.196   7.334 -0.9023 -0.7843  1.5860
  127OSM   H11T13603   6.648   2.059   7.276  0.7407  2.1152 -1.8312
  127OSM   C12S13604   6.466   1.991   7.385 -0.0768  0.5588 -0.0440
  127OSM   H12S13605   6.482   1.887   7.351 -2.1080  0.4171 -0.6390
  127OSM   H12T13606   6.360   2.023   7.383 -1.1497 -2.7509 -0.9783
  127OSM   C13S13607   6.511   2.003   7.536  0.1298  0.1094 -0.3292
  127OSM   H13S13608   6.516   2.111   7.559  0.9925  0.5408 -2.3419
  127OSM   H13T13609   6.614   1.962   7.526 -0.6508 -1.3587 -4.7205
  127OSM   C14S13610   6.430   1.913   7.632  0.6445  0.4626 -0.9256
  127OSM   H14S13611   6.365   1.844   7.575  0.6046  1.2026 -1.7976
  127OSM   H14T13612   6.360   1.979   7.687  1.4459 -0.6436  1.5720
  127OSM   C15S13613   6.510   1.842   7.749  0.1893 -0.2938  0.4257
  127OSM   H15S13614   6.575   1.762   7.708 -0.8959 -0.4958 -0.9924
  127OSM   H15T13615   6.434   1.796   7.817  2.0061 -1.4459  1.7607
  127OSM   C16S13616   6.591   1.934   7.835 -0.1827  0.4459 -0.5106
  127OSM   H16S13617   6.527   2.020   7.864 -0.0789 -0.1366  1.6380
  127OSM   H16T13618   6.688   1.951   7.784  0.4557  1.0569  0.8661
  127OSM   C17S13619   6.642   1.866   7.968 -0.1261 -0.1162 -0.3719
  127OSM   H17S13620   6.715   1.934   8.016  0.6268 -1.3645  0.3165
  127OSM   H17T13621   6.684   1.766   7.942 -1.3664 -1.2185  1.6630
  127OSM   C18S13622   6.532   1.839   8.082 -0.3225  0.7548 -0.3197
  127OSM   H18S13623   6.580   1.794   8.171  1.3334 -0.3491 -1.7015
  127OSM   H18T13624   6.466   1.754   8.054  0.1676 -0.5668  2.3051
  127OSM   H18U13625   6.472   1.929   8.107 -0.6770  0.0743  1.3961
  127OSM    C1F13626   6.487   2.374   6.737  0.1777  0.5665  0.5133
  127OSM     OF13627   6.399   2.453   6.707 -0.0498  0.2053  0.1562
  127OSM    C2F13628   6.560   2.383   6.866  0.3465  0.3713 -0.0531
  127OSM    H2F13629   6.669   2.396   6.852  0.7321 -0.7734  1.6454
  127OSM    H2G13630   6.550   2.284   6.915 -1.1120  0.8148  0.5805
  127OSM    C3F13631   6.498   2.500   6.949 -0.0563  0.5009 -0.3969
  127OSM    H3F13632   6.388   2.493   6.934 -0.4396 -1.0177  2.4151
  127OSM    H3G13633   6.525   2.605   6.927 -0.0571  0.6486  0.3005
  127OSM    C4F13634   6.537   2.479   7.096  0.5116 -0.5975 -0.0856
  127OSM    H4F13635   6.506   2.375   7.121  0.0968 -0.3298  0.5468
  127OSM    H4G13636   6.477   2.529   7.175  1.2931 -1.3805  1.0347
  127OSM    C5F13637   6.687   2.503   7.112 -0.6374 -0.0893 -1.0416
  127OSM    H5F13638   6.709   2.608   7.082 -0.9486  0.0944 -0.6373
  127OSM    H5G13639   6.745   2.444   7.038  0.8801  1.1683 -0.9172
  127OSM    C6F13640   6.748   2.478   7.259  0.3719 -0.2818  0.0223
  127OSM    H6F13641   6.855   2.460   7.236  0.1323 -0.3191 -1.1067
  127OSM    H6G13642   6.692   2.396   7.308  2.2280 -0.9991  1.0514
  127OSM    C7F13643   6.750   2.600   7.347  0.1068  0.0929 -0.5817
  127OSM    H7F13644   6.657   2.660   7.355 -0.7873 -0.9611 -2.5592
  127OSM    H7G13645   6.828   2.671   7.310  0.5420 -0.1201 -0.0892
  127OSM    C8F13646   6.801   2.569   7.492  0.2101 -0.1479 -0.1813
  127OSM    H8F13647   6.819   2.660   7.553  2.2676 -1.0340  0.6267
  127OSM    H8G13648   6.900   2.517   7.485  0.8008  0.7804  0.9449
  127OSM    C9F13649   6.714   2.477   7.575  0.0441  0.7503  0.4309
  127OSM    H9F13650   6.615   2.516   7.603  0.4314  1.9227  0.2227
  127OSM   C10F13651   6.746   2.350   7.616  0.1354 -0.2764  0.2985
  127OSM   H10F13652   6.663   2.287   7.650  2.0755 -1.6748  2.7706
  127OSM   C11F13653   6.875   2.275   7.592 -0.7526 -0.2000  0.4075
  127OSM   H11F13654   6.951   2.335   7.536 -1.5924 -0.5896 -1.2210
  127OSM   H11G13655   6.849   2.197   7.518 -0.4209  2.4415 -2.7577
  127OSM   C12F13656   6.942   2.225   7.729 -0.3409  0.7287  0.4256
  127OSM   H12F13657   7.008   2.142   7.697 -0.2980  0.4389  1.2469
  127OSM   H12G13658   6.869   2.179   7.799 -0.0813  0.8824  0.8020
  127OSM   C13F13659   7.022   2.336   7.805  0.3019  0.2472  0.3029
  127OSM   H13F13660   6.960   2.428   7.810 -0.1924 -0.0882  0.3969
  127OSM   H13G13661   7.113   2.348   7.742 -1.3998  0.3806 -2.2804
  127OSM   C14F13662   7.076   2.301   7.943  0.3104 -1.1492 -0.0059
  127OSM   H14F13663   7.141   2.381   7.985 -3.1407  1.8144  0.2258
  127OSM   H14G13664   7.129   2.204   7.936  0.8005 -0.8208 -1.1258
  127OSM   C15F13665   6.956   2.292   8.043  0.3226  0.5138  0.0328
  127OSM   H15F13666   6.904   2.194   8.033  1.2619  0.1360 -1.5720
  127OSM   H15G13667   6.882   2.371   8.020 -0.9276 -0.3620  0.9464
  127OSM   C16F13668   7.008   2.311   8.187 -0.1035 -0.0986  0.1249
  127OSM   H16F13669   7.000   2.415   8.226  0.0513  0.0620 -0.2635
  127OSM   H16G13670   7.117   2.292   8.180 -0.2005 -0.7980  0.4327
  127OSM   C17F13671   6.946   2.215   8.296 -0.4588 -0.3347  0.3976
  127OSM   H17F13672   6.963   2.108   8.271 -0.4063 -0.3881  0.6555
  127OSM   H17G13673   6.837   2.232   8.296 -0.4972 -0.4715 -0.9014
  127OSM   C18F13674   7.011   2.243   8.443  0.2082 -0.3463  0.3362
  127OSM   H18F13675   7.122   2.235   8.441  0.3165  0.9000  0.7559
  127OSM   H18G13676   6.964   2.178   8.520 -0.3681 -1.4928 -0.9391
  127OSM   H18H13677   6.980   2.347   8.469 -1.4109 -0.4714 -0.8948
  128OSM      N13678   2.341   5.476   5.973 -0.0665 -1.4980  0.3862
  128OSM    C1513679   2.295   5.334   5.952  0.5256 -0.0038 -0.6956
  128OSM   H15A13680   2.222   5.310   6.028  0.5541 -0.3135 -0.7662
  128OSM   H15B13681   2.376   5.268   5.981  0.3735  0.2436  0.2998
  128OSM   H15C13682   2.260   5.320   5.851 -2.0736  1.6486 -0.1003
  128OSM    C1413683   2.433   5.479   6.093  0.1687  0.5784 -0.5331
  128OSM   H14A13684   2.368   5.453   6.176 -0.2096  0.7713 -0.7650
  128OSM   H14B13685   2.483   5.573   6.111 -1.0248  1.2502 -0.6333
  128OSM   H14C13686   2.508   5.402   6.091  0.1056  0.5285 -0.9568
  128OSM    C1313687   2.426   5.510   5.857 -0.5770 -0.2127  0.0273
  128OSM   H13A13688   2.376   5.494   5.763  1.7137 -0.3360 -1.2265
  128OSM   H13B13689   2.517   5.452   5.856 -0.1975  0.3542  0.7489
  128OSM   H13C13690   2.461   5.612   5.862  1.0963 -0.6453 -1.7800
  128OSM    C1213691   2.226   5.575   5.984 -0.4982 -0.6884 -0.8919
  128OSM   H12A13692   2.169   5.589   5.894  0.8087  4.5480 -1.2577
  128OSM   H12B13693   2.270   5.673   5.993  0.4198 -1.2509  1.9013
  128OSM    C1113694   2.126   5.552   6.112  0.1468  0.3269  0.1776
  128OSM   H11A13695   2.056   5.636   6.096  2.4324  2.6704  1.5820
  128OSM   H11B13696   2.174   5.568   6.211  1.3581  1.4895 -0.5617
  128OSM      P13697   1.951   5.387   6.014  0.7724  0.0465  0.2193
  128OSM    O1313698   1.948   5.462   5.888  0.2572 -0.9135 -0.8645
  128OSM    O1413699   1.932   5.241   6.006  0.1441 -0.4393 -0.4140
  128OSM    O1113700   1.825   5.445   6.094 -0.1144 -0.0853 -0.2144
  128OSM    O1213701   2.070   5.421   6.106  0.1029 -0.0450 -0.7655
  128OSM    C1S13702   1.780   5.378   6.212  0.3719 -0.1820 -0.4794
  128OSM    H1S13703   1.803   5.269   6.216  0.9730 -0.0478 -0.1598
  128OSM    H1T13704   1.670   5.394   6.219  0.7699  2.7943  0.4909
  128OSM     NF13705   1.795   5.335   6.472  0.6163 -0.0141 -0.1663
  128OSM    HNF13706   1.727   5.366   6.538 -0.3827 -1.0149 -0.6807
  128OSM    C2S13707   1.837   5.429   6.357  0.6373 -0.0483  0.7216
  128OSM    H2S13708   1.947   5.425   6.347  0.8578  2.9170  1.0035
  128OSM    C3S13709   1.800   5.580   6.381 -0.2445 -0.4031 -0.8442
  128OSM    H3S13710   1.692   5.579   6.407  0.0682  0.2017  0.6002
  128OSM     O313711   1.823   5.666   6.263 -0.5327 -0.4615 -0.5604
  128OSM    HO313712   1.841   5.601   6.195 -2.3979 -1.8027  0.1466
  128OSM    C4S13713   1.881   5.626   6.502  0.3584  0.5671 -0.3209
  128OSM    H4S13714   1.989   5.629   6.482  1.1564 -4.6314  1.6811
  128OSM    C5S13715   1.827   5.668   6.618 -0.0810 -0.0059 -0.3099
  128OSM    H5S13716   1.719   5.652   6.632 -0.0184  0.6148  1.1010
  128OSM    C6S13717   1.895   5.729   6.738  0.8258 -0.1812  0.2930
  128OSM    H6S13718   1.874   5.837   6.753 -0.5598 -0.5684  1.2938
  128OSM    H6T13719   2.003   5.703   6.736  1.0181  0.6117 -0.4948
  128OSM    C7S13720   1.831   5.673   6.861 -0.8259 -0.0190 -0.1005
  128OSM    H7S13721   1.865   5.568   6.869  0.3638  0.4430  1.2784
  128OSM    H7T13722   1.722   5.693   6.863 -0.9528 -0.7360  1.0116
  128OSM    C8S13723   1.890   5.729   6.994  0.1934  0.0658  0.1389
  128OSM    H8S13724   1.871   5.839   7.000 -0.6396 -0.0140 -0.8765
  128OSM    H8T13725   1.997   5.701   7.000 -0.1163 -1.1442  0.1472
  128OSM    C9S13726   1.809   5.655   7.109  0.2281  0.0383 -0.3144
  128OSM    H9S13727   1.820   5.545   7.097  0.9480  0.0913 -0.1694
  128OSM    H9T13728   1.701   5.677   7.093  0.2605  0.3269 -0.1389
  128OSM   C10S13729   1.853   5.697   7.250  0.0555 -0.5305 -0.4815
  128OSM   H10S13730   1.859   5.808   7.246  2.0404 -0.6216 -1.0683
  128OSM   H10T13731   1.957   5.660   7.260 -0.4922 -2.3145 -0.8906
  128OSM   C11S13732   1.763   5.635   7.357 -0.0300 -0.1750 -0.2907
  128OSM   H11S13733   1.768   5.524   7.348  2.1888 -0.5334  3.2473
  128OSM   H11T13734   1.656   5.660   7.341 -0.1060 -1.0009 -1.2536
  128OSM   C12S13735   1.817   5.662   7.496 -0.2179 -0.4130  0.0599
  128OSM   H12S13736   1.832   5.772   7.497  2.1728 -0.6006 -2.3377
  128OSM   H12T13737   1.913   5.607   7.511 -0.1203 -0.9002 -1.9895
  128OSM   C13S13738   1.720   5.621   7.613  0.1057 -0.2081  0.4281
  128OSM   H13S13739   1.726   5.510   7.614 -2.0732 -0.3696  1.6595
  128OSM   H13T13740   1.614   5.649   7.594  0.0104 -1.0446 -0.4008
  128OSM   C14S13741   1.768   5.685   7.745  0.0318  0.2121  0.5384
  128OSM   H14S13742   1.786   5.792   7.720 -0.6947  0.3679  0.6687
  128OSM   H14T13743   1.864   5.633   7.769 -1.2631 -1.4440  2.4582
  128OSM   C15S13744   1.668   5.672   7.858 -0.0154  0.1858  0.0370
  128OSM   H15S13745   1.653   5.567   7.890 -0.9067  0.7166  1.4247
  128OSM   H15T13746   1.573   5.724   7.833 -0.7898 -0.8561  0.7393
  128OSM   C16S13747   1.726   5.731   7.985  0.3247  0.1621  0.2447
  128OSM   H16S13748   1.704   5.839   7.982  1.6088  0.4217 -1.2879
  128OSM   H16T13749   1.836   5.714   7.976  0.2466 -1.2089  1.4640
  128OSM   C17S13750   1.660   5.666   8.112  0.3543  0.0689  0.2246
  128OSM   H17S13751   1.667   5.558   8.091 -3.1361  0.0231 -1.3405
  128OSM   H17T13752   1.550   5.667   8.099  0.3554 -1.6912 -0.0963
  128OSM   C18S13753   1.699   5.724   8.248  1.0273 -0.0950 -0.1498
  128OSM   H18S13754   1.809   5.712   8.262  1.1983  1.2878 -0.1142
  128OSM   H18T13755   1.634   5.679   8.327  0.7213  2.9045  1.4752
  128OSM   H18U13756   1.685   5.834   8.245 -2.2006 -0.3786  1.0791
  128OSM    C1F13757   1.838   5.209   6.473  0.3322 -0.4668 -0.7751
  128OSM     OF13758   1.918   5.174   6.390  0.4416  0.3835  0.0488
  128OSM    C2F13759   1.776   5.130   6.588 -0.1450 -0.0285 -0.1571
  128OSM    H2F13760   1.665   5.131   6.576 -0.4599 -1.7644  1.9549
  128OSM    H2G13761   1.793   5.185   6.683  0.8357  1.5989 -1.2279
  128OSM    C3F13762   1.835   4.988   6.596  0.0303 -0.6210  0.2076
  128OSM    H3F13763   1.944   4.983   6.611  0.1015  2.7540  1.6889
  128OSM    H3G13764   1.815   4.942   6.497 -1.0653  1.1241 -0.4383
  128OSM    C4F13765   1.771   4.900   6.704 -0.6424 -0.4767  0.2315
  128OSM    H4F13766   1.793   4.792   6.688 -3.9825 -1.3617  0.8483
  128OSM    H4G13767   1.660   4.904   6.710 -0.5707  1.8766  1.2457
  128OSM    C5F13768   1.828   4.929   6.844 -0.6426  0.7293  0.1807
  128OSM    H5F13769   1.807   5.037   6.859  3.8449  1.7431  0.5389
  128OSM    H5G13770   1.938   4.926   6.855 -0.7012  0.6644  0.7795
  128OSM    C6F13771   1.763   4.843   6.952  0.8371 -0.8988  0.2058
  128OSM    H6F13772   1.787   4.736   6.932 -0.0359 -0.9060 -0.9070
  128OSM    H6G13773   1.653   4.853   6.950  0.8305 -0.8199  0.8343
  128OSM    C7F13774   1.799   4.896   7.089 -0.0749 -0.5723 -0.7238
  128OSM    H7F13775   1.776   5.003   7.110  1.1334 -0.6974  1.5753
  128OSM    H7G13776   1.910   4.889   7.093  0.0750  0.8927 -1.4034
  128OSM    C8F13777   1.737   4.797   7.190  0.0303  0.5770  0.2251
  128OSM    H8F13778   1.744   4.696   7.145  1.2725 -0.0066  1.6701
  128OSM    H8G13779   1.627   4.814   7.194  0.1713  1.9641 -1.0038
  128OSM    C9F13780   1.801   4.804   7.321 -0.3507  0.3209  0.0754
  128OSM    H9F13781   1.908   4.828   7.314  0.2799 -1.6386  1.7727
  128OSM   C10F13782   1.741   4.807   7.441 -0.1201 -0.1036 -0.2080
  128OSM   H10F13783   1.798   4.822   7.534  0.4485 -0.0824 -0.5546
  128OSM   C11F13784   1.589   4.798   7.461  0.9330  0.6795 -0.2231
  128OSM   H11F13785   1.534   4.783   7.366  1.5335  1.4244 -0.7041
  128OSM   H11G13786   1.562   4.886   7.524  1.4376  0.1729  0.7349
  128OSM   C12F13787   1.543   4.676   7.542  0.1369 -0.2026  0.4534
  128OSM   H12F13788   1.575   4.582   7.492  0.1718 -0.9756  1.8914
  128OSM   H12G13789   1.432   4.672   7.547 -0.0011  0.6411 -1.0183
  128OSM   C13F13790   1.596   4.660   7.684 -0.4628  0.2834  0.4407
  128OSM   H13F13791   1.707   4.666   7.687 -0.2031 -2.8443 -0.1122
  128OSM   H13G13792   1.574   4.555   7.712 -1.3121 -0.3865 -2.4559
  128OSM   C14F13793   1.541   4.765   7.784  0.4016 -0.4966 -0.1295
  128OSM   H14F13794   1.433   4.788   7.783  0.7401  1.2950  0.7275
  128OSM   H14G13795   1.596   4.860   7.772  2.0152 -0.9588  2.7842
  128OSM   C15F13796   1.560   4.736   7.934 -0.0420  0.4593 -0.0809
  128OSM   H15F13797   1.665   4.704   7.949  0.1731  0.0324 -2.1896
  128OSM   H15G13798   1.499   4.644   7.947  3.2632 -2.0089 -0.8438
  128OSM   C16F13799   1.530   4.841   8.037 -0.0964  0.2502  0.4781
  128OSM   H16F13800   1.430   4.885   8.016  0.4267  0.9403 -0.6242
  128OSM   H16G13801   1.611   4.914   8.016  1.4988 -1.3336  0.9322
  128OSM   C17F13802   1.532   4.794   8.178 -0.1400  0.0755 -0.4558
  128OSM   H17F13803   1.624   4.755   8.226 -2.1759 -1.1749  2.7961
  128OSM   H17G13804   1.465   4.708   8.200  0.7717 -0.3564  0.7535
  128OSM   C18F13805   1.492   4.914   8.261 -0.5027  0.2134  0.0823
  128OSM   H18F13806   1.490   4.875   8.365 -0.5957 -3.3091 -1.1330
  128OSM   H18G13807   1.389   4.949   8.239 -0.1596  0.2777 -1.5252
  128OSM   H18H13808   1.562   5.001   8.260 -0.2363  0.0045 -1.4665
  129OSM      N13809   5.428   1.716   6.221  0.1739  0.8831  1.2442
  129OSM    C1513810   5.437   1.587   6.145  0.1804  0.0076 -0.3422
  129OSM   H15A13811   5.452   1.512   6.221  0.8869  2.0157  1.6218
  129OSM   H15B13812   5.521   1.596   6.079  0.9966 -3.8965 -0.0592
  129OSM   H15C13813   5.352   1.571   6.080  0.0974  0.4833 -0.3569
  129OSM    C1413814   5.379   1.817   6.124  0.6857  0.2923 -0.1551
  129OSM   H14A13815   5.437   1.810   6.032  2.1588 -0.1677  0.7715
  129OSM   H14B13816   5.392   1.915   6.167  0.6424  0.5923 -0.8076
  129OSM   H14C13817   5.277   1.802   6.093  0.4380 -0.1348  0.8437
  129OSM    C1313818   5.314   1.703   6.320 -0.4440  0.1988 -0.3410
  129OSM   H13A13819   5.247   1.624   6.289 -0.1546  0.1768 -0.9245
  129OSM   H13B13820   5.266   1.798   6.336 -0.5629  0.1273 -0.2688
  129OSM   H13C13821   5.339   1.657   6.414 -0.2320 -2.8479 -1.7463
  129OSM    C1213822   5.553   1.752   6.297 -0.2898 -0.2680  0.1297
  129OSM   H12A13823   5.630   1.751   6.221 -1.5430  0.0968 -1.1958
  129OSM   H12B13824   5.582   1.675   6.367 -1.3455 -0.3801  0.4710
  129OSM    C1113825   5.558   1.888   6.375  0.2500  0.2025 -0.3761
  129OSM   H11A13826   5.653   1.892   6.433  1.3766  1.8237 -2.1810
  129OSM   H11B13827   5.470   1.892   6.442 -0.6722  1.3507 -1.5868
  129OSM      P13828   5.675   2.028   6.179  0.1709  0.6064  0.5368
  129OSM    O1313829   5.753   1.910   6.146  0.0410 -0.0643  0.0295
  129OSM    O1413830   5.621   2.111   6.068 -0.6802  0.3717  0.5937
  129OSM    O1113831   5.765   2.129   6.261 -0.0890  0.0814  0.4546
  129OSM    O1213832   5.555   1.994   6.281 -0.0402 -0.5857 -0.5823
  129OSM    C1S13833   5.715   2.236   6.333 -0.6873  0.1665 -0.2258
  129OSM    H1S13834   5.604   2.243   6.330 -0.7092  0.1774  0.3978
  129OSM    H1T13835   5.743   2.328   6.278 -1.0206  1.4773  1.6694
  129OSM     NF13836   5.746   2.377   6.534 -0.2891 -0.3160 -0.3568
  129OSM    HNF13837   5.823   2.439   6.545 -1.2965  0.5481  2.8609
  129OSM    C2S13838   5.774   2.245   6.477 -0.6969  0.2158  0.2537
  129OSM    H2S13839   5.718   2.174   6.542  0.3182 -1.5463 -0.7222
  129OSM    C3S13840   5.929   2.205   6.486  0.2569 -0.2651 -0.3794
  129OSM    H3S13841   5.974   2.279   6.417 -1.6322  1.4651  0.1339
  129OSM     O313842   5.954   2.077   6.441  0.1072 -0.6577  0.2177
  129OSM    HO313843   5.894   2.071   6.366 -0.1963 -2.0496  0.5445
  129OSM    C4S13844   5.977   2.212   6.623 -0.0123  0.2638 -0.0492
  129OSM    H4S13845   5.928   2.140   6.690  4.4384 -0.9112  2.3691
  129OSM    C5S13846   6.074   2.296   6.677  0.6650  0.5041 -0.0624
  129OSM    H5S13847   6.115   2.375   6.613  1.3098  0.4610  0.2897
  129OSM    C6S13848   6.113   2.296   6.820 -0.2096 -0.3482  0.2366
  129OSM    H6S13849   6.111   2.396   6.867 -2.4279 -0.9627  1.5896
  129OSM    H6T13850   6.219   2.268   6.839  0.0142  0.0934 -0.3124
  129OSM    C7S13851   6.032   2.205   6.914  0.4386  0.2198  0.0659
  129OSM    H7S13852   6.034   2.098   6.887  0.1130 -0.2808  1.8733
  129OSM    H7T13853   5.925   2.231   6.910  0.6864  1.2653 -0.0658
  129OSM    C8S13854   6.076   2.234   7.061 -0.2996 -0.1422 -0.8703
  129OSM    H8S13855   6.079   2.344   7.080 -0.8535  0.0076 -1.6234
  129OSM    H8T13856   6.178   2.189   7.067 -0.5913 -0.8159 -0.9186
  129OSM    C9S13857   5.968   2.178   7.154  0.2865 -0.2657  0.5410
  129OSM    H9S13858   5.992   2.070   7.170 -0.2271 -0.3728  0.6008
  129OSM    H9T13859   5.868   2.182   7.107  0.6426 -1.5314 -0.4012
  129OSM   C10S13860   5.967   2.256   7.292  0.1874  0.1989  0.4570
  129OSM   H10S13861   5.890   2.209   7.355 -0.5238 -1.4209 -1.5128
  129OSM   H10T13862   5.933   2.358   7.263 -1.9961 -0.8149 -0.8489
  129OSM   C11S13863   6.109   2.265   7.348 -0.1935 -0.0137  0.1668
  129OSM   H11S13864   6.158   2.346   7.290 -1.1532 -0.3047 -1.1058
  129OSM   H11T13865   6.162   2.172   7.316  2.3175 -0.3837  4.6354
  129OSM   C12S13866   6.122   2.289   7.493  0.2378  0.0953  0.3263
  129OSM   H12S13867   6.036   2.243   7.546 -2.2138  0.9071 -2.6517
  129OSM   H12T13868   6.116   2.399   7.512 -0.7399  0.0735  0.1761
  129OSM   C13S13869   6.249   2.237   7.563 -0.8738 -0.0996  1.0881
  129OSM   H13S13870   6.339   2.268   7.505 -0.1944 -2.6922  0.6481
  129OSM   H13T13871   6.247   2.127   7.549  1.5409  0.1728 -3.3435
  129OSM   C14S13872   6.257   2.288   7.703 -0.2356 -0.4987  0.2750
  129OSM   H14S13873   6.160   2.286   7.757 -0.1663 -3.6603  0.4291
  129OSM   H14T13874   6.305   2.388   7.710  1.8808 -1.5338  1.3271
  129OSM   C15S13875   6.358   2.209   7.796  0.6285 -0.0542  0.6590
  129OSM   H15S13876   6.449   2.192   7.735 -0.2886 -1.2360 -0.4204
  129OSM   H15T13877   6.305   2.113   7.810 -3.7709  1.4885 -2.8688
  129OSM   C16S13878   6.387   2.276   7.928 -0.0774 -0.2180 -0.3962
  129OSM   H16S13879   6.433   2.195   7.989 -0.2190  1.6027  2.3282
  129OSM   H16T13880   6.298   2.320   7.978 -0.0255 -0.2429 -0.2811
  129OSM   C17S13881   6.511   2.380   7.920  0.1617 -0.5260 -0.0810
  129OSM   H17S13882   6.473   2.468   7.864 -1.1021 -0.3089  1.0622
  129OSM   H17T13883   6.590   2.326   7.864  0.0594 -0.3021 -0.4480
  129OSM   C18S13884   6.549   2.428   8.051  0.8408 -0.1943  0.8119
  129OSM   H18S13885   6.641   2.486   8.028 -0.1855  0.3733 -2.3793
  129OSM   H18T13886   6.577   2.350   8.126  2.8810 -1.8317 -1.4803
  129OSM   H18U13887   6.475   2.498   8.095 -0.5518  1.2492 -3.3713
  129OSM    C1F13888   5.619   2.410   6.569 -0.8648 -0.2012 -0.3760
  129OSM     OF13889   5.532   2.326   6.556 -0.3420 -0.4991  0.2743
  129OSM    C2F13890   5.597   2.548   6.627  0.4098 -0.1216  0.3027
  129OSM    H2F13891   5.535   2.614   6.563  0.3773  1.4894  1.9154
  129OSM    H2G13892   5.692   2.600   6.650  0.1465  0.5059  0.0066
  129OSM    C3F13893   5.531   2.531   6.766  0.3040  0.1467  0.1222
  129OSM    H3F13894   5.448   2.457   6.764 -0.0515  0.5047  1.1894
  129OSM    H3G13895   5.484   2.628   6.793 -1.7153 -0.2386 -1.6967
  129OSM    C4F13896   5.628   2.488   6.871 -0.5596 -0.0019  0.1422
  129OSM    H4F13897   5.707   2.565   6.878 -1.8183  1.1701  2.1919
  129OSM    H4G13898   5.678   2.394   6.840  0.8210  1.1789 -1.3972
  129OSM    C5F13899   5.571   2.468   7.016 -0.5571 -0.2085 -0.0088
  129OSM    H5F13900   5.502   2.381   7.016 -0.4345 -0.3077  0.5516
  129OSM    H5G13901   5.513   2.556   7.053  0.4713  0.4480  0.0883
  129OSM    C6F13902   5.676   2.437   7.122  0.0925 -0.1645 -0.2932
  129OSM    H6F13903   5.761   2.509   7.119 -0.4419  0.4443 -2.3268
  129OSM    H6G13904   5.725   2.340   7.098 -1.0321 -0.5344 -1.2022
  129OSM    C7F13905   5.619   2.428   7.266  0.5838  0.2419 -0.3547
  129OSM    H7F13906   5.570   2.526   7.284 -1.8209 -0.8843 -0.3329
  129OSM    H7G13907   5.702   2.430   7.339 -0.2907  2.7774  0.6433
  129OSM    C8F13908   5.521   2.310   7.298  0.0015  0.2371 -0.1757
  129OSM    H8F13909   5.432   2.335   7.236 -1.7681  0.6925  2.3794
  129OSM    H8G13910   5.484   2.331   7.401  3.2329  0.6154  1.0332
  129OSM    C9F13911   5.582   2.173   7.282  0.0073 -0.3833  0.0271
  129OSM    H9F13912   5.571   2.129   7.182 -0.5142  0.8004 -0.4630
  129OSM   C10F13913   5.639   2.094   7.372 -0.2218  0.2612  0.1052
  129OSM   H10F13914   5.681   2.000   7.334  0.0383  0.0481  0.8892
  129OSM   C11F13915   5.662   2.125   7.516 -0.4925 -0.7545 -0.0771
  129OSM   H11F13916   5.629   2.230   7.530  0.6805 -0.4869  0.8324
  129OSM   H11G13917   5.766   2.132   7.555 -0.2743 -0.5111 -0.7058
  129OSM   C12F13918   5.587   2.034   7.616 -0.1626  0.3300 -0.3480
  129OSM   H12F13919   5.616   1.932   7.585 -1.3731  0.5089 -2.2128
  129OSM   H12G13920   5.477   2.041   7.601 -0.0883  2.0126 -0.3102
  129OSM   C13F13921   5.616   2.056   7.763  0.1506 -0.0781  0.6555
  129OSM   H13F13922   5.612   2.165   7.783  1.3916  0.5715 -2.1510
  129OSM   H13G13923   5.715   2.009   7.785 -0.1437 -2.0404 -1.8044
  129OSM   C14F13924   5.525   1.976   7.856 -0.4252  0.6363 -0.0159
  129OSM   H14F13925   5.423   2.020   7.845 -1.4164 -1.1797  1.2853
  129OSM   H14G13926   5.559   1.996   7.960 -0.7585 -1.4962  0.5643
  129OSM   C15F13927   5.533   1.819   7.835 -0.0453  0.4524 -0.3125
  129OSM   H15F13928   5.640   1.790   7.826  0.2529  1.4716 -0.1381
  129OSM   H15G13929   5.484   1.788   7.741 -0.3043  1.7653 -0.6267
  129OSM   C16F13930   5.458   1.747   7.946 -0.6674 -0.7560 -0.3448
  129OSM   H16F13931   5.358   1.794   7.937 -0.2106  0.5072  0.7755
  129OSM   H16G13932   5.501   1.766   8.047  0.3697  2.4351 -1.2587
  129OSM   C17F13933   5.456   1.600   7.922  0.3238  0.2453 -0.1503
  129OSM   H17F13934   5.406   1.543   8.003  1.7792 -0.1300  0.5292
  129OSM   H17G13935   5.557   1.553   7.920 -0.2364 -1.2022  2.3261
  129OSM   C18F13936   5.382   1.563   7.791  0.2821  0.4407  0.3193
  129OSM   H18F13937   5.356   1.455   7.792 -1.9066  0.8440 -1.7882
  129OSM   H18G13938   5.436   1.593   7.699  1.3084 -0.1783  0.7122
  129OSM   H18H13939   5.284   1.614   7.776 -0.6322 -1.6651 -1.3934
  130OSM      N13940   1.756   3.795   6.213 -0.0713 -0.1500  0.2712
  130OSM    C1513941   1.739   3.854   6.349  0.4907  0.2170 -0.0573
  130OSM   H15A13942   1.801   3.942   6.358 -0.1570  0.4204  3.5411
  130OSM   H15B13943   1.763   3.789   6.431  1.8856  1.2582  0.4018
  130OSM   H15C13944   1.639   3.891   6.362  0.7700  1.1158 -0.3990
  130OSM    C1413945   1.870   3.699   6.232  0.3925 -0.0063  0.2341
  130OSM   H14A13946   1.871   3.613   6.166 -0.1644 -0.5600  0.9201
  130OSM   H14B13947   1.855   3.656   6.330  0.5415  0.0973  0.3022
  130OSM   H14C13948   1.965   3.748   6.240  0.8460 -1.0227  1.4339
  130OSM    C1313949   1.628   3.713   6.175 -0.0320 -0.3409 -0.2274
  130OSM   H13A13950   1.551   3.789   6.168 -0.7699 -1.2027 -2.9980
  130OSM   H13B13951   1.615   3.636   6.249 -0.3532 -0.4434 -0.3847
  130OSM   H13C13952   1.632   3.681   6.072  5.4292 -0.3665 -0.2701
  130OSM    C1213953   1.781   3.906   6.114  0.1832 -1.0606  0.1965
  130OSM   H12A13954   1.690   3.961   6.095  0.4105 -0.2830  1.2749
  130OSM   H12B13955   1.801   3.856   6.020 -1.9440  1.1162 -1.5352
  130OSM    C1113956   1.891   4.014   6.134  0.2377  0.3043  0.2420
  130OSM   H11A13957   1.893   4.076   6.042  0.4034  0.9756  0.6905
  130OSM   H11B13958   1.983   3.951   6.146 -0.4886 -0.6961  0.7327
  130OSM      P13959   1.757   4.204   6.258 -0.4292 -0.3770  0.1802
  130OSM    O1313960   1.795   4.307   6.159 -0.1358 -0.5844  0.1033
  130OSM    O1413961   1.624   4.150   6.250 -0.2983  0.4169  0.2190
  130OSM    O1113962   1.786   4.265   6.398  0.0219  0.3237 -0.2016
  130OSM    O1213963   1.865   4.094   6.246  0.4636 -0.4744 -0.4003
  130OSM    C1S13964   1.909   4.315   6.438  0.0346 -1.1250 -0.5720
  130OSM    H1S13965   1.925   4.413   6.388 -0.0647 -1.6475 -1.6466
  130OSM    H1T13966   1.995   4.251   6.408  1.9584  0.2471  1.6090
  130OSM     NF13967   2.045   4.384   6.627  0.3521  0.1362 -0.1164
  130OSM    HNF13968   2.116   4.329   6.671  0.2399 -0.4787 -0.6908
  130OSM    C2S13969   1.923   4.322   6.586 -0.6226 -0.1902 -0.2143
  130OSM    H2S13970   1.832   4.365   6.633 -2.5739 -3.9348 -0.2146
  130OSM    C3S13971   1.927   4.173   6.641 -0.0207  0.7608 -0.2023
  130OSM    H3S13972   2.018   4.119   6.609  0.5485  2.3283 -1.3564
  130OSM     O313973   1.839   4.082   6.581  0.2627  0.1031  0.1659
  130OSM    HO313974   1.800   4.135   6.511 -1.0708  0.5008  1.1722
  130OSM    C4S13975   1.929   4.175   6.791  0.2244 -0.2958  0.1847
  130OSM    H4S13976   2.034   4.180   6.825  0.2580  0.4909 -0.0328
  130OSM    C5S13977   1.824   4.166   6.876  0.1936  0.2738  0.4519
  130OSM    H5S13978   1.727   4.162   6.822  0.8449  0.6978 -0.7993
  130OSM    C6S13979   1.831   4.159   7.023  0.7099 -0.2775 -0.4655
  130OSM    H6S13980   1.927   4.124   7.066 -0.6636 -0.5620  2.6077
  130OSM    H6T13981   1.756   4.083   7.054  0.7863 -0.4634 -0.7308
  130OSM    C7S13982   1.801   4.291   7.090 -0.0858 -0.0982 -0.3562
  130OSM    H7S13983   1.713   4.338   7.041  0.3214  1.4960  0.3639
  130OSM    H7T13984   1.882   4.367   7.094 -0.5501  0.3791  2.3789
  130OSM    C8S13985   1.769   4.277   7.241 -0.3822 -0.2372  0.2453
  130OSM    H8S13986   1.708   4.186   7.261 -0.2089  0.0979  2.7070
  130OSM    H8T13987   1.701   4.362   7.266 -1.8703 -2.1181  3.1914
  130OSM    C9S13988   1.891   4.294   7.335  0.2288  0.7763  0.1412
  130OSM    H9S13989   1.965   4.369   7.301  0.5412  0.4795  0.1602
  130OSM    H9T13990   1.946   4.197   7.340  0.0867  0.7574  3.0690
  130OSM   C10S13991   1.839   4.309   7.482 -0.7873  0.5399 -0.0226
  130OSM   H10S13992   1.783   4.214   7.497 -0.2551  0.3135  0.5732
  130OSM   H10T13993   1.769   4.392   7.506  0.6582  1.4675  1.1950
  130OSM   C11S13994   1.951   4.332   7.580 -0.2027 -0.0539 -0.3405
  130OSM   H11S13995   2.025   4.413   7.563 -0.8839  0.4593 -0.9390
  130OSM   H11T13996   1.995   4.231   7.590 -0.3859  0.1183  3.2828
  130OSM   C12S13997   1.890   4.357   7.720 -0.3463  0.4198  0.7525
  130OSM   H12S13998   1.804   4.291   7.742 -1.2444  1.8550  1.8125
  130OSM   H12T13999   1.836   4.453   7.704 -0.1388  0.4308  0.1153
  130OSM   C13S14000   1.986   4.337   7.844 -0.6582 -0.2962  0.2120
  130OSM   H13S14001   2.075   4.404   7.843  1.3104 -2.7870  0.3444
  130OSM   H13T14002   2.032   4.240   7.817  1.6729 -0.0977  3.0396
  130OSM   C14S14003   1.935   4.344   7.989 -0.2358  0.1184 -0.2622
  130OSM   H14S14004   1.872   4.254   8.005  2.2823 -1.8667 -0.8239
  130OSM   H14T14005   1.886   4.444   7.997  1.3215  0.8803  0.2182
  130OSM   C15S14006   2.051   4.326   8.082 -0.0219 -0.3336  0.0228
  130OSM   H15S14007   2.128   4.404   8.060 -0.5775  0.1034 -0.3913
  130OSM   H15T14008   2.091   4.228   8.051  1.1055 -0.0247  0.4102
  130OSM   C16S14009   2.014   4.338   8.229 -1.1528 -0.4765  0.2284
  130OSM   H16S14010   1.932   4.266   8.253  0.1949 -1.7161  1.2923
  130OSM   H16T14011   1.969   4.437   8.251 -1.6545 -0.9005  1.2219
  130OSM   C17S14012   2.131   4.295   8.320 -0.0109  0.1609 -0.9915
  130OSM   H17S14013   2.222   4.356   8.297 -0.3544  1.5736  1.0463
  130OSM   H17T14014   2.163   4.189   8.321 -0.6790 -0.0584  0.6098
  130OSM   C18S14015   2.088   4.326   8.466  0.1922 -0.0594  0.2192
  130OSM   H18S14016   1.982   4.294   8.477  0.0782 -1.2568 -3.2734
  130OSM   H18T14017   2.100   4.434   8.488 -2.1210  0.2762  0.1002
  130OSM   H18U14018   2.140   4.257   8.536  1.0740 -0.7985 -1.1389
  130OSM    C1F14019   2.063   4.512   6.621 -0.9045  0.1017 -0.3480
  130OSM     OF14020   2.000   4.580   6.548 -0.1583 -0.4648  0.3108
  130OSM    C2F14021   2.157   4.579   6.724 -0.1934  0.3922 -0.1448
  130OSM    H2F14022   2.262   4.540   6.719 -0.3176 -0.3500  2.0586
  130OSM    H2G14023   2.111   4.555   6.822  1.0570  0.1894  0.4149
  130OSM    C3F14024   2.141   4.737   6.733 -0.4567 -0.3639 -0.1471
  130OSM    H3F14025   2.160   4.772   6.837 -0.8210 -0.4054 -0.0671
  130OSM    H3G14026   2.041   4.766   6.694 -0.2776 -0.7714 -0.9344
  130OSM    C4F14027   2.242   4.808   6.638  0.3302 -0.6248  0.5687
  130OSM    H4F14028   2.215   4.765   6.539 -0.9387 -0.6914  0.9213
  130OSM    H4G14029   2.342   4.774   6.671 -0.1040 -1.6641  0.8320
  130OSM    C5F14030   2.233   4.958   6.633 -0.6705 -0.1553  0.1187
  130OSM    H5F14031   2.141   4.990   6.578 -0.8745 -2.2341 -0.8451
  130OSM    H5G14032   2.314   5.006   6.573 -1.3704  2.5716  1.1978
  130OSM    C6F14033   2.241   5.021   6.769 -0.1501  0.0965 -0.0536
  130OSM    H6F14034   2.171   4.985   6.847  1.0729  1.7370  1.9162
  130OSM    H6G14035   2.224   5.129   6.748 -0.4350 -0.2547 -1.8039
  130OSM    C7F14036   2.381   5.007   6.835 -0.1804  0.3488  0.1847
  130OSM    H7F14037   2.454   5.067   6.777  0.0986 -1.9550 -2.0386
  130OSM    H7G14038   2.429   4.908   6.820 -1.6997 -0.3897  0.0289
  130OSM    C8F14039   2.396   5.067   6.977 -0.3775  0.9673 -0.5568
  130OSM    H8F14040   2.318   5.144   6.995 -1.8575 -0.6763  0.4530
  130OSM    H8G14041   2.496   5.115   6.982  0.9414 -1.5630 -1.1846
  130OSM    C9F14042   2.369   4.961   7.083  0.1638  0.1928  0.2538
  130OSM    H9F14043   2.308   4.878   7.044 -1.5688  1.3313  0.4066
  130OSM   C10F14044   2.438   4.955   7.199 -1.3212 -0.2723 -0.5214
  130OSM   H10F14045   2.411   4.880   7.274 -0.1269 -0.6106 -0.4129
  130OSM   C11F14046   2.537   5.060   7.247  0.7949 -0.0711  0.5843
  130OSM   H11F14047   2.569   5.131   7.169 -1.3572  1.4007  0.9644
  130OSM   H11G14048   2.628   5.019   7.298  0.7813  0.6934  1.2495
  130OSM   C12F14049   2.468   5.158   7.349  0.0677  0.6016 -0.1715
  130OSM   H12F14050   2.372   5.200   7.310 -1.2294 -1.3389  0.7722
  130OSM   H12G14051   2.545   5.237   7.360  0.4101  0.3803 -0.8817
  130OSM   C13F14052   2.439   5.095   7.486  0.1653  0.3389 -0.6341
  130OSM   H13F14053   2.537   5.064   7.528 -0.5209 -0.5992  0.3258
  130OSM   H13G14054   2.369   5.009   7.479 -0.5231  0.5091  2.5507
  130OSM   C14F14055   2.374   5.198   7.583 -1.0391  0.2110  0.1470
  130OSM   H14F14056   2.270   5.213   7.546 -1.2140 -0.9794  0.1306
  130OSM   H14G14057   2.444   5.284   7.574 -0.4196 -0.2567  0.3956
  130OSM   C15F14058   2.364   5.146   7.719  0.3351  0.4797 -0.0078
  130OSM   H15F14059   2.467   5.125   7.755 -0.2901 -1.4486  0.8211
  130OSM   H15G14060   2.301   5.054   7.723  0.8744  0.1228  0.3635
  130OSM   C16F14061   2.299   5.240   7.830 -0.3077  0.6846  0.4655
  130OSM   H16F14062   2.194   5.268   7.804  0.5088  0.7803 -3.3283
  130OSM   H16G14063   2.346   5.340   7.822 -0.0487  0.4931 -0.5836
  130OSM   C17F14064   2.309   5.193   7.979 -0.0010 -0.4019  0.0760
  130OSM   H17F14065   2.416   5.179   8.005  1.0076 -1.4850 -4.0237
  130OSM   H17G14066   2.254   5.098   7.991 -3.0835  0.9631 -1.9883
  130OSM   C18F14067   2.250   5.294   8.076  0.2111  0.1324  0.8641
  130OSM   H18F14068   2.228   5.240   8.171 -3.6736 -0.0863  0.0192
  130OSM   H18G14069   2.151   5.334   8.045  0.2894  1.1403  1.8352
  130OSM   H18H14070   2.322   5.377   8.094  0.9937 -0.3551  0.0754
  131OSM      N14071   5.791   0.887   5.669  0.6224  0.2440 -0.5591
  131OSM    C1514072   5.899   0.817   5.594 -0.3559 -0.1305  0.2218
  131OSM   H15A14073   5.917   0.720   5.637 -0.0799 -0.1097  0.1512
  131OSM   H15B14074   5.986   0.880   5.599  0.8060 -1.6738  0.0066
  131OSM   H15C14075   5.874   0.814   5.489 -0.2229  2.0821  0.0711
  131OSM    C1414076   5.745   1.017   5.613  0.6158 -0.0285  0.2796
  131OSM   H14A14077   5.674   1.054   5.686  0.1931 -0.4556  0.0845
  131OSM   H14B14078   5.688   1.009   5.522 -1.1694  1.0834  1.2523
  131OSM   H14C14079   5.831   1.080   5.596 -0.1426  0.2930 -3.0360
  131OSM    C1314080   5.667   0.804   5.675  0.0497 -0.1002  0.2492
  131OSM   H13A14081   5.590   0.850   5.734  0.1440 -0.9214  1.0184
  131OSM   H13B14082   5.689   0.701   5.695 -2.0594 -0.3004  1.8371
  131OSM   H13C14083   5.625   0.815   5.576 -0.0645 -1.1480  0.1696
  131OSM    C1214084   5.842   0.914   5.812 -0.3995 -0.5551 -0.0950
  131OSM   H12A14085   5.768   0.976   5.862  0.1974  0.3175 -0.2674
  131OSM   H12B14086   5.936   0.967   5.805 -0.0013 -1.2009  0.3233
  131OSM    C1114087   5.859   0.789   5.910 -0.7351  0.6160 -1.0620
  131OSM   H11A14088   5.766   0.728   5.921  0.1831 -0.7909 -0.7777
  131OSM   H11B14089   5.876   0.815   6.016  0.8997 -1.1965 -0.8030
  131OSM      P14090   6.119   0.723   5.911  0.2787  0.2772 -0.0104
  131OSM    O1314091   6.197   0.631   5.828  0.1616  0.2967  0.1943
  131OSM    O1414092   6.147   0.868   5.909  0.9806 -0.1365  0.0948
  131OSM    O1114093   6.125   0.677   6.059 -0.0539  0.8192  0.2415
  131OSM    O1214094   5.968   0.697   5.875  0.5367 -0.2306  0.1036
  131OSM    C1S14095   6.145   0.541   6.109 -0.1488 -0.2869 -0.2540
  131OSM    H1S14096   6.252   0.512   6.095 -0.4545 -0.2365 -3.1540
  131OSM    H1T14097   6.076   0.473   6.055 -0.6325  1.0792 -1.4102
  131OSM     NF14098   6.166   0.399   6.320  0.6122 -0.1225  0.1601
  131OSM    HNF14099   6.109   0.319   6.337  0.5866  0.2253  1.8906
  131OSM    C2S14100   6.105   0.521   6.259 -0.2498 -0.0268  0.4054
  131OSM    H2S14101   6.150   0.608   6.310  3.1935 -1.1822 -0.3910
  131OSM    C3S14102   5.948   0.520   6.277 -0.1410 -0.2673  0.6402
  131OSM    H3S14103   5.910   0.430   6.225  2.2057 -0.8430 -0.1764
  131OSM     O314104   5.888   0.634   6.217 -0.6109 -0.5063  0.0645
  131OSM    HO314105   5.957   0.675   6.164  2.5147 -3.5709  1.3031
  131OSM    C4S14106   5.911   0.512   6.423  0.0761 -0.3749 -0.2646
  131OSM    H4S14107   5.868   0.415   6.452  1.3606 -0.9323 -0.1425
  131OSM    C5S14108   5.923   0.603   6.520 -0.3308 -0.2327  0.7677
  131OSM    H5S14109   5.967   0.702   6.502  0.6333 -1.0415 -1.7883
  131OSM    C6S14110   5.892   0.591   6.669 -0.2286 -0.0619 -0.4429
  131OSM    H6S14111   5.801   0.652   6.686 -0.7384 -0.7679 -0.5972
  131OSM    H6T14112   5.977   0.636   6.724 -0.6634 -0.2778  0.4163
  131OSM    C7S14113   5.855   0.458   6.739 -1.0327  0.2092  0.3766
  131OSM    H7S14114   5.943   0.390   6.729 -0.5362  0.7598  0.9532
  131OSM    H7T14115   5.765   0.417   6.688 -0.2330 -1.3892  0.1694
  131OSM    C8S14116   5.815   0.488   6.883  0.1122 -0.2337 -0.3616
  131OSM    H8S14117   5.711   0.527   6.886 -0.5824 -1.8197 -1.6604
  131OSM    H8T14118   5.891   0.557   6.924  0.7779 -0.7937 -0.6276
  131OSM    C9S14119   5.823   0.357   6.950 -0.2852  0.0861 -0.7170
  131OSM    H9S14120   5.914   0.298   6.924  1.4540  1.4665  1.8062
  131OSM    H9T14121   5.746   0.292   6.904 -0.4058  1.6470 -2.9169
  131OSM   C10S14122   5.820   0.367   7.098  0.0449  0.7636  0.0675
  131OSM   H10S14123   5.754   0.455   7.114  0.7087  1.6199 -1.5966
  131OSM   H10T14124   5.913   0.402   7.148  1.0454 -1.7887  0.1117
  131OSM   C11S14125   5.766   0.243   7.175  0.2746  0.0661 -0.4642
  131OSM   H11S14126   5.819   0.154   7.134  2.4989  0.3021  1.6981
  131OSM   H11T14127   5.659   0.230   7.145  1.1314 -0.3294 -3.6390
  131OSM   C12S14128   5.798   0.247   7.325  0.8419 -0.2586 -0.1046
  131OSM   H12S14129   5.907   0.255   7.341  1.1272  0.9714 -2.3473
  131OSM   H12T14130   5.760   0.147   7.354  2.5098 -0.8094  0.2869
  131OSM   C13S14131   5.715   0.355   7.402  0.1224 -0.0538  0.7822
  131OSM   H13S14132   5.607   0.332   7.387  0.2778  0.9429 -3.1825
  131OSM   H13T14133   5.732   0.459   7.366 -1.4885 -0.1686 -0.4617
  131OSM   C14S14134   5.757   0.365   7.550 -0.5040  0.3652 -0.1549
  131OSM   H14S14135   5.863   0.398   7.560 -0.6415  0.3871  1.5551
  131OSM   H14T14136   5.762   0.261   7.591  1.0038  0.0268 -1.1135
  131OSM   C15S14137   5.667   0.459   7.624  0.0717 -0.0432 -0.0616
  131OSM   H15S14138   5.569   0.408   7.617 -0.4655  1.1173 -1.5892
  131OSM   H15T14139   5.664   0.554   7.567  1.3907 -1.4241 -2.6043
  131OSM   C16S14140   5.708   0.501   7.773  0.0988 -0.2634  0.3494
  131OSM   H16S14141   5.641   0.580   7.814 -0.7165 -0.3029 -0.8519
  131OSM   H16T14142   5.809   0.546   7.767 -0.8526  1.9192 -0.2663
  131OSM   C17S14143   5.697   0.384   7.872 -0.2603  0.4475  0.1147
  131OSM   H17S14144   5.762   0.309   7.822  0.2909  0.2449  1.1121
  131OSM   H17T14145   5.590   0.353   7.872 -0.5350  1.3470 -1.1312
  131OSM   C18S14146   5.750   0.404   8.013  0.1006  0.3136 -0.4181
  131OSM   H18S14147   5.704   0.497   8.053  1.8873  2.8669 -3.8099
  131OSM   H18T14148   5.860   0.400   8.031  0.5768  2.8103 -2.1912
  131OSM   H18U14149   5.708   0.320   8.072  1.9758  0.4134  1.1613
  131OSM    C1F14150   6.297   0.396   6.351 -0.5240  0.4662 -0.3124
  131OSM     OF14151   6.380   0.473   6.312  0.7496 -0.6215 -0.3416
  131OSM    C2F14152   6.344   0.282   6.441  0.3725  0.4713 -0.0794
  131OSM    H2F14153   6.414   0.210   6.394 -0.4695 -0.7994  0.5596
  131OSM    H2G14154   6.255   0.231   6.483  0.3465  0.0541 -0.6301
  131OSM    C3F14155   6.437   0.322   6.559  0.4232  0.2927 -0.1365
  131OSM    H3F14156   6.382   0.396   6.622 -0.4291 -0.3288 -0.1434
  131OSM    H3G14157   6.528   0.381   6.535  0.5675 -0.3650 -1.2494
  131OSM    C4F14158   6.465   0.200   6.650  0.3816 -0.0086 -0.1649
  131OSM    H4F14159   6.527   0.122   6.602 -0.5627 -2.3845  2.2573
  131OSM    H4G14160   6.368   0.150   6.672 -0.0237  1.0438  0.5463
  131OSM    C5F14161   6.546   0.244   6.786 -0.5181 -0.7381  0.4849
  131OSM    H5F14162   6.501   0.339   6.822  0.3903  0.6571 -1.8461
  131OSM    H5G14163   6.649   0.263   6.750 -0.7294 -2.7094 -1.3874
  131OSM    C6F14164   6.531   0.140   6.897 -0.2889  1.5026 -0.2229
  131OSM    H6F14165   6.555   0.042   6.849  1.6651  1.2119  1.2140
  131OSM    H6G14166   6.425   0.144   6.927 -0.6771  0.1421 -1.2975
  131OSM    C7F14167   6.635   0.154   7.008 -0.3314 -0.2708  0.6797
  131OSM    H7F14168   6.628   0.259   7.043  1.5892  0.1417 -0.0208
  131OSM    H7G14169   6.729   0.141   6.949 -1.8205 -1.5082 -1.5804
  131OSM    C8F14170   6.638   0.045   7.115 -0.6973  0.3408 -0.0398
  131OSM    H8F14171   6.730   0.053   7.176  0.3473 -0.5680 -1.4158
  131OSM    H8G14172   6.643  -0.050   7.058  1.5854 -0.4922  1.4052
  131OSM    C9F14173   6.520   0.051   7.207  0.0423  0.6165  0.1120
  131OSM    H9F14174   6.424   0.067   7.156  0.2802  1.3394 -0.1217
  131OSM   C10F14175   6.514   0.045   7.344 -0.4228 -0.1447 -0.1919
  131OSM   H10F14176   6.414   0.070   7.383 -0.4606  0.8654 -0.9006
  131OSM   C11F14177   6.629   0.036   7.445 -0.0736 -0.9291  0.2117
  131OSM   H11F14178   6.699   0.115   7.410 -0.5112 -0.1297  1.1162
  131OSM   H11G14179   6.685  -0.058   7.424  0.3674 -0.1453 -2.5723
  131OSM   C12F14180   6.594   0.073   7.593 -0.0146  0.2901  0.6446
  131OSM   H12F14181   6.502   0.018   7.623  1.0609 -1.2144  1.3032
  131OSM   H12G14182   6.570   0.181   7.591  0.6960  0.4848 -2.8404
  131OSM   C13F14183   6.712   0.031   7.684 -0.3520  0.3792  0.4050
  131OSM   H13F14184   6.794   0.106   7.671 -1.2968  1.4907  0.6455
  131OSM   H13G14185   6.748  -0.069   7.651 -1.1226 -1.0846  3.6382
  131OSM   C14F14186   6.673   0.031   7.833 -0.5493  0.3259 -0.2221
  131OSM   H14F14187   6.749  -0.027   7.889  0.9293  2.0465 -0.3672
  131OSM   H14G14188   6.573  -0.017   7.839 -0.7422  0.5883 -1.1676
  131OSM   C15F14189   6.663   0.173   7.886  0.0898  0.6806  0.0593
  131OSM   H15F14190   6.606   0.243   7.820 -1.0991  1.6585  2.0293
  131OSM   H15G14191   6.766   0.209   7.906  0.8108 -0.6387 -1.1001
  131OSM   C16F14192   6.603   0.186   8.034 -0.3630  0.6275  0.2651
  131OSM   H16F14193   6.677   0.127   8.093 -1.6219 -0.9707  0.3297
  131OSM   H16G14194   6.510   0.126   8.039  0.5752 -0.8616  0.5804
  131OSM   C17F14195   6.586   0.333   8.076 -0.2621  0.3070 -0.4745
  131OSM   H17F14196   6.544   0.340   8.179 -1.1251 -1.0435 -0.7126
  131OSM   H17G14197   6.502   0.373   8.015 -2.6777 -2.2295  0.9364
  131OSM   C18F14198   6.713   0.421   8.068  0.0981  0.4370  0.4405
  131OSM   H18F14199   6.732   0.452   7.963  1.5041 -0.2191  0.4766
  131OSM   H18G14200   6.804   0.381   8.118  1.7141 -0.5440 -2.9502
  131OSM   H18H14201   6.695   0.516   8.123 -0.9280 -0.8357  2.4229
  132OSM      N14202   0.851   2.475   5.979  0.1920 -0.9085  0.2654
  132OSM    C1514203   0.733   2.472   6.064  0.2503  0.3520 -0.0890
  132OSM   H15A14204   0.765   2.490   6.166 -3.0617 -0.2928  1.1844
  132OSM   H15B14205   0.683   2.377   6.057  0.2174  0.4378 -1.1060
  132OSM   H15C14206   0.656   2.541   6.035  0.3165  0.6826  0.5036
  132OSM    C1414207   0.832   2.402   5.853  0.7389 -0.4577  0.0406
  132OSM   H14A14208   0.841   2.294   5.850  1.1056 -0.4205 -0.5451
  132OSM   H14B14209   0.907   2.431   5.781  1.3744 -0.2250  0.7816
  132OSM   H14C14210   0.740   2.418   5.800  1.5891 -0.3878 -1.4877
  132OSM    C1314211   0.877   2.621   5.942 -0.1430 -0.2718 -0.0906
  132OSM   H13A14212   0.891   2.687   6.027 -0.8602 -1.2325  0.8062
  132OSM   H13B14213   0.791   2.665   5.893 -0.6093 -0.1630  0.7973
  132OSM   H13C14214   0.957   2.615   5.870  0.1198 -1.1315  0.2649
  132OSM    C1214215   0.969   2.420   6.056  0.2719  0.2415 -0.0433
  132OSM   H12A14216   1.060   2.426   5.997  0.4356  1.0728  0.2785
  132OSM   H12B14217   0.954   2.313   6.061 -0.7996  0.4157  0.6694
  132OSM    C1114218   1.012   2.495   6.186  0.0718  0.4797  0.1685
  132OSM   H11A14219   1.103   2.445   6.226  2.8992  3.3657 -2.0233
  132OSM   H11B14220   0.922   2.481   6.248 -1.9244 -0.0827 -2.6466
  132OSM      P14221   1.045   2.743   6.275  0.0540 -0.1591  0.1125
  132OSM    O1314222   1.176   2.814   6.269  0.1022 -0.0823 -0.1425
  132OSM    O1414223   0.927   2.822   6.241  0.0672  0.4166  0.3822
  132OSM    O1114224   1.031   2.669   6.412  0.2332 -0.1258 -0.3220
  132OSM    O1214225   1.045   2.631   6.168 -0.1836 -0.4103  0.1712
  132OSM    C1S14226   0.905   2.644   6.474  0.0066 -0.9558 -0.0455
  132OSM    H1S14227   0.871   2.543   6.443 -0.0770  0.1974 -4.3398
  132OSM    H1T14228   0.825   2.714   6.442  0.1795 -0.9858 -0.5407
  132OSM     NF14229   0.817   2.596   6.700  0.1848  1.0846  0.2666
  132OSM    HNF14230   0.746   2.654   6.740 -0.4718 -0.5195  1.5621
  132OSM    C2S14231   0.927   2.664   6.626  0.4394 -0.7942 -0.4374
  132OSM    H2S14232   1.028   2.621   6.645  0.9489  0.5116 -0.0315
  132OSM    C3S14233   0.950   2.819   6.656  0.3334  1.3088 -0.5410
  132OSM    H3S14234   0.860   2.878   6.626 -2.0138 -1.0079  1.5000
  132OSM     O314235   1.060   2.881   6.595 -0.4562 -0.2608 -0.5820
  132OSM    HO314236   1.112   2.809   6.560 -0.6702 -0.7638  0.1216
  132OSM    C4S14237   0.958   2.838   6.804 -0.1580  0.1660  0.3890
  132OSM    H4S14238   0.862   2.842   6.857 -0.1341  1.2699  0.3723
  132OSM    C5S14239   1.069   2.822   6.880 -0.0381 -0.1009 -0.6444
  132OSM    H5S14240   1.169   2.797   6.843  1.0252  0.2784  1.7966
  132OSM    C6S14241   1.068   2.821   7.032 -0.6438 -0.5512 -0.5870
  132OSM    H6S14242   1.150   2.883   7.073 -0.9101 -0.6084  0.0406
  132OSM    H6T14243   1.094   2.716   7.057 -0.5220 -0.5498 -0.7066
  132OSM    C7S14244   0.936   2.870   7.104 -0.5591 -0.1575  0.6229
  132OSM    H7S14245   0.855   2.803   7.068  0.1762  0.1262 -1.7309
  132OSM    H7T14246   0.914   2.974   7.068  0.7636  0.0627  0.4212
  132OSM    C8S14247   0.950   2.876   7.250  0.1762  0.2888  0.3755
  132OSM    H8S14248   1.041   2.939   7.262 -1.4601  2.5328  1.7030
  132OSM    H8T14249   0.982   2.778   7.293  0.3489  0.0054 -0.3785
  132OSM    C9S14250   0.829   2.933   7.321 -0.1181 -0.6854 -0.0913
  132OSM    H9S14251   0.746   2.860   7.311 -0.9242 -0.3772  3.1374
  132OSM    H9T14252   0.793   3.012   7.252 -0.8389 -2.4494 -1.8181
  132OSM   C10S14253   0.857   2.968   7.469 -0.2854 -0.1815 -0.0564
  132OSM   H10S14254   0.771   3.029   7.505  0.3773  1.1884 -0.7130
  132OSM   H10T14255   0.943   3.039   7.466 -0.1599 -0.3487 -0.5548
  132OSM   C11S14256   0.901   2.849   7.556  0.5485 -0.8005 -0.1432
  132OSM   H11S14257   1.007   2.830   7.529  0.6288  1.0457 -1.2768
  132OSM   H11T14258   0.836   2.763   7.531 -0.4476  0.2912 -1.4605
  132OSM   C12S14259   0.893   2.879   7.705 -0.6961  0.7700  0.2886
  132OSM   H12S14260   0.907   2.786   7.764  1.3866 -0.2857 -1.6947
  132OSM   H12T14261   0.792   2.916   7.732 -0.1116  1.4797  1.6097
  132OSM   C13S14262   0.998   2.979   7.760  0.3187  0.1299  0.3721
  132OSM   H13S14263   0.973   3.081   7.724  2.4972  0.2760 -0.8998
  132OSM   H13T14264   1.101   2.959   7.723 -0.1583 -0.9451 -0.4432
  132OSM   C14S14265   0.999   2.986   7.910 -0.0876  0.1911  0.0456
  132OSM   H14S14266   0.896   2.975   7.952  0.3518 -1.5108  0.8031
  132OSM   H14T14267   1.035   3.087   7.938 -1.1760  0.4176  0.7134
  132OSM   C15S14268   1.070   2.874   7.987  0.3740 -0.7687  0.3589
  132OSM   H15S14269   1.174   2.862   7.949  0.1159  1.5137 -1.3177
  132OSM   H15T14270   1.019   2.778   7.963 -0.9851  0.5769 -2.6906
  132OSM   C16S14271   1.080   2.894   8.139 -0.7648  0.4884  1.0951
  132OSM   H16S14272   0.977   2.918   8.173 -0.7140  0.3833  1.3275
  132OSM   H16T14273   1.147   2.981   8.153 -0.3159  0.2744  0.3332
  132OSM   C17S14274   1.144   2.778   8.227  0.2874 -0.4413  0.3282
  132OSM   H17S14275   1.245   2.782   8.179 -0.3316  1.8997 -0.9369
  132OSM   H17T14276   1.088   2.683   8.212  1.0064 -1.0650  1.4501
  132OSM   C18S14277   1.151   2.811   8.372  0.4784  0.0342  0.0433
  132OSM   H18S14278   1.197   2.910   8.390 -3.0024  1.7505  0.1890
  132OSM   H18T14279   1.203   2.727   8.423 -0.5227 -2.6693 -2.9849
  132OSM   H18U14280   1.047   2.823   8.409  0.0418 -0.3307 -0.9945
  132OSM    C1F14281   0.820   2.465   6.706 -0.3716 -0.1117 -0.0016
  132OSM     OF14282   0.926   2.396   6.694  0.2156 -0.1534 -0.1545
  132OSM    C2F14283   0.688   2.403   6.732  0.0980 -0.1527 -0.6385
  132OSM    H2F14284   0.671   2.332   6.648  0.4223 -1.2369  0.1906
  132OSM    H2G14285   0.603   2.474   6.723 -0.6620 -0.7136  1.5917
  132OSM    C3F14286   0.693   2.317   6.861  0.4194 -1.1220 -0.9611
  132OSM    H3F14287   0.768   2.236   6.852  1.1028 -0.9328  1.8801
  132OSM    H3G14288   0.595   2.265   6.861 -1.4506  2.0869 -0.4342
  132OSM    C4F14289   0.686   2.388   7.007 -0.4700  0.4717  0.3373
  132OSM    H4F14290   0.592   2.447   6.999 -0.3613  0.5682 -0.2262
  132OSM    H4G14291   0.767   2.463   7.023  0.0183  0.4679 -1.8874
  132OSM    C5F14292   0.667   2.290   7.120  0.0169 -0.0016  0.0356
  132OSM    H5F14293   0.747   2.213   7.118  0.3378  0.3306 -2.0550
  132OSM    H5G14294   0.576   2.233   7.092 -0.6112  1.5849 -1.2852
  132OSM    C6F14295   0.634   2.346   7.262  0.6206 -0.0473 -0.6816
  132OSM    H6F14296   0.528   2.372   7.280  1.7814  3.3763  2.5285
  132OSM    H6G14297   0.690   2.439   7.287 -1.2278  1.9460 -3.3504
  132OSM    C7F14298   0.675   2.238   7.365  0.0893 -0.1342 -0.5309
  132OSM    H7F14299   0.777   2.200   7.342  0.3034  0.0674  0.0599
  132OSM    H7G14300   0.597   2.159   7.361 -1.0306  0.5211  3.5445
  132OSM    C8F14301   0.693   2.293   7.506  0.1840  0.2885 -0.1138
  132OSM    H8F14302   0.601   2.351   7.526  1.7763  2.3812  1.7097
  132OSM    H8G14303   0.785   2.356   7.505 -0.3263  1.0359 -0.9550
  132OSM    C9F14304   0.715   2.188   7.616  0.2570  0.2084  0.0395
  132OSM    H9F14305   0.715   2.082   7.587  1.0618 -0.5130  2.3841
  132OSM   C10F14306   0.746   2.218   7.740  0.6051  0.1036  0.3629
  132OSM   H10F14307   0.747   2.133   7.811  1.9414  0.4667  0.8161
  132OSM   C11F14308   0.762   2.357   7.801  0.3508 -0.0075 -1.1983
  132OSM   H11F14309   0.740   2.440   7.730 -2.6138 -0.1873 -0.6250
  132OSM   H11G14310   0.860   2.377   7.849 -0.4127 -0.7466  0.7308
  132OSM   C12F14311   0.647   2.371   7.910  0.2351  0.4198 -0.0095
  132OSM   H12F14312   0.654   2.287   7.983 -1.2945  0.9788  0.8437
  132OSM   H12G14313   0.546   2.377   7.863  0.0845  0.9545  0.3664
  132OSM   C13F14314   0.675   2.496   7.991  0.0025  0.5173  0.0478
  132OSM   H13F14315   0.705   2.575   7.918 -0.9593  0.2171 -0.6875
  132OSM   H13G14316   0.757   2.473   8.062 -2.1112  3.2305  3.6984
  132OSM   C14F14317   0.560   2.553   8.076  0.6354  0.5025  0.1968
  132OSM   H14F14318   0.525   2.478   8.151  1.8628  1.8202  2.1836
  132OSM   H14G14319   0.474   2.588   8.015  1.3826  1.6574 -0.2297
  132OSM   C15F14320   0.613   2.669   8.156  0.7722 -0.2102 -0.1040
  132OSM   H15F14321   0.634   2.749   8.082  2.2304 -0.9942 -0.5827
  132OSM   H15G14322   0.710   2.638   8.201  0.6561  0.9455  1.0179
  132OSM   C16F14323   0.510   2.723   8.262  0.0065  0.1943 -0.4021
  132OSM   H16F14324   0.472   2.633   8.315 -1.6450  0.6546 -0.7633
  132OSM   H16G14325   0.421   2.773   8.219 -0.4303  0.8376  1.1813
  132OSM   C17F14326   0.571   2.841   8.344 -0.3455 -0.0369  0.5515
  132OSM   H17F14327   0.586   2.920   8.267 -2.1416  0.7333  0.9363
  132OSM   H17G14328   0.669   2.811   8.387  0.0011  0.4008  0.0683
  132OSM   C18F14329   0.480   2.884   8.454 -0.6002 -0.4088 -0.1172
  132OSM   H18F14330   0.521   2.978   8.497 -0.4158 -0.5609  0.0397
  132OSM   H18G14331   0.496   2.824   8.546  0.1934  3.7884  2.7866
  132OSM   H18H14332   0.374   2.887   8.420 -0.2024  0.0825 -1.3594
  133OSM      N14333   0.446   1.742   6.185  0.3269  0.4814  0.2702
  133OSM    C1514334   0.475   1.877   6.135 -0.0904 -0.5317 -0.3523
  133OSM   H15A14335   0.569   1.915   6.170 -1.8176  0.6420  3.6091
  133OSM   H15B14336   0.401   1.950   6.163  1.2243  1.2379 -1.3206
  133OSM   H15C14337   0.474   1.892   6.028  2.3316  0.9057 -0.2373
  133OSM    C1414338   0.454   1.736   6.333  0.2224 -0.2486  0.8331
  133OSM   H14A14339   0.442   1.634   6.366  1.8997 -0.5946  0.4502
  133OSM   H14B14340   0.383   1.800   6.384  1.1868 -0.4680  2.5088
  133OSM   H14C14341   0.555   1.770   6.350  0.4020  0.1959 -0.9272
  133OSM    C1314342   0.309   1.711   6.147  0.2339  0.5727 -0.1739
  133OSM   H13A14343   0.287   1.721   6.042 -1.2186 -2.9674 -0.3334
  133OSM   H13B14344   0.240   1.775   6.200  0.0369  1.1195 -1.0559
  133OSM   H13C14345   0.278   1.610   6.169 -0.0287  0.9368  1.1915
  133OSM    C1214346   0.548   1.644   6.119  0.5249 -0.4353 -0.2823
  133OSM   H12A14347   0.530   1.643   6.013 -1.3076 -3.5712 -0.0568
  133OSM   H12B14348   0.523   1.544   6.150  2.0383 -1.2022 -1.4549
  133OSM    C1114349   0.694   1.671   6.148 -0.3430 -0.8664 -0.3368
  133OSM   H11A14350   0.695   1.697   6.256  2.3668  2.8136 -1.0548
  133OSM   H11B14351   0.744   1.754   6.094 -1.3071 -0.4507 -0.6107
  133OSM      P14352   0.901   1.520   6.204  0.0269 -0.1396  0.1040
  133OSM    O1314353   0.974   1.448   6.102 -0.0748  0.2347 -0.1930
  133OSM    O1414354   0.966   1.645   6.256  0.2597 -0.5423 -0.4890
  133OSM    O1114355   0.856   1.435   6.326 -0.5722  0.4351 -0.1906
  133OSM    O1214356   0.762   1.552   6.126 -0.7981  0.0563 -0.5406
  133OSM    C1S14357   0.727   1.368   6.325  0.1753  0.1040  0.1507
  133OSM    H1S14358   0.725   1.293   6.243  2.3996  0.3751 -0.2264
  133OSM    H1T14359   0.641   1.437   6.315  1.2568  1.2841 -1.4989
  133OSM     NF14360   0.592   1.205   6.457  0.1574  0.1446  0.1295
  133OSM    HNF14361   0.505   1.248   6.480 -1.0258 -1.8531 -0.3543
  133OSM    C2S14362   0.714   1.283   6.456 -0.2466 -0.5183 -0.3003
  133OSM    H2S14363   0.809   1.227   6.460  0.5185  0.7873  2.6189
  133OSM    C3S14364   0.701   1.393   6.565  0.1499 -0.6184 -0.0559
  133OSM    H3S14365   0.614   1.458   6.542 -2.1848 -3.2831  0.7245
  133OSM     O314366   0.818   1.471   6.576  0.3750 -0.5532  0.4569
  133OSM    HO314367   0.860   1.458   6.491  2.3585  0.5135  1.2244
  133OSM    C4S14368   0.690   1.325   6.695  0.2754  0.0403  0.2633
  133OSM    H4S14369   0.779   1.266   6.722 -0.5301  0.2356  3.7628
  133OSM    C5S14370   0.579   1.322   6.773  0.5028  0.5268  0.4648
  133OSM    H5S14371   0.486   1.370   6.738 -0.1346  0.1735  1.6250
  133OSM    C6S14372   0.553   1.244   6.891 -0.0834  0.3179 -0.3485
  133OSM    H6S14373   0.657   1.220   6.923  0.9343  2.1496 -2.0462
  133OSM    H6T14374   0.506   1.149   6.858  1.7511 -0.1119 -1.8730
  133OSM    C7S14375   0.484   1.322   7.010 -0.1466 -0.2147  0.5885
  133OSM    H7S14376   0.389   1.365   6.971 -0.5451 -0.7204  0.9905
  133OSM    H7T14377   0.536   1.412   7.049  1.2494 -1.1720  1.0451
  133OSM    C8S14378   0.453   1.227   7.131 -0.1485 -0.2519 -0.2919
  133OSM    H8S14379   0.545   1.201   7.187 -0.1418 -2.8477 -1.3413
  133OSM    H8T14380   0.413   1.133   7.088 -1.5605  0.5877 -0.8771
  133OSM    C9S14381   0.351   1.282   7.229  0.3537 -0.1051  0.3050
  133OSM    H9S14382   0.254   1.269   7.177 -0.0855 -0.2736  1.1434
  133OSM    H9T14383   0.363   1.387   7.261 -2.4586 -0.1425  1.8375
  133OSM   C10S14384   0.338   1.188   7.346  0.4514  0.3348 -0.7994
  133OSM   H10S14385   0.437   1.142   7.365  0.1057 -0.9996 -2.1053
  133OSM   H10T14386   0.265   1.105   7.340  0.0940  0.6102 -0.4106
  133OSM   C11S14387   0.297   1.263   7.473  0.5621 -0.0194 -0.0303
  133OSM   H11S14388   0.187   1.280   7.472  0.6342  1.1559  2.7486
  133OSM   H11T14389   0.350   1.361   7.472  0.0141  0.2836  0.4158
  133OSM   C12S14390   0.335   1.200   7.612 -0.2207  0.2444  0.2306
  133OSM   H12S14391   0.444   1.182   7.603 -0.8698 -3.9251 -1.3610
  133OSM   H12T14392   0.289   1.099   7.611  3.1334 -1.4019  0.7273
  133OSM   C13S14393   0.300   1.283   7.742  0.0907  0.3733 -0.1386
  133OSM   H13S14394   0.344   1.384   7.724  0.3122  0.0628 -1.4618
  133OSM   H13T14395   0.345   1.228   7.828  0.1824  2.2994  1.1312
  133OSM   C14S14396   0.149   1.298   7.752  0.4084 -0.8308 -0.0372
  133OSM   H14S14397   0.101   1.199   7.739  1.6107 -1.3660 -0.5922
  133OSM   H14T14398   0.106   1.369   7.678  1.1715 -1.2589 -0.9132
  133OSM   C15S14399   0.105   1.331   7.899 -0.1511 -0.8098  0.3904
  133OSM   H15S14400   0.148   1.432   7.917  1.8579 -1.6377  0.4772
  133OSM   H15T14401   0.156   1.273   7.979  0.8705  0.7232  0.8964
  133OSM   C16S14402  -0.043   1.337   7.937 -0.0897  0.9945  0.6433
  133OSM   H16S14403  -0.049   1.371   8.043 -0.0646 -1.1689  1.3696
  133OSM   H16T14404  -0.079   1.233   7.924  0.6501  0.7784  0.2907
  133OSM   C17S14405  -0.141   1.428   7.863 -0.6890 -0.4042  0.4007
  133OSM   H17S14406  -0.175   1.386   7.766  3.5268  1.1470 -1.9781
  133OSM   H17T14407  -0.099   1.528   7.839  0.6935 -0.7948  1.0600
  133OSM   C18S14408  -0.270   1.456   7.940 -0.5992  0.0167  0.2074
  133OSM   H18S14409  -0.326   1.545   7.904  0.0937 -0.6266 -2.7104
  133OSM   H18T14410  -0.255   1.469   8.050  0.3444  0.8026 -0.0039
  133OSM   H18U14411  -0.333   1.371   7.905  1.0225 -1.6713  1.1862
  133OSM    C1F14412   0.602   1.073   6.419 -0.0466 -0.0981 -1.0200
  133OSM     OF14413   0.711   1.016   6.402 -0.3381 -0.5685  0.2612
  133OSM    C2F14414   0.473   0.995   6.406 -0.0364 -0.6699  0.3734
  133OSM    H2F14415   0.488   0.953   6.304  1.2060 -0.8327  0.5967
  133OSM    H2G14416   0.385   1.062   6.397 -0.9101 -1.6195  1.5762
  133OSM    C3F14417   0.466   0.879   6.507  0.0162 -0.1523  0.3481
  133OSM    H3F14418   0.559   0.824   6.482  1.2017  0.8925  2.2192
  133OSM    H3G14419   0.372   0.825   6.481 -0.5207  0.1212  1.6423
  133OSM    C4F14420   0.450   0.935   6.648 -0.3695  0.8188 -0.6760
  133OSM    H4F14421   0.368   1.009   6.640 -2.3312 -1.0277  0.9714
  133OSM    H4G14422   0.537   0.981   6.700 -0.1451 -0.8969  0.5561
  133OSM    C5F14423   0.418   0.811   6.739  0.1849  0.2857 -0.0152
  133OSM    H5F14424   0.471   0.726   6.692  1.7264  1.0077  0.3402
  133OSM    H5G14425   0.309   0.788   6.742 -0.3614  2.6800  0.8820
  133OSM    C6F14426   0.467   0.826   6.885  1.1242  0.5619  0.0977
  133OSM    H6F14427   0.418   0.910   6.938  1.8325  1.4015 -0.5497
  133OSM    H6G14428   0.575   0.843   6.865  1.2132  1.4098  1.1875
  133OSM    C7F14429   0.444   0.701   6.972 -0.3991  0.6870 -0.1898
  133OSM    H7F14430   0.487   0.617   6.913  2.0211  1.8555 -0.2024
  133OSM    H7G14431   0.334   0.687   6.978 -0.5512  1.3563 -1.1592
  133OSM    C8F14432   0.503   0.698   7.114  0.6742  0.8494 -0.2968
  133OSM    H8F14433   0.612   0.677   7.104  0.6838  0.3689  0.7065
  133OSM    H8G14434   0.449   0.620   7.171 -0.5153  1.3847 -0.6606
  133OSM    C9F14435   0.475   0.831   7.177 -0.3057 -0.1859  0.6061
  133OSM    H9F14436   0.536   0.919   7.151 -2.2173  1.1683  0.4763
  133OSM   C10F14437   0.388   0.841   7.280  0.3438 -0.0657  0.3089
  133OSM   H10F14438   0.369   0.941   7.324 -0.6269  0.4565 -1.2409
  133OSM   C11F14439   0.297   0.728   7.333 -0.1791 -0.2144  0.7744
  133OSM   H11F14440   0.343   0.627   7.330 -1.6274 -0.9072 -1.4973
  133OSM   H11G14441   0.216   0.721   7.257  1.1415 -0.5845 -0.6583
  133OSM   C12F14442   0.230   0.762   7.460  0.7500  0.1657 -0.7028
  133OSM   H12F14443   0.159   0.683   7.494  1.0188  0.6080  0.9949
  133OSM   H12G14444   0.172   0.856   7.451  0.4432 -0.1504 -2.3733
  133OSM   C13F14445   0.324   0.774   7.583  0.0754 -0.2918  0.2694
  133OSM   H13F14446   0.398   0.851   7.552 -2.3417  1.7494 -0.8142
  133OSM   H13G14447   0.372   0.679   7.612 -1.3288 -2.0707 -2.7487
  133OSM   C14F14448   0.243   0.833   7.698  0.7402 -0.1185 -0.5943
  133OSM   H14F14449   0.147   0.779   7.716  0.5259  0.0182 -1.2718
  133OSM   H14G14450   0.220   0.937   7.666 -0.2188  0.6529  2.2958
  133OSM   C15F14451   0.322   0.839   7.827  0.0493  0.4043 -0.0527
  133OSM   H15F14452   0.405   0.912   7.823 -1.6266  2.3702 -0.6735
  133OSM   H15G14453   0.358   0.738   7.857 -1.5567  0.0859  0.9455
  133OSM   C16F14454   0.232   0.896   7.945  0.1750  0.0568 -0.1264
  133OSM   H16F14455   0.147   0.825   7.942  1.8452 -2.0104 -1.1803
  133OSM   H16G14456   0.193   0.998   7.922  0.8504 -0.1622 -2.4998
  133OSM   C17F14457   0.310   0.891   8.071 -0.1919  0.5152  0.1808
  133OSM   H17F14458   0.418   0.918   8.069 -0.2794  0.8313 -0.3406
  133OSM   H17G14459   0.318   0.782   8.094 -3.4349  0.0318 -0.5102
  133OSM   C18F14460   0.235   0.958   8.187  0.2694  0.0906 -0.6506
  133OSM   H18F14461   0.265   0.926   8.289 -0.9540 -1.7758 -0.8305
  133OSM   H18G14462   0.128   0.935   8.171  0.1887  0.5434 -0.7982
  133OSM   H18H14463   0.245   1.069   8.188  2.2343 -0.0397  1.1851
  134OSM      N14464   2.186   4.596   6.190  0.1248  0.0089 -0.0539
  134OSM    C1514465   2.177   4.694   6.073 -0.3986 -0.4187  0.3174
  134OSM   H15A14466   2.194   4.789   6.121  1.8837 -1.2535  1.3036
  134OSM   H15B14467   2.086   4.686   6.015  0.8253  2.6348 -2.3565
  134OSM   H15C14468   2.258   4.684   6.002 -1.4027 -0.2383 -0.8880
  134OSM    C1414469   2.104   4.653   6.298 -0.4909 -0.1191  0.1888
  134OSM   H14A14470   2.006   4.690   6.270 -0.6131  0.2766  1.1110
  134OSM   H14B14471   2.152   4.736   6.347 -0.0457 -0.4247  0.2742
  134OSM   H14C14472   2.090   4.575   6.372  1.7248 -1.7670 -1.0234
  134OSM    C1314473   2.132   4.462   6.149 -0.0051  1.2822  0.0307
  134OSM   H13A14474   2.169   4.410   6.062  0.4654  2.3495 -0.4181
  134OSM   H13B14475   2.027   4.467   6.124 -0.0481 -0.8401 -0.4402
  134OSM   H13C14476   2.131   4.403   6.240 -1.6584 -0.6549 -1.1661
  134OSM    C1214477   2.326   4.586   6.243  0.2746  0.0604 -0.4007
  134OSM   H12A14478   2.353   4.686   6.274 -2.6600  0.8000  0.0878
  134OSM   H12B14479   2.394   4.554   6.166  0.7044 -0.9222  0.3704
  134OSM    C1114480   2.352   4.505   6.372 -0.0975 -0.3077 -0.2167
  134OSM   H11A14481   2.308   4.404   6.364 -2.3070  0.3568  2.2519
  134OSM   H11B14482   2.303   4.555   6.458 -1.9434  0.6345 -1.7335
  134OSM      P14483   2.575   4.382   6.342  0.3060 -0.0485  0.1516
  134OSM    O1314484   2.557   4.379   6.196 -0.0008  0.1104 -0.0313
  134OSM    O1414485   2.714   4.400   6.389 -0.1311 -0.1123  0.2204
  134OSM    O1114486   2.512   4.253   6.405  0.2921  0.6106  0.0166
  134OSM    O1214487   2.494   4.500   6.398  0.0888  0.3173  0.3635
  134OSM    C1S14488   2.473   4.247   6.544 -0.1304  0.2323 -1.5905
  134OSM    H1S14489   2.389   4.313   6.573 -0.7227 -0.9754 -0.4738
  134OSM    H1T14490   2.555   4.276   6.614 -0.9914  1.0932 -0.9018
  134OSM     NF14491   2.439   4.122   6.753  0.6380  0.1921 -0.2544
  134OSM    HNF14492   2.520   4.087   6.799  0.4524 -0.8601 -0.6894
  134OSM    C2S14493   2.432   4.106   6.614 -0.0361  0.6524  0.4423
  134OSM    H2S14494   2.327   4.083   6.588  0.6848 -1.4161 -0.9100
  134OSM    C3S14495   2.511   3.991   6.555  0.3970  0.1679 -0.6910
  134OSM    H3S14496   2.617   4.001   6.588 -0.1746 -0.0171  1.3297
  134OSM     O314497   2.515   3.990   6.411 -0.0377 -0.9344  0.1669
  134OSM    HO314498   2.500   4.083   6.391  0.7708 -0.6058  1.0316
  134OSM    C4S14499   2.463   3.855   6.601 -0.6113 -0.2078 -0.0954
  134OSM    H4S14500   2.357   3.832   6.587 -0.3102 -1.8142  0.1263
  134OSM    C5S14501   2.555   3.752   6.622 -0.3652  0.1117 -0.1239
  134OSM    H5S14502   2.661   3.778   6.608 -0.8195  1.7606 -0.8258
  134OSM    C6S14503   2.518   3.608   6.652 -0.3483  0.0176  0.1221
  134OSM    H6S14504   2.562   3.544   6.573 -0.5091 -0.4180  0.3759
  134OSM    H6T14505   2.408   3.592   6.639 -0.9642  1.1090  3.1751
  134OSM    C7S14506   2.550   3.552   6.795  0.3255 -0.3460  0.3359
  134OSM    H7S14507   2.658   3.553   6.818  0.5427  0.8863 -0.6289
  134OSM    H7T14508   2.527   3.444   6.801  1.9311 -0.8065 -0.9534
  134OSM    C8S14509   2.463   3.611   6.908 -0.2287  0.2599  0.5565
  134OSM    H8S14510   2.452   3.545   6.996  0.4739 -0.1902  0.3202
  134OSM    H8T14511   2.361   3.647   6.882 -0.0715  1.2027  1.2038
  134OSM    C9S14512   2.533   3.734   6.971  0.0512 -0.3619  0.4189
  134OSM    H9S14513   2.505   3.824   6.911 -1.6335 -1.2879 -0.2345
  134OSM    H9T14514   2.643   3.720   6.978  0.0345 -1.5614 -1.1379
  134OSM   C10S14515   2.491   3.758   7.112  0.3123  0.2187  0.1941
  134OSM   H10S14516   2.539   3.687   7.183 -0.3926 -0.3212  0.1399
  134OSM   H10T14517   2.381   3.745   7.118  0.3155 -0.9575 -1.6310
  134OSM   C11S14518   2.521   3.901   7.166  0.5097  0.3311 -0.1595
  134OSM   H11S14519   2.466   3.966   7.095 -0.3534 -3.1306 -2.9512
  134OSM   H11T14520   2.630   3.925   7.166  1.0299 -1.5650  2.2012
  134OSM   C12S14521   2.479   3.925   7.315  0.2554 -0.9638 -0.1662
  134OSM   H12S14522   2.558   3.887   7.383  0.9681  0.2049 -0.3194
  134OSM   H12T14523   2.385   3.865   7.318 -3.3012  3.9305  0.0442
  134OSM   C13S14524   2.420   4.059   7.349 -0.6534  0.0797  0.0660
  134OSM   H13S14525   2.316   4.068   7.313 -1.1956 -1.2351  1.2419
  134OSM   H13T14526   2.481   4.133   7.292  0.8337 -1.3423 -0.2750
  134OSM   C14S14527   2.433   4.098   7.497  0.3367  0.4227  0.0116
  134OSM   H14S14528   2.535   4.081   7.537  0.3236 -0.9823 -0.4947
  134OSM   H14T14529   2.371   4.023   7.552 -0.7214 -1.1095 -3.0229
  134OSM   C15S14530   2.383   4.242   7.520 -0.4958  0.0525 -0.2373
  134OSM   H15S14531   2.280   4.256   7.481 -1.0010 -0.9604  0.6812
  134OSM   H15T14532   2.458   4.300   7.461 -0.2846 -0.8843 -0.9062
  134OSM   C16S14533   2.372   4.279   7.671 -0.7000 -0.2123  0.1694
  134OSM   H16S14534   2.462   4.257   7.731 -1.2732 -0.6432  0.8979
  134OSM   H16T14535   2.296   4.219   7.725  0.3228 -0.4429  1.3841
  134OSM   C17S14536   2.336   4.428   7.685  0.5488 -0.3084 -0.5628
  134OSM   H17S14537   2.230   4.442   7.656 -0.2568  0.1553  2.3417
  134OSM   H17T14538   2.399   4.485   7.613 -0.6543  0.3347 -1.1400
  134OSM   C18S14539   2.367   4.482   7.823 -0.0314  0.3633 -0.6327
  134OSM   H18S14540   2.323   4.584   7.834 -0.0388  0.3342 -0.3989
  134OSM   H18T14541   2.475   4.496   7.846  0.2612 -2.3706 -0.0287
  134OSM   H18U14542   2.329   4.419   7.906  0.1094  1.7670  0.5339
  134OSM    C1F14543   2.347   4.194   6.811 -0.1894 -0.3420  0.3250
  134OSM     OF14544   2.247   4.235   6.751 -0.4528 -0.4009  0.2863
  134OSM    C2F14545   2.372   4.220   6.955  0.4233 -0.8078  0.1994
  134OSM    H2F14546   2.481   4.222   6.973  0.4370  0.9559  0.1286
  134OSM    H2G14547   2.317   4.156   7.028  0.2039 -0.7679  0.0732
  134OSM    C3F14548   2.315   4.352   6.983 -0.3967 -0.5604 -0.3262
  134OSM    H3F14549   2.204   4.358   6.973 -0.3261  1.9034 -0.3460
  134OSM    H3G14550   2.359   4.431   6.918 -0.7399 -0.3280 -0.2816
  134OSM    C4F14551   2.338   4.388   7.129 -0.1141 -0.1714 -0.0194
  134OSM    H4F14552   2.444   4.413   7.148 -0.7992  2.3845  0.8514
  134OSM    H4G14553   2.300   4.311   7.200 -0.6457  0.8860  0.8809
  134OSM    C5F14554   2.256   4.518   7.166  0.0087 -0.3070 -0.1026
  134OSM    H5F14555   2.149   4.504   7.141 -0.3680  0.7625  0.8129
  134OSM    H5G14556   2.288   4.606   7.106 -1.6694  0.0943 -0.4560
  134OSM    C6F14557   2.258   4.557   7.318  0.5711 -0.0660  0.5474
  134OSM    H6F14558   2.363   4.576   7.347  0.4851  2.9005 -0.7274
  134OSM    H6G14559   2.208   4.479   7.379 -0.9708  0.1985 -0.3183
  134OSM    C7F14560   2.180   4.689   7.341 -0.3500 -0.2378 -0.2569
  134OSM    H7F14561   2.074   4.657   7.348 -0.0271 -1.9808 -2.3422
  134OSM    H7G14562   2.183   4.762   7.258 -0.6863  1.5117  1.2155
  134OSM    C8F14563   2.215   4.742   7.484  0.7102  0.1118  0.4832
  134OSM    H8F14564   2.320   4.781   7.492 -0.5603  3.5893  3.3236
  134OSM    H8G14565   2.223   4.656   7.554  2.2551 -0.1945 -0.0133
  134OSM    C9F14566   2.122   4.852   7.519  0.1126 -0.0901 -0.1192
  134OSM    H9F14567   2.125   4.941   7.455  0.8051  0.3381  0.4966
  134OSM   C10F14568   2.043   4.849   7.627 -0.6952  0.3546 -0.3216
  134OSM   H10F14569   1.977   4.936   7.643  0.2568  1.0142  0.1250
  134OSM   C11F14570   2.028   4.724   7.716 -0.0922 -0.3493 -0.9114
  134OSM   H11F14571   2.127   4.681   7.742 -0.2353  0.2440  0.7325
  134OSM   H11G14572   1.968   4.645   7.667 -0.3882  0.3411 -1.6829
  134OSM   C12F14573   1.958   4.752   7.854  0.1535 -0.1066 -0.2698
  134OSM   H12F14574   1.922   4.656   7.896 -0.2594 -0.0450 -0.4832
  134OSM   H12G14575   1.875   4.825   7.842  0.6296  0.9635  2.3815
  134OSM   C13F14576   2.059   4.825   7.939 -0.3485  0.1140  0.1639
  134OSM   H13F14577   2.094   4.920   7.895  1.9728  1.1251  3.7418
  134OSM   H13G14578   2.146   4.755   7.948 -0.3113  0.0615 -0.5081
  134OSM   C14F14579   2.005   4.860   8.082 -0.3735 -0.2922 -0.3425
  134OSM   H14F14580   1.911   4.920   8.084 -0.7550 -0.8096 -1.5568
  134OSM   H14G14581   2.075   4.932   8.130  0.6047 -0.0156 -2.1095
  134OSM   C15F14582   1.998   4.736   8.174  0.5285 -0.7240  0.3638
  134OSM   H15F14583   2.084   4.669   8.149  0.3908 -0.6792 -0.2371
  134OSM   H15G14584   1.908   4.683   8.138 -0.2583  0.7608  0.0794
  134OSM   C16F14585   2.011   4.769   8.331 -0.4506 -0.8606 -0.2418
  134OSM   H16F14586   2.090   4.845   8.350  1.2972 -1.4920 -4.0052
  134OSM   H16G14587   2.048   4.686   8.394  0.1658  0.5998  1.4263
  134OSM   C17F14588   1.881   4.825   8.382 -0.2549  0.2321  0.3578
  134OSM   H17F14589   1.813   4.737   8.378 -0.1065  0.1424 -2.1693
  134OSM   H17G14590   1.841   4.906   8.316 -0.3969 -0.4975 -0.4735
  134OSM   C18F14591   1.898   4.877   8.529  0.2355  0.4269  0.7591
  134OSM   H18F14592   1.962   4.803   8.583  1.5656  0.0467 -1.2232
  134OSM   H18G14593   1.804   4.877   8.588 -1.7926 -1.7769 -2.1428
  134OSM   H18H14594   1.944   4.978   8.523 -0.6173  0.7638 -2.9186
  135OSM      N14595   3.089   5.823   6.218  0.6519 -0.0201 -0.2262
  135OSM    C1514596   3.134   5.882   6.348  0.3282  0.6990 -0.3980
  135OSM   H15A14597   3.117   5.988   6.353 -1.9839  0.3251  2.7443
  135OSM   H15B14598   3.238   5.857   6.357  1.4525  3.9449 -2.6487
  135OSM   H15C14599   3.090   5.836   6.435 -1.7832  0.1838 -1.6439
  135OSM    C1414600   3.152   5.910   6.109  0.2444  0.2414 -0.5191
  135OSM   H14A14601   3.157   5.860   6.013  1.8632  0.6791 -0.6874
  135OSM   H14B14602   3.245   5.955   6.139  0.3211 -0.3687  0.1702
  135OSM   H14C14603   3.092   5.998   6.091 -0.9672 -0.1905  1.1736
  135OSM    C1314604   3.140   5.687   6.200  0.4149  0.1028 -0.2913
  135OSM   H13A14605   3.130   5.650   6.099 -1.5172 -1.7432  0.4959
  135OSM   H13B14606   3.077   5.623   6.260 -0.1247  0.5143 -0.4206
  135OSM   H13C14607   3.246   5.684   6.224  0.2547 -0.1916  0.3981
  135OSM    C1214608   2.942   5.825   6.203 -0.1809  0.0155  0.3722
  135OSM   H12A14609   2.904   5.765   6.122 -1.4022  1.6062 -0.2996
  135OSM   H12B14610   2.911   5.926   6.178  0.4092  0.1669  0.2153
  135OSM    C1114611   2.852   5.783   6.322 -0.5098 -0.3589  0.2965
  135OSM   H11A14612   2.745   5.808   6.304 -0.1372  2.1656  1.1768
  135OSM   H11B14613   2.885   5.844   6.409  1.3065  2.5505 -2.2388
  135OSM      P14614   2.810   5.541   6.270 -0.4634  0.2896 -0.0667
  135OSM    O1314615   2.780   5.594   6.133 -0.1612  0.7538 -0.3912
  135OSM    O1414616   2.879   5.409   6.267  0.1081 -0.3854 -0.5431
  135OSM    O1114617   2.676   5.515   6.342 -0.4326 -0.2621 -0.2587
  135OSM    O1214618   2.878   5.648   6.355 -0.5977  0.1822 -0.6072
  135OSM    C1S14619   2.643   5.561   6.473  0.1587 -0.3003 -0.3651
  135OSM    H1S14620   2.617   5.669   6.467  0.0092 -0.3082  0.1203
  135OSM    H1T14621   2.727   5.553   6.545  0.5610 -1.2133 -0.9142
  135OSM     NF14622   2.574   5.356   6.574  0.8860  0.0628  0.3657
  135OSM    HNF14623   2.568   5.280   6.511 -1.1890  0.1952  0.3366
  135OSM    C2S14624   2.526   5.488   6.536 -0.1069  0.8804 -0.1662
  135OSM    H2S14625   2.505   5.542   6.631 -0.0823 -0.1591  0.4510
  135OSM    C3S14626   2.396   5.486   6.456 -0.6828  0.7400 -0.1582
  135OSM    H3S14627   2.402   5.407   6.378  1.2612 -1.1277  1.7500
  135OSM     O314628   2.365   5.607   6.380  0.1079  0.2678 -0.4498
  135OSM    HO314629   2.438   5.665   6.398 -0.6475  1.2720 -0.5372
  135OSM    C4S14630   2.282   5.424   6.541 -0.0117 -0.3520 -0.2163
  135OSM    H4S14631   2.285   5.314   6.543 -0.0624 -0.4268 -2.2847
  135OSM    C5S14632   2.190   5.484   6.614 -0.6092 -0.0140 -0.4750
  135OSM    H5S14633   2.201   5.593   6.629  0.5895 -0.2491  0.5554
  135OSM    C6S14634   2.090   5.408   6.699  0.4480 -0.1924 -0.8973
  135OSM    H6S14635   2.080   5.301   6.670 -2.1629  0.5762 -3.3153
  135OSM    H6T14636   1.991   5.453   6.678 -0.7603 -1.8898  0.8112
  135OSM    C7S14637   2.100   5.413   6.853 -0.2864  0.2282 -1.5572
  135OSM    H7S14638   2.081   5.521   6.873  0.4681  0.2549 -0.9049
  135OSM    H7T14639   2.205   5.388   6.881 -1.9301 -3.9126  1.9762
  135OSM    C8S14640   2.003   5.321   6.946 -0.1200 -0.4590  0.4722
  135OSM    H8S14641   2.018   5.218   6.908 -0.4962  0.0800 -1.2167
  135OSM    H8T14642   1.901   5.364   6.939 -0.1736 -0.5766  0.5342
  135OSM    C9S14643   2.045   5.336   7.094  0.3317 -0.2975  0.1767
  135OSM    H9S14644   2.065   5.441   7.122  2.9795 -0.8293  0.4954
  135OSM    H9T14645   2.146   5.290   7.101  0.1331 -0.6592  0.7761
  135OSM   C10S14646   1.955   5.263   7.187  1.2943 -0.6950 -0.1664
  135OSM   H10S14647   1.956   5.154   7.165  1.2435 -1.0533  1.4409
  135OSM   H10T14648   1.855   5.307   7.168  1.4529  0.6069  1.6787
  135OSM   C11S14649   1.990   5.301   7.334  0.3372  0.6157  0.5741
  135OSM   H11S14650   2.008   5.411   7.343  0.8656  0.5881 -0.0919
  135OSM   H11T14651   2.091   5.259   7.348  0.4019 -0.5228 -2.5352
  135OSM   C12S14652   1.890   5.255   7.438 -0.7892 -0.1808 -0.5559
  135OSM   H12S14653   1.866   5.146   7.433  0.5622 -0.5766  0.8439
  135OSM   H12T14654   1.795   5.312   7.425 -0.1120  1.2684  0.5140
  135OSM   C13S14655   1.938   5.281   7.582 -0.3293 -0.9346 -0.4147
  135OSM   H13S14656   1.973   5.385   7.599  1.6293 -1.7513  0.8541
  135OSM   H13T14657   2.031   5.221   7.588  0.4650  0.2197 -0.7553
  135OSM   C14S14658   1.849   5.240   7.695  0.0255  0.5532 -0.5971
  135OSM   H14S14659   1.795   5.146   7.672  0.0342  0.2145  0.7082
  135OSM   H14T14660   1.775   5.313   7.733 -0.8580 -1.3285  1.4890
  135OSM   C15S14661   1.935   5.201   7.817 -0.8793 -0.7136  0.3147
  135OSM   H15S14662   1.999   5.284   7.853 -0.9293 -1.6872  2.8632
  135OSM   H15T14663   2.002   5.115   7.795 -0.5103 -0.1935 -0.6309
  135OSM   C16S14664   1.854   5.158   7.943 -0.5988  0.1830  0.1883
  135OSM   H16S14665   1.928   5.102   8.004  0.5946 -0.9832 -2.1963
  135OSM   H16T14666   1.777   5.084   7.914 -0.3709  0.5872 -1.5482
  135OSM   C17S14667   1.781   5.267   8.020 -0.4344 -0.2896  0.1456
  135OSM   H17S14668   1.693   5.290   7.958  0.6278  0.7431 -1.0316
  135OSM   H17T14669   1.853   5.352   8.022 -0.3440 -0.3668  1.8210
  135OSM   C18S14670   1.753   5.218   8.171 -0.1213 -0.2148  0.0049
  135OSM   H18S14671   1.723   5.308   8.229  2.3259  0.0823  0.9566
  135OSM   H18T14672   1.837   5.162   8.216  0.1106 -0.0690 -0.2424
  135OSM   H18U14673   1.658   5.160   8.174  0.4026 -1.0982 -0.0951
  135OSM    C1F14674   2.660   5.328   6.669  0.3363  0.1090  0.8506
  135OSM     OF14675   2.688   5.416   6.745  0.0645 -0.6502  0.0909
  135OSM    C2F14676   2.727   5.192   6.677  0.0061 -0.2750  0.0458
  135OSM    H2F14677   2.817   5.203   6.613  0.2810 -2.8728 -0.1140
  135OSM    H2G14678   2.664   5.115   6.628 -0.2341 -0.6224  0.8830
  135OSM    C3F14679   2.770   5.164   6.826  0.0633  0.0369 -0.3676
  135OSM    H3F14680   2.690   5.186   6.901  0.1399  0.2116 -0.3361
  135OSM    H3G14681   2.846   5.242   6.847 -1.4175  1.2487  0.7718
  135OSM    C4F14682   2.816   5.021   6.843  0.2423  0.1639 -0.1933
  135OSM    H4F14683   2.905   5.010   6.777  2.2232  2.6607  1.8770
  135OSM    H4G14684   2.739   4.958   6.792 -1.4084  1.1522  0.9950
  135OSM    C5F14685   2.848   4.971   6.987  0.1829  0.2475  0.1765
  135OSM    H5F14686   2.850   4.861   6.977  0.7061  0.4491 -4.4890
  135OSM    H5G14687   2.767   5.005   7.055  1.8237  0.5710  2.0590
  135OSM    C6F14688   2.978   5.029   7.031  0.2243  0.5670 -0.0505
  135OSM    H6F14689   2.974   5.138   7.012  0.8525  0.5116 -0.5382
  135OSM    H6G14690   3.057   4.989   6.964 -0.8741 -0.2487 -0.9093
  135OSM    C7F14691   2.994   4.987   7.182 -0.4068 -0.6058  0.3894
  135OSM    H7F14692   2.992   4.876   7.195  1.5227 -0.4098  3.5492
  135OSM    H7G14693   2.902   5.019   7.236  0.3469  0.6451  0.9506
  135OSM    C8F14694   3.121   5.035   7.261 -0.2247 -0.0628  0.0268
  135OSM    H8F14695   3.102   5.001   7.365 -2.4662  0.1968 -0.2410
  135OSM    H8G14696   3.120   5.146   7.270 -4.5101  0.2269 -1.6491
  135OSM    C9F14697   3.252   4.972   7.205  0.1531 -0.4569 -0.2875
  135OSM    H9F14698   3.248   4.896   7.126  4.0079 -0.3608 -0.7880
  135OSM   C10F14699   3.377   5.016   7.231  0.0757  0.4530  0.6398
  135OSM   H10F14700   3.462   4.965   7.185 -1.3591 -0.1860 -1.4451
  135OSM   C11F14701   3.421   5.127   7.325 -0.0224 -0.7191  0.1294
  135OSM   H11F14702   3.382   5.122   7.429  0.2857 -0.1230  0.2782
  135OSM   H11G14703   3.376   5.221   7.288  0.5676 -0.2733  0.5185
  135OSM   C12F14704   3.567   5.171   7.322 -0.2329 -0.0619  0.6808
  135OSM   H12F14705   3.566   5.281   7.331  1.7283  0.2905 -2.0708
  135OSM   H12G14706   3.615   5.161   7.222 -0.0124 -1.6113  0.9118
  135OSM   C13F14707   3.659   5.114   7.433 -0.5458  0.2055 -0.1345
  135OSM   H13F14708   3.666   5.003   7.425 -1.3799  0.1968 -0.8779
  135OSM   H13G14709   3.622   5.127   7.537  1.5054  3.1226  0.3368
  135OSM   C14F14710   3.797   5.167   7.405  0.7779 -0.3048 -0.3075
  135OSM   H14F14711   3.800   5.274   7.436 -0.0029 -0.6686  1.0769
  135OSM   H14G14712   3.815   5.147   7.297  2.2849 -0.8049  0.0086
  135OSM   C15F14713   3.894   5.092   7.489  0.2812  0.2888 -0.4798
  135OSM   H15F14714   3.990   5.136   7.452 -0.2063  0.9220 -1.0177
  135OSM   H15G14715   3.888   4.986   7.457  0.0509 -0.2059  1.1161
  135OSM   C16F14716   3.882   5.108   7.640  0.1103  0.3950 -0.1682
  135OSM   H16F14717   3.987   5.084   7.667  0.0609 -1.4615 -1.4417
  135OSM   H16G14718   3.819   5.026   7.680  1.6017 -1.0946 -0.7446
  135OSM   C17F14719   3.844   5.248   7.694  0.3517 -0.0447  0.0717
  135OSM   H17F14720   3.740   5.274   7.662  0.5754  0.6900 -0.0793
  135OSM   H17G14721   3.898   5.334   7.651 -3.0460  1.1923 -2.1752
  135OSM   C18F14722   3.840   5.245   7.851 -1.0807  0.4034  0.2532
  135OSM   H18F14723   3.862   5.343   7.897 -0.3744  0.0747  0.6203
  135OSM   H18G14724   3.915   5.173   7.890  0.2670  1.7168  0.1675
  135OSM   H18H14725   3.744   5.209   7.894 -0.2878 -0.5383  1.2815
  136OSM      N14726   0.782   4.857   5.716  0.0623  0.3632  0.4310
  136OSM    C1514727   0.638   4.905   5.737  0.0060  0.7036  0.1768
  136OSM   H15A14728   0.645   4.985   5.810  2.6906  0.0838  0.6968
  136OSM   H15B14729   0.572   4.825   5.766 -0.7536  0.3144 -2.4191
  136OSM   H15C14730   0.597   4.946   5.646  2.1276  1.6118 -0.4477
  136OSM    C1414731   0.785   4.745   5.621  1.0010  0.5801 -0.4944
  136OSM   H14A14732   0.768   4.788   5.524  1.3242 -0.8890 -1.2242
  136OSM   H14B14733   0.702   4.678   5.636  1.5726 -0.3114 -1.2417
  136OSM   H14C14734   0.882   4.696   5.614  0.6545  0.0305 -1.6734
  136OSM    C1314735   0.867   4.962   5.651 -0.3110  0.1735  0.1242
  136OSM   H13A14736   0.827   5.003   5.559 -0.1541 -1.3256 -0.6305
  136OSM   H13B14737   0.961   4.920   5.618 -0.1272  0.9677 -0.3891
  136OSM   H13C14738   0.886   5.043   5.720 -0.5854 -0.3769  0.8533
  136OSM    C1214739   0.847   4.818   5.847  0.1700  0.5917 -0.6869
  136OSM   H12A14740   0.945   4.775   5.831  0.5206  0.7921  0.8076
  136OSM   H12B14741   0.797   4.732   5.887 -0.9026  1.5832  0.1846
  136OSM    C1114742   0.861   4.922   5.960  0.1733  0.0769  0.0923
  136OSM   H11A14743   0.878   4.862   6.052 -3.3086  0.3287  1.0243
  136OSM   H11B14744   0.760   4.968   5.965 -0.3698 -1.0840  0.2786
  136OSM      P14745   1.031   5.121   6.019 -0.4292 -0.1259 -0.6922
  136OSM    O1314746   1.120   5.049   6.113  0.5437 -0.1404  0.0825
  136OSM    O1414747   1.096   5.216   5.928  0.0341  0.0589 -0.0916
  136OSM    O1114748   0.921   5.187   6.104 -0.2127 -0.2465  0.0746
  136OSM    O1214749   0.968   5.011   5.934  0.1157  0.1178 -0.1817
  136OSM    C1S14750   0.920   5.168   6.248  0.7687 -0.2323 -0.2956
  136OSM    H1S14751   1.011   5.209   6.295  1.3693  0.9820 -2.4168
  136OSM    H1T14752   0.923   5.058   6.265 -0.9379 -0.8095 -3.1008
  136OSM     NF14753   0.811   5.229   6.473 -0.3257  0.3535 -0.4980
  136OSM    HNF14754   0.759   5.171   6.535 -0.1045  1.3825  0.6778
  136OSM    C2S14755   0.794   5.226   6.326 -0.5642 -0.9520 -0.7823
  136OSM    H2S14756   0.789   5.331   6.289 -0.4948 -1.0872 -1.1816
  136OSM    C3S14757   0.660   5.160   6.291 -0.7572 -0.2424  0.5264
  136OSM    H3S14758   0.669   5.061   6.341  0.8579 -0.5273 -0.2539
  136OSM     O314759   0.646   5.140   6.151  0.3042  0.5872  0.0289
  136OSM    HO314760   0.737   5.155   6.123  0.8884 -0.9621  0.9500
  136OSM    C4S14761   0.544   5.237   6.346  0.3099  0.3554 -0.8315
  136OSM    H4S14762   0.510   5.325   6.290 -2.1653  0.5905  0.8788
  136OSM    C5S14763   0.482   5.202   6.457  0.8039 -0.1885 -0.6786
  136OSM    H5S14764   0.522   5.113   6.506  1.2044 -0.3632 -1.3202
  136OSM    C6S14765   0.370   5.289   6.511  0.3563  0.4208 -0.3004
  136OSM    H6S14766   0.279   5.225   6.503  0.0063  1.0356 -1.5359
  136OSM    H6T14767   0.352   5.380   6.451  0.8973 -0.9188 -2.6309
  136OSM    C7S14768   0.389   5.329   6.646  0.3617 -0.9071  0.5603
  136OSM    H7S14769   0.483   5.388   6.651  1.5534 -2.7506  0.6881
  136OSM    H7T14770   0.406   5.239   6.709  1.4232 -0.2031  1.3183
  136OSM    C8S14771   0.265   5.406   6.700  0.1147 -0.5153 -0.1104
  136OSM    H8S14772   0.170   5.352   6.679 -0.7632  1.3414 -1.1830
  136OSM    H8T14773   0.256   5.508   6.656 -1.2181 -0.5299  0.0766
  136OSM    C9S14774   0.272   5.426   6.858  0.3157 -1.4877  0.9018
  136OSM    H9S14775   0.226   5.524   6.881  0.8534 -0.0835 -3.1872
  136OSM    H9T14776   0.381   5.436   6.880 -0.1947  0.6247  2.8175
  136OSM   C10S14777   0.223   5.304   6.933  0.4742  0.0759 -0.8590
  136OSM   H10S14778   0.274   5.217   6.887  2.4499  0.9491 -0.4122
  136OSM   H10T14779   0.117   5.281   6.909  0.1325  0.2512  0.4075
  136OSM   C11S14780   0.243   5.302   7.086 -0.2451  0.4219  0.6121
  136OSM   H11S14781   0.191   5.382   7.143 -2.6506 -1.4523  1.2114
  136OSM   H11T14782   0.351   5.323   7.103 -0.5285  2.4343  0.1556
  136OSM   C12S14783   0.201   5.174   7.146  0.7337  0.0568 -0.6121
  136OSM   H12S14784   0.272   5.090   7.131  0.3515 -0.3372 -0.2419
  136OSM   H12T14785   0.101   5.141   7.110 -0.1276  1.3108  0.5325
  136OSM   C13S14786   0.180   5.185   7.297 -0.6143  0.4339 -0.0771
  136OSM   H13S14787   0.103   5.106   7.314 -1.4451  0.7608 -2.0665
  136OSM   H13T14788   0.125   5.280   7.317  0.4252  1.1322 -0.4532
  136OSM   C14S14789   0.307   5.171   7.393  0.8631  0.2370  0.9420
  136OSM   H14S14790   0.379   5.255   7.383 -1.0320  1.7096 -1.7448
  136OSM   H14T14791   0.364   5.080   7.366  0.7147  0.3483  0.2170
  136OSM   C15S14792   0.272   5.176   7.544 -0.7331  0.0840  0.4548
  136OSM   H15S14793   0.236   5.280   7.560  1.2555  1.0329 -0.8167
  136OSM   H15T14794   0.367   5.170   7.601  0.3290 -2.8588 -1.3600
  136OSM   C16S14795   0.181   5.071   7.600  0.8140 -0.5855 -0.4805
  136OSM   H16S14796   0.224   4.982   7.550  0.2043 -0.1465 -1.8384
  136OSM   H16T14797   0.076   5.084   7.568 -0.0206  0.2719  2.2946
  136OSM   C17S14798   0.183   5.081   7.747  0.6290  0.2473 -0.6643
  136OSM   H17S14799   0.175   5.191   7.762 -2.9036  0.3216 -2.2939
  136OSM   H17T14800   0.283   5.049   7.784  0.5372  0.4292 -0.2534
  136OSM   C18S14801   0.062   5.012   7.813  0.3243  0.5483 -0.2476
  136OSM   H18S14802   0.073   5.000   7.923 -0.7660  0.6931 -0.1182
  136OSM   H18T14803   0.052   4.907   7.777  1.0619  0.6173 -0.6827
  136OSM   H18U14804  -0.033   5.067   7.799 -1.2347 -2.1519 -1.1947
  136OSM    C1F14805   0.913   5.292   6.538  0.4987  0.7225 -0.3835
  136OSM     OF14806   0.994   5.361   6.480  0.4630  0.4603  0.2600
  136OSM    C2F14807   0.940   5.264   6.686  0.0056  0.4493 -0.8894
  136OSM    H2F14808   1.033   5.315   6.717  0.8403 -1.2761 -0.4273
  136OSM    H2G14809   0.952   5.155   6.704  1.2518  0.4013 -1.8614
  136OSM    C3F14810   0.818   5.308   6.763 -0.1077 -0.2695 -0.7180
  136OSM    H3F14811   0.734   5.243   6.729  0.6175 -1.4669 -0.2953
  136OSM    H3G14812   0.802   5.416   6.745  1.6618  0.1232 -0.1700
  136OSM    C4F14813   0.847   5.274   6.911  0.0264 -0.0520 -0.6053
  136OSM    H4F14814   0.950   5.312   6.928 -0.0661  0.5938 -1.4109
  136OSM    H4G14815   0.850   5.166   6.937 -1.3019 -0.2437 -1.1645
  136OSM    C5F14816   0.765   5.342   7.025 -0.7501 -0.1426 -0.2870
  136OSM    H5F14817   0.657   5.328   7.007 -0.5113 -2.5807 -0.1932
  136OSM    H5G14818   0.787   5.449   7.007  0.0863 -0.5706 -2.0545
  136OSM    C6F14819   0.822   5.293   7.158 -0.9252  0.5142  0.8452
  136OSM    H6F14820   0.927   5.331   7.153 -0.7370 -0.0525  0.3518
  136OSM    H6G14821   0.828   5.183   7.174  2.7109  0.5488  0.6115
  136OSM    C7F14822   0.752   5.362   7.280 -0.1920 -0.1475 -0.1764
  136OSM    H7F14823   0.642   5.353   7.271  0.0451 -2.1972 -1.9903
  136OSM    H7G14824   0.777   5.471   7.278  1.6788 -0.5416 -0.8950
  136OSM    C8F14825   0.807   5.308   7.416 -0.7198  0.6039 -0.7215
  136OSM    H8F14826   0.916   5.327   7.418 -0.9058  1.6754 -0.0879
  136OSM    H8G14827   0.788   5.199   7.410 -1.5982  0.7695 -1.1564
  136OSM    C9F14828   0.750   5.363   7.541 -0.1210 -0.1162 -0.0195
  136OSM    H9F14829   0.710   5.465   7.531  0.7027  0.2497  0.2785
  136OSM   C10F14830   0.739   5.300   7.664  0.4855  0.0364  0.0183
  136OSM   H10F14831   0.695   5.350   7.752 -0.2744 -2.6671  1.2760
  136OSM   C11F14832   0.787   5.159   7.691 -0.1982 -0.9123 -0.5857
  136OSM   H11F14833   0.792   5.097   7.599  1.1760 -0.6662 -0.6913
  136OSM   H11G14834   0.723   5.103   7.764  0.8332  0.7265  1.6960
  136OSM   C12F14835   0.930   5.161   7.749  0.0934  0.4073  0.5475
  136OSM   H12F14836   0.986   5.225   7.678  0.5605 -0.0382  0.5055
  136OSM   H12G14837   0.962   5.054   7.757 -0.3785  0.3982  3.6759
  136OSM   C13F14838   0.949   5.232   7.886 -0.9143  0.7402 -0.0843
  136OSM   H13F14839   0.955   5.341   7.864 -1.9500  0.3719 -2.4953
  136OSM   H13G14840   1.056   5.205   7.893 -0.9200  0.0358 -2.1676
  136OSM   C14F14841   0.871   5.197   8.013 -0.4405 -0.6758  0.4266
  136OSM   H14F14842   0.763   5.220   8.005 -0.5864 -1.1474  0.9454
  136OSM   H14G14843   0.927   5.257   8.088  0.9202 -2.1370  0.6405
  136OSM   C15F14844   0.888   5.060   8.078  0.3427  0.0149 -0.7070
  136OSM   H15F14845   0.993   5.022   8.077  0.4221  0.1312  1.1274
  136OSM   H15G14846   0.822   4.995   8.016 -0.0016 -0.1922 -0.1239
  136OSM   C16F14847   0.833   5.055   8.225 -0.0644  0.3017 -0.2512
  136OSM   H16F14848   0.812   4.951   8.260 -1.3932  0.8268  0.5629
  136OSM   H16G14849   0.734   5.103   8.239 -0.6267 -1.4862  3.0195
  136OSM   C17F14850   0.914   5.124   8.338  0.1613  0.0368  0.2852
  136OSM   H17F14851   0.922   5.234   8.334  0.9113 -0.0270 -0.1802
  136OSM   H17G14852   1.014   5.075   8.338  0.1348 -0.0361 -0.6320
  136OSM   C18F14853   0.850   5.086   8.468 -0.5369  0.2624 -0.7676
  136OSM   H18F14854   0.923   5.095   8.551 -1.6053  1.6409  0.0656
  136OSM   H18G14855   0.811   4.982   8.471 -0.4189  0.1957 -1.3855
  136OSM   H18H14856   0.764   5.149   8.500 -1.1312 -1.2071  0.7092
  137OSM      N14857   3.627   4.341   6.193  0.2992 -0.6863  0.1197
  137OSM    C1514858   3.742   4.277   6.127  0.5746 -0.2415 -0.4753
  137OSM   H15A14859   3.779   4.187   6.174 -0.5384 -0.3355  0.2451
  137OSM   H15B14860   3.824   4.347   6.133 -1.0349  1.6078  1.4079
  137OSM   H15C14861   3.717   4.241   6.028 -0.2138 -0.5113 -0.1884
  137OSM    C1414862   3.599   4.466   6.123  0.1628 -0.1703  0.0268
  137OSM   H14A14863   3.498   4.499   6.145  0.3626 -0.4227  1.4102
  137OSM   H14B14864   3.610   4.453   6.016  1.4663 -1.8669  0.3394
  137OSM   H14C14865   3.673   4.534   6.161  1.4272 -2.2067  1.3670
  137OSM    C1314866   3.511   4.247   6.175 -0.2656 -0.0507  0.0497
  137OSM   H13A14867   3.428   4.286   6.234 -0.0143 -0.9722  1.0322
  137OSM   H13B14868   3.529   4.158   6.233 -0.5870  0.1249  0.4327
  137OSM   H13C14869   3.476   4.238   6.073 -0.7622 -0.0798  0.2156
  137OSM    C1214870   3.654   4.360   6.346 -0.5564 -0.0104 -0.1430
  137OSM   H12A14871   3.749   4.411   6.349 -0.7480  0.5823 -2.3847
  137OSM   H12B14872   3.676   4.262   6.385 -2.1543 -0.1339  0.5416
  137OSM    C1114873   3.557   4.438   6.432 -0.1725 -0.2332  0.5521
  137OSM   H11A14874   3.587   4.428   6.538  1.6557 -3.1359 -0.1165
  137OSM   H11B14875   3.458   4.386   6.429 -0.0773 -0.4201  0.6229
  137OSM      P14876   3.432   4.659   6.469  0.1653  0.6351  0.4020
  137OSM    O1314877   3.480   4.789   6.497  0.1838 -1.1466  0.3093
  137OSM    O1414878   3.315   4.647   6.383  0.8880 -0.7476 -0.2922
  137OSM    O1114879   3.396   4.584   6.604 -0.9094  0.4032 -0.4927
  137OSM    O1214880   3.550   4.575   6.396  0.7513 -0.7216 -0.6683
  137OSM    C1S14881   3.472   4.595   6.725  0.5102  0.5403 -0.6281
  137OSM    H1S14882   3.453   4.695   6.771 -3.9243 -0.8386  1.0279
  137OSM    H1T14883   3.580   4.570   6.712 -0.0716 -0.9614 -3.1287
  137OSM     NF14884   3.475   4.517   6.971 -0.3245 -0.1642  0.4282
  137OSM    HNF14885   3.517   4.439   7.015  0.1605  0.0025  0.2723
  137OSM    C2S14886   3.410   4.507   6.841 -0.4511 -0.0542  0.0918
  137OSM    H2S14887   3.308   4.549   6.855  0.3813  2.4149 -0.6948
  137OSM    C3S14888   3.391   4.360   6.794 -0.0379  0.4659 -0.1507
  137OSM    H3S14889   3.488   4.325   6.752 -0.9519 -0.4118 -1.6478
  137OSM     O314890   3.296   4.347   6.683  0.0130 -0.1107  0.0763
  137OSM    HO314891   3.275   4.437   6.654  1.0464 -0.1104 -0.7147
  137OSM    C4S14892   3.346   4.275   6.918 -0.0067 -0.0814  0.3280
  137OSM    H4S14893   3.250   4.310   6.960 -0.2758  0.7703 -0.9362
  137OSM    C5S14894   3.398   4.162   6.960  0.2763  0.6491 -0.0699
  137OSM    H5S14895   3.490   4.124   6.912  0.4294 -1.0978  1.5122
  137OSM    C6S14896   3.348   4.079   7.074 -0.2315  0.3923 -0.1529
  137OSM    H6S14897   3.294   4.145   7.146  3.4794  2.0044  1.3813
  137OSM    H6T14898   3.435   4.032   7.124  0.2388  0.1720 -1.1653
  137OSM    C7S14899   3.251   3.967   7.027  0.4815 -0.3044 -0.1582
  137OSM    H7S14900   3.293   3.906   6.944 -0.1373 -0.9675  0.0022
  137OSM    H7T14901   3.160   4.016   6.986 -0.3004  0.1528  1.9971
  137OSM    C8S14902   3.193   3.897   7.150 -0.2712  0.0554  0.6508
  137OSM    H8S14903   3.259   3.898   7.240 -1.0917 -1.4254  1.3056
  137OSM    H8T14904   3.178   3.791   7.120 -0.1664  0.2664 -0.1628
  137OSM    C9S14905   3.060   3.954   7.198  0.6838 -0.6199 -0.2624
  137OSM    H9S14906   2.996   3.949   7.107  1.6582 -2.3790 -0.9012
  137OSM    H9T14907   3.062   4.060   7.232 -0.5676 -0.4616 -0.6551
  137OSM   C10S14908   3.022   3.868   7.322  0.2109 -0.5414  0.2036
  137OSM   H10S14909   3.096   3.876   7.404 -0.0457 -0.6221  0.4447
  137OSM   H10T14910   3.014   3.763   7.287  1.3387 -0.5327 -0.1232
  137OSM   C11S14911   2.896   3.916   7.388 -0.7439  0.1245  0.1002
  137OSM   H11S14912   2.817   3.909   7.310  0.0323 -1.8375 -0.5606
  137OSM   H11T14913   2.910   4.023   7.416 -0.2448  0.5560 -1.6232
  137OSM   C12S14914   2.857   3.832   7.507  0.4610  0.1943  0.1829
  137OSM   H12S14915   2.944   3.796   7.567  1.2481 -0.2080 -1.1566
  137OSM   H12T14916   2.829   3.729   7.477  3.3581 -1.2083  1.8052
  137OSM   C13S14917   2.749   3.901   7.594  0.0597  0.5600  0.0025
  137OSM   H13S14918   2.652   3.912   7.540 -0.6004 -1.7811  0.5912
  137OSM   H13T14919   2.787   3.997   7.634  0.2640 -0.9369  3.7836
  137OSM   C14S14920   2.717   3.818   7.723  0.2519 -0.3015  0.3811
  137OSM   H14S14921   2.805   3.797   7.787 -0.1959 -0.1716  1.0461
  137OSM   H14T14922   2.676   3.721   7.687 -0.7179 -0.0324  0.7195
  137OSM   C15S14923   2.611   3.898   7.802 -0.4732 -0.7372  0.5185
  137OSM   H15S14924   2.534   3.949   7.740  1.5682  0.8920 -0.8090
  137OSM   H15T14925   2.668   3.976   7.857 -0.4569  1.3556 -2.2269
  137OSM   C16S14926   2.546   3.808   7.906  0.4231  0.1369 -0.1178
  137OSM   H16S14927   2.619   3.736   7.948  0.4806 -0.7207 -1.6062
  137OSM   H16T14928   2.479   3.736   7.853  0.4699 -0.0306  0.0486
  137OSM   C17S14929   2.475   3.889   8.021  0.3246  0.0428  0.2607
  137OSM   H17S14930   2.554   3.931   8.087  0.4310  1.2099 -0.5963
  137OSM   H17T14931   2.417   3.812   8.077  4.9818 -2.8246  1.7198
  137OSM   C18S14932   2.385   4.010   7.973 -0.3224  0.2551 -0.0188
  137OSM   H18S14933   2.320   3.978   7.889  1.8687  3.3878 -3.2382
  137OSM   H18T14934   2.441   4.095   7.928  0.5843 -0.4794 -0.3134
  137OSM   H18U14935   2.331   4.052   8.061  2.2737  0.8003  1.4161
  137OSM    C1F14936   3.495   4.632   7.040  0.0648 -0.4799 -0.1673
  137OSM     OF14937   3.447   4.736   7.000  0.3936  0.2795 -0.2459
  137OSM    C2F14938   3.578   4.616   7.165  0.2911  0.0850 -0.0297
  137OSM    H2F14939   3.680   4.591   7.131 -0.1839 -1.3546 -0.4322
  137OSM    H2G14940   3.540   4.530   7.224  0.0544 -0.1066 -0.4607
  137OSM    C3F14941   3.585   4.737   7.261 -0.0043 -0.8018  0.8414
  137OSM    H3F14942   3.481   4.772   7.279 -0.8265 -2.5142 -0.3188
  137OSM    H3G14943   3.635   4.816   7.201 -3.6847  0.8858 -0.3024
  137OSM    C4F14944   3.656   4.716   7.392  0.4496  0.1905  0.0371
  137OSM    H4F14945   3.610   4.636   7.454  0.9362  1.0763  1.5999
  137OSM    H4G14946   3.645   4.809   7.452  0.9307 -0.0534  0.5089
  137OSM    C5F14947   3.811   4.680   7.394  0.6136  0.6500  0.9684
  137OSM    H5F14948   3.859   4.756   7.328  1.8294 -0.1938  0.8370
  137OSM    H5G14949   3.824   4.577   7.353 -0.2483  0.7306  0.4694
  137OSM    C6F14950   3.881   4.696   7.528  0.3703  0.4019  0.1984
  137OSM    H6F14951   3.818   4.645   7.604 -0.4961 -1.5067 -1.7068
  137OSM    H6G14952   3.879   4.803   7.557 -0.1279  0.8048 -1.2530
  137OSM    C7F14953   4.024   4.642   7.532 -0.0300  0.3150  0.8580
  137OSM    H7F14954   4.090   4.710   7.474 -1.0415  0.3050 -0.3338
  137OSM    H7G14955   4.021   4.544   7.479 -1.2143  0.7807  0.0298
  137OSM    C8F14956   4.077   4.638   7.674 -0.0175  0.1715  0.6713
  137OSM    H8F14957   4.185   4.612   7.667  0.0942  1.0127 -1.1104
  137OSM    H8G14958   4.022   4.567   7.740 -1.3614  2.5302  2.2114
  137OSM    C9F14959   4.069   4.769   7.752 -0.0408 -0.0723  0.7773
  137OSM    H9F14960   4.152   4.834   7.719 -0.0117 -0.5423 -0.1052
  137OSM   C10F14961   4.007   4.804   7.858  0.1270 -0.0007  0.2668
  137OSM   H10F14962   4.012   4.902   7.907 -2.3454 -0.6132  1.9713
  137OSM   C11F14963   3.909   4.721   7.935  0.3687  0.2517 -0.1027
  137OSM   H11F14964   3.952   4.622   7.959  1.2908  0.3036 -1.4619
  137OSM   H11G14965   3.817   4.719   7.873  1.6705 -3.7885 -2.2784
  137OSM   C12F14966   3.858   4.775   8.070  0.2318 -0.2191 -0.7488
  137OSM   H12F14967   3.942   4.807   8.136 -0.1093 -2.0298  0.6548
  137OSM   H12G14968   3.798   4.699   8.124 -0.8334  1.8266  1.1286
  137OSM   C13F14969   3.747   4.884   8.069 -0.1673  0.1324  0.2509
  137OSM   H13F14970   3.773   4.956   7.989 -0.6997 -1.0003 -0.9849
  137OSM   H13G14971   3.750   4.921   8.174  1.5285 -1.0501  0.6704
  137OSM   C14F14972   3.616   4.834   8.018 -0.0063  0.5541 -0.2159
  137OSM   H14F14973   3.583   4.747   8.078 -0.9345  1.5857  0.8275
  137OSM   H14G14974   3.633   4.787   7.919 -1.6731  1.2943 -0.8957
  137OSM   C15F14975   3.501   4.935   8.010  0.3493  0.1211  0.5292
  137OSM   H15F14976   3.537   5.028   7.961 -1.3825  0.0923 -0.8931
  137OSM   H15G14977   3.463   4.960   8.111 -0.3238 -1.5279  0.7242
  137OSM   C16F14978   3.377   4.888   7.931 -0.2092 -1.0141 -0.9175
  137OSM   H16F14979   3.295   4.958   7.957 -0.5710 -1.1441 -1.6953
  137OSM   H16G14980   3.340   4.789   7.966 -1.2978 -0.3591 -0.1759
  137OSM   C17F14981   3.402   4.896   7.778 -0.2955 -0.3713 -1.1298
  137OSM   H17F14982   3.467   4.811   7.748 -0.0880  0.3343 -2.8060
  137OSM   H17G14983   3.446   4.996   7.758 -1.5291  0.1090 -1.5538
  137OSM   C18F14984   3.287   4.898   7.685  0.4955 -0.1665  0.1162
  137OSM   H18F14985   3.231   4.803   7.695 -0.5366  0.4771  0.6507
  137OSM   H18G14986   3.328   4.905   7.582  2.4384  2.0173  0.9524
  137OSM   H18H14987   3.221   4.987   7.694  2.5842  1.3898  0.8888
  138OSM      N14988   3.205   0.491   5.752  0.1604  0.3498 -0.1943
  138OSM    C1514989   3.181   0.361   5.680 -0.0829 -0.3112  0.2531
  138OSM   H15A14990   3.252   0.357   5.599  0.4268  2.2619  0.4770
  138OSM   H15B14991   3.080   0.360   5.641  0.0773 -0.2950 -0.1648
  138OSM   H15C14992   3.194   0.280   5.749  1.9545  2.1971  3.0863
  138OSM    C1414993   3.158   0.606   5.664  0.3218 -0.1454 -0.6071
  138OSM   H14A14994   3.167   0.700   5.717 -1.6686 -0.6985  0.8479
  138OSM   H14B14995   3.053   0.610   5.637  0.4790  0.3125 -1.1947
  138OSM   H14C14996   3.207   0.614   5.568 -1.1181 -0.1330 -1.3686
  138OSM    C1314997   3.110   0.468   5.868  0.4062 -0.2711  0.2883
  138OSM   H13A14998   3.128   0.554   5.932 -2.2604  0.8042 -0.2613
  138OSM   H13B14999   3.132   0.373   5.916  1.8084 -0.5171 -0.7837
  138OSM   H13C15000   3.005   0.471   5.841  0.3265 -0.9586  0.5007
  138OSM    C1215001   3.346   0.501   5.797 -0.5062 -1.0701  0.1862
  138OSM   H12A15002   3.356   0.597   5.846  1.3520 -0.3192 -1.5387
  138OSM   H12B15003   3.411   0.488   5.712  0.3214 -1.9171  0.9210
  138OSM    C1115004   3.396   0.398   5.908 -0.1552 -0.9644  0.1750
  138OSM   H11A15005   3.355   0.437   6.004 -2.5090  1.4155 -1.6554
  138OSM   H11B15006   3.506   0.410   5.921 -0.3750 -0.1661  1.4912
  138OSM      P15007   3.364   0.144   5.969 -0.0930  0.2252  0.3091
  138OSM    O1315008   3.227   0.090   5.965 -0.0254 -0.0550 -0.2939
  138OSM    O1415009   3.476   0.061   5.917  0.4515 -0.5809 -0.3380
  138OSM    O1115010   3.392   0.210   6.115 -0.0383 -0.0472 -0.1923
  138OSM    O1215011   3.359   0.262   5.871 -0.1235 -0.4097 -0.1357
  138OSM    C1S15012   3.372   0.142   6.241  0.7426 -0.5258  0.4749
  138OSM    H1S15013   3.473   0.117   6.282  0.4231  1.9239  3.1244
  138OSM    H1T15014   3.314   0.050   6.220  0.3477  0.0811 -1.2472
  138OSM     NF15015   3.301   0.170   6.472  0.0508  0.1980 -0.1527
  138OSM    HNF15016   3.214   0.126   6.494  1.3386 -3.3874 -1.4882
  138OSM    C2S15017   3.292   0.232   6.338 -0.0875 -0.1001 -0.2490
  138OSM    H2S15018   3.344   0.329   6.350  0.6295 -0.5495  0.3145
  138OSM    C3S15019   3.149   0.263   6.292 -0.2449 -0.7172  0.1694
  138OSM    H3S15020   3.090   0.169   6.295 -0.5483 -0.5062  1.0406
  138OSM     O315021   3.145   0.320   6.162 -0.6909  0.0626 -0.2629
  138OSM    HO315022   3.234   0.310   6.128 -0.5197 -1.4410  0.5181
  138OSM    C4S15023   3.077   0.341   6.400 -0.4551 -0.3697  0.6684
  138OSM    H4S15024   3.011   0.281   6.465 -1.2828  2.5142  2.6849
  138OSM    C5S15025   3.068   0.472   6.418 -0.3951 -0.0076  0.0235
  138OSM    H5S15026   3.104   0.549   6.348 -0.5117  1.9584  2.0183
  138OSM    C6S15027   2.974   0.532   6.526  0.3279 -0.2219  0.0515
  138OSM    H6S15028   2.882   0.470   6.519 -1.1045  1.7010  0.9909
  138OSM    H6T15029   2.972   0.639   6.498  3.6940 -0.4188 -1.4820
  138OSM    C7S15030   3.029   0.526   6.669  0.1059  0.1189 -0.3285
  138OSM    H7S15031   2.964   0.596   6.727 -0.8771  0.1919 -1.4854
  138OSM    H7T15032   3.131   0.569   6.684  0.1251  0.1950 -0.6710
  138OSM    C8S15033   3.037   0.387   6.736  0.1817 -0.0896 -0.0958
  138OSM    H8S15034   3.103   0.318   6.678  0.6427  1.2970 -1.2954
  138OSM    H8T15035   2.937   0.339   6.724  0.0967 -0.4837  1.9263
  138OSM    C9S15036   3.097   0.392   6.875  0.3059  0.6845  0.6373
  138OSM    H9S15037   3.027   0.458   6.931  0.9069  1.9845 -0.1007
  138OSM    H9T15038   3.199   0.435   6.878  1.1730 -0.9187 -1.8776
  138OSM   C10S15039   3.112   0.253   6.939  0.4502 -0.0777 -0.3336
  138OSM   H10S15040   3.193   0.206   6.880  1.2485  0.9823 -0.1012
  138OSM   H10T15041   3.023   0.192   6.912  1.2734 -1.2696 -0.4200
  138OSM   C11S15042   3.120   0.260   7.091 -0.6362  0.1665  0.1140
  138OSM   H11S15043   3.202   0.329   7.122 -0.3009  1.1145 -2.5765
  138OSM   H11T15044   3.143   0.161   7.135  4.1140  1.8164  2.0398
  138OSM   C12S15045   2.982   0.289   7.164  0.1188 -0.0242 -0.1594
  138OSM   H12S15046   2.922   0.195   7.170  0.4029 -0.1384  0.9725
  138OSM   H12T15047   2.922   0.352   7.095 -1.0104 -0.6810  0.1902
  138OSM   C13S15048   2.979   0.346   7.305 -0.5634  0.0972 -1.0846
  138OSM   H13S15049   2.875   0.378   7.326 -0.0165  0.0007  2.2383
  138OSM   H13T15050   3.050   0.431   7.289  1.5278 -1.6250 -1.4620
  138OSM   C14S15051   3.039   0.254   7.416 -0.5232 -0.2221 -0.3668
  138OSM   H14S15052   3.142   0.215   7.401 -0.5790 -1.5356  2.0435
  138OSM   H14T15053   2.975   0.163   7.421 -2.9099  1.3470 -0.6408
  138OSM   C15S15054   3.035   0.318   7.553 -0.2627  0.8971  0.3815
  138OSM   H15S15055   2.926   0.330   7.571 -0.4186  1.8902 -1.0519
  138OSM   H15T15056   3.074   0.422   7.557 -1.3137  1.3325 -0.2202
  138OSM   C16S15057   3.094   0.231   7.664  0.0797  0.5252  0.4946
  138OSM   H16S15058   3.058   0.127   7.650 -1.0232  0.7719  1.3362
  138OSM   H16T15059   3.036   0.261   7.754  0.0088 -1.6032  1.2228
  138OSM   C17S15060   3.244   0.230   7.692  0.6492  0.3958  0.3009
  138OSM   H17S15061   3.273   0.334   7.718  0.8408  0.7377 -1.1621
  138OSM   H17T15062   3.293   0.212   7.594  2.2643  1.3916  0.8857
  138OSM   C18S15063   3.277   0.128   7.795 -1.0717 -0.2117  0.5294
  138OSM   H18S15064   3.386   0.130   7.818 -0.9304  0.6650 -0.1706
  138OSM   H18T15065   3.268   0.023   7.759 -1.5443  0.2320 -0.6935
  138OSM   H18U15066   3.211   0.133   7.884 -1.4560 -1.8615  0.3558
  138OSM    C1F15067   3.413   0.147   6.544  0.2063 -0.2828  0.1922
  138OSM     OF15068   3.509   0.216   6.516 -0.6692  0.2074 -0.6647
  138OSM    C2F15069   3.411   0.033   6.649  0.0108  0.3446  0.1319
  138OSM    H2F15070   3.463  -0.053   6.601 -1.2134  0.0350 -0.6874
  138OSM    H2G15071   3.307   0.001   6.675 -0.0202  1.7322  1.8806
  138OSM    C3F15072   3.485   0.080   6.770  0.6038  0.3589 -0.0771
  138OSM    H3F15073   3.431   0.165   6.819 -1.8811 -0.3220 -1.4822
  138OSM    H3G15074   3.586   0.123   6.750  0.6875  2.0660  3.2281
  138OSM    C4F15075   3.505  -0.033   6.878  0.6758  0.3178  0.9129
  138OSM    H4F15076   3.589  -0.097   6.843  1.5931  3.0091 -2.2066
  138OSM    H4G15077   3.417  -0.102   6.878  0.8620  0.0740 -0.1304
  138OSM    C5F15078   3.534   0.024   7.021 -0.0174 -0.7519  0.4740
  138OSM    H5F15079   3.458   0.102   7.044  1.4318  0.7209  0.5130
  138OSM    H5G15080   3.632   0.077   7.025 -1.4050  1.9944  1.2540
  138OSM    C6F15081   3.514  -0.081   7.130  0.2617 -0.3544 -0.8321
  138OSM    H6F15082   3.577  -0.170   7.106  0.8012 -0.7194  1.6513
  138OSM    H6G15083   3.409  -0.116   7.136  0.3721 -0.4800  2.0208
  138OSM    C7F15084   3.561  -0.041   7.272  0.0191 -0.1822  0.5329
  138OSM    H7F15085   3.534   0.063   7.301  5.7569  1.6914  0.5256
  138OSM    H7G15086   3.672  -0.041   7.276  0.0854 -0.5697 -0.9767
  138OSM    C8F15087   3.500  -0.142   7.378 -0.3356  0.3718  0.6765
  138OSM    H8F15088   3.559  -0.145   7.473 -1.3584 -2.2968  1.3303
  138OSM    H8G15089   3.512  -0.249   7.350 -1.7397  0.1365  0.8985
  138OSM    C9F15090   3.361  -0.100   7.406  0.3844 -0.5573  0.4600
  138OSM    H9F15091   3.348   0.009   7.408 -0.6459 -0.6773  0.8500
  138OSM   C10F15092   3.251  -0.179   7.424 -0.0964 -0.0191  0.1479
  138OSM   H10F15093   3.158  -0.123   7.443 -0.1572  0.1666 -0.6379
  138OSM   C11F15094   3.248  -0.329   7.435 -0.2322  0.2397  0.1827
  138OSM   H11F15095   3.331  -0.372   7.375  0.9517  3.9729 -1.1415
  138OSM   H11G15096   3.154  -0.365   7.389 -0.9913  0.3816  1.5645
  138OSM   C12F15097   3.258  -0.389   7.581 -0.5049 -0.1106  0.1454
  138OSM   H12F15098   3.353  -0.348   7.622 -0.4600  0.4397 -0.4846
  138OSM   H12G15099   3.269  -0.499   7.590  2.1198 -0.0146 -0.9074
  138OSM   C13F15100   3.145  -0.342   7.675 -0.0532 -1.1706 -1.1687
  138OSM   H13F15101   3.053  -0.404   7.667 -0.6607 -0.7477  1.5048
  138OSM   H13G15102   3.113  -0.238   7.653  0.5146 -1.5105 -3.9734
  138OSM   C14F15103   3.188  -0.341   7.824 -0.0635  0.6540 -0.5897
  138OSM   H14F15104   3.278  -0.277   7.838 -0.9862  2.3237 -1.8912
  138OSM   H14G15105   3.208  -0.444   7.861 -1.4655  0.0608 -1.3886
  138OSM   C15F15106   3.078  -0.280   7.910 -0.3939 -0.7192  0.0973
  138OSM   H15F15107   2.995  -0.352   7.903 -0.8388 -0.1154 -1.0960
  138OSM   H15G15108   3.045  -0.186   7.861 -1.7651 -0.7185  0.9501
  138OSM   C16F15109   3.108  -0.278   8.058  0.2507 -0.7031 -0.2725
  138OSM   H16F15110   3.118  -0.377   8.108 -0.6050 -0.5019  0.3338
  138OSM   H16G15111   3.026  -0.228   8.114  0.7396 -2.9857  2.7514
  138OSM   C17F15112   3.233  -0.192   8.091 -0.4232  0.1774  0.6356
  138OSM   H17F15113   3.214  -0.083   8.080 -3.4843 -0.3806 -0.9960
  138OSM   H17G15114   3.326  -0.221   8.038  0.2583  2.4246  0.5129
  138OSM   C18F15115   3.282  -0.204   8.240  0.1723  0.2648 -0.8642
  138OSM   H18F15116   3.201  -0.181   8.312 -0.0746  1.2900 -1.4459
  138OSM   H18G15117   3.366  -0.136   8.266  0.6605 -0.2629 -1.0506
  138OSM   H18H15118   3.314  -0.309   8.256  1.3105  0.9895  2.1180
  139OSM      N15119   2.173   0.237   6.048 -0.1535 -0.2372  0.2774
  139OSM    C1515120   2.231   0.150   6.152  0.6076  0.0258  0.0030
  139OSM   H15A15121   2.307   0.095   6.099  2.5802  2.6360 -0.0897
  139OSM   H15B15122   2.152   0.090   6.195 -0.5131  1.0137 -0.5844
  139OSM   H15C15123   2.286   0.198   6.231 -1.5639  1.5416  0.6811
  139OSM    C1415124   2.252   0.358   6.021 -0.0216 -0.0934  0.6095
  139OSM   H14A15125   2.262   0.412   6.114 -1.9346 -0.7058  1.2131
  139OSM   H14B15126   2.202   0.423   5.951  1.8427  1.8147  0.9549
  139OSM   H14C15127   2.347   0.332   5.977  0.1126  1.0004  0.2127
  139OSM    C1315128   2.180   0.155   5.916  0.3773  0.1024 -0.4782
  139OSM   H13A15129   2.121   0.213   5.845 -0.5729  0.6944  0.7532
  139OSM   H13B15130   2.140   0.057   5.934  0.7243  0.0161 -0.1689
  139OSM   H13C15131   2.281   0.143   5.880 -0.0562 -1.8991 -1.1638
  139OSM    C1215132   2.032   0.267   6.086 -0.7502 -0.1581 -0.0390
  139OSM   H12A15133   2.032   0.311   6.185  1.4393  1.1891 -0.5609
  139OSM   H12B15134   1.994   0.170   6.112  0.5546 -0.4701  0.7912
  139OSM    C1115135   1.946   0.350   5.990  0.0300  0.4242 -0.3085
  139OSM   H11A15136   1.843   0.343   6.033  1.8365 -2.8705  4.3739
  139OSM   H11B15137   1.951   0.315   5.885  1.9247 -1.2597  0.2977
  139OSM      P15138   1.933   0.610   6.052 -0.0124 -0.0715 -0.0701
  139OSM    O1315139   1.988   0.738   5.999 -0.1051  0.8936 -0.2822
  139OSM    O1415140   1.786   0.605   6.048  0.2378  0.2035  0.3656
  139OSM    O1115141   1.982   0.587   6.201  0.2543 -0.9609 -0.3139
  139OSM    O1215142   1.985   0.489   5.973 -0.4922 -0.0860  0.6781
  139OSM    C1S15143   1.939   0.663   6.310 -0.0087 -0.2459 -0.2212
  139OSM    H1S15144   1.835   0.702   6.303  1.0167  2.5418 -1.6913
  139OSM    H1T15145   2.007   0.751   6.304  0.6511 -0.8291 -1.6287
  139OSM     NF15146   1.914   0.683   6.560  0.3476 -0.2729  0.0134
  139OSM    HNF15147   1.981   0.714   6.627 -0.5074  0.9244  0.3519
  139OSM    C2S15148   1.964   0.599   6.453  0.0678  0.2960  0.7570
  139OSM    H2S15149   1.913   0.501   6.455 -1.6356  1.1523  0.4519
  139OSM    C3S15150   2.114   0.561   6.461  0.1250 -0.1193 -0.2279
  139OSM    H3S15151   2.171   0.656   6.472 -1.5963  1.0074 -0.6015
  139OSM     O315152   2.166   0.486   6.353  0.0542  0.0829  0.0861
  139OSM    HO315153   2.105   0.512   6.284 -1.3298 -1.6355  0.5988
  139OSM    C4S15154   2.130   0.486   6.598  0.2151  0.2805  0.1022
  139OSM    H4S15155   2.164   0.560   6.671  1.3280 -0.5683  0.4878
  139OSM    C5S15156   2.108   0.354   6.621 -0.1925  0.5551 -0.5726
  139OSM    H5S15157   2.083   0.287   6.538 -0.6394 -0.1872  0.1384
  139OSM    C6S15158   2.121   0.275   6.750 -0.3913 -0.6185 -0.0946
  139OSM    H6S15159   2.209   0.209   6.738  0.5491  1.0377 -3.3102
  139OSM    H6T15160   2.027   0.216   6.747  0.7513 -2.6368  1.2641
  139OSM    C7S15161   2.122   0.357   6.875 -0.4056  0.2935 -0.0987
  139OSM    H7S15162   2.031   0.416   6.902  0.4883  0.6406  2.4297
  139OSM    H7T15163   2.208   0.427   6.875 -1.4535  1.6293  1.2379
  139OSM    C8S15164   2.149   0.269   7.003  0.0577 -0.2946 -0.0798
  139OSM    H8S15165   2.246   0.219   6.986 -0.1221 -0.3797 -0.9147
  139OSM    H8T15166   2.065   0.197   7.014  0.3485 -1.4903 -4.0375
  139OSM    C9S15167   2.141   0.365   7.128 -0.3018  0.2330 -0.5824
  139OSM    H9S15168   2.040   0.412   7.127  0.5254  2.1373 -2.1953
  139OSM    H9T15169   2.227   0.435   7.119 -1.4397  1.4885 -2.8096
  139OSM   C10S15170   2.164   0.281   7.257  0.1320  0.5806  0.5620
  139OSM   H10S15171   2.273   0.261   7.248 -0.0335 -0.2681  0.4259
  139OSM   H10T15172   2.111   0.184   7.261  1.1095  0.0429  0.9044
  139OSM   C11S15173   2.148   0.369   7.380  0.0309  0.2529  0.1111
  139OSM   H11S15174   2.040   0.396   7.386 -0.2491 -0.8014  0.0216
  139OSM   H11T15175   2.205   0.462   7.364 -0.1060  0.3315  0.0814
  139OSM   C12S15176   2.200   0.311   7.511  1.2315 -0.4451 -0.3484
  139OSM   H12S15177   2.274   0.230   7.490  0.1964 -1.7393  0.7761
  139OSM   H12T15178   2.116   0.253   7.555 -1.5661  2.7353 -1.1426
  139OSM   C13S15179   2.247   0.409   7.622 -0.5771 -0.0869  0.0260
  139OSM   H13S15180   2.176   0.493   7.634  0.0738  0.3678  0.8077
  139OSM   H13T15181   2.344   0.455   7.594  0.7943 -1.2345  2.5611
  139OSM   C14S15182   2.277   0.337   7.758  0.6712 -0.6584  0.2959
  139OSM   H14S15183   2.332   0.247   7.724 -1.8504 -1.4789 -1.8801
  139OSM   H14T15184   2.178   0.304   7.796 -0.2297 -1.6953 -2.7438
  139OSM   C15S15185   2.350   0.416   7.860  0.5020 -0.6752  0.0370
  139OSM   H15S15186   2.288   0.508   7.860 -0.4163 -1.2806 -0.7848
  139OSM   H15T15187   2.457   0.431   7.831  0.3245 -0.5021 -0.5259
  139OSM   C16S15188   2.348   0.355   7.994 -0.4146  0.1250 -0.9599
  139OSM   H16S15189   2.423   0.274   8.005  0.9417  1.1118 -2.4401
  139OSM   H16T15190   2.247   0.312   8.015 -0.4231  0.8056  0.5297
  139OSM   C17S15191   2.366   0.459   8.110 -0.3634 -0.0603  0.5321
  139OSM   H17S15192   2.319   0.559   8.096 -0.6289  0.6098  4.8224
  139OSM   H17T15193   2.475   0.480   8.124 -0.3847  0.8411 -0.4892
  139OSM   C18S15194   2.309   0.411   8.238 -0.4126 -0.6152  0.3032
  139OSM   H18S15195   2.327   0.485   8.320  2.3076  2.7064 -2.9471
  139OSM   H18T15196   2.352   0.312   8.265  1.1061  0.8240  3.8654
  139OSM   H18U15197   2.199   0.399   8.224 -0.4833 -0.5677  0.7768
  139OSM    C1F15198   1.787   0.722   6.568 -0.6488 -0.8579 -0.2149
  139OSM     OF15199   1.695   0.683   6.500 -0.2190  0.3169  0.2049
  139OSM    C2F15200   1.763   0.814   6.682 -0.3132 -0.3852 -0.4315
  139OSM    H2F15201   1.796   0.917   6.658  1.5146 -0.9421 -0.4386
  139OSM    H2G15202   1.820   0.774   6.768  0.5436  1.7658  0.0634
  139OSM    C3F15203   1.612   0.828   6.720 -0.5711 -0.1989 -0.4541
  139OSM    H3F15204   1.580   0.723   6.737  1.7718 -1.6749 -3.9196
  139OSM    H3G15205   1.544   0.861   6.639 -1.2821 -0.9186 -0.1621
  139OSM    C4F15206   1.593   0.923   6.833  0.1499 -0.4683 -0.2072
  139OSM    H4F15207   1.495   0.975   6.823  0.6628  0.0809 -3.5835
  139OSM    H4G15208   1.663   1.009   6.830  0.8147 -0.9328  0.9924
  139OSM    C5F15209   1.606   0.854   6.972 -0.5209 -1.3413 -0.3567
  139OSM    H5F15210   1.702   0.800   6.981 -0.8354 -1.5948  1.9582
  139OSM    H5G15211   1.520   0.785   6.986 -2.4148  0.9363 -0.0857
  139OSM    C6F15212   1.592   0.964   7.083  0.1204  0.2360  0.0493
  139OSM    H6F15213   1.667   1.046   7.081  1.2089 -0.7266 -2.8056
  139OSM    H6G15214   1.608   0.908   7.178  1.6059  0.6099  0.0462
  139OSM    C7F15215   1.459   1.045   7.092  0.0818  0.0356 -0.2289
  139OSM    H7F15216   1.377   0.971   7.073  1.9828 -2.6455  1.2438
  139OSM    H7G15217   1.451   1.128   7.020 -0.4206  1.0555  0.9695
  139OSM    C8F15218   1.439   1.108   7.235  0.1167 -0.2427  0.1035
  139OSM    H8F15219   1.518   1.184   7.248  0.1032 -0.2971  0.5240
  139OSM    H8G15220   1.461   1.032   7.313 -1.0306 -0.7367 -0.0254
  139OSM    C9F15221   1.298   1.153   7.253  0.3444 -1.0125  0.5871
  139OSM    H9F15222   1.225   1.076   7.223 -0.4324  1.0370 -3.5573
  139OSM   C10F15223   1.267   1.265   7.324 -0.5785 -0.6022 -0.5570
  139OSM   H10F15224   1.162   1.292   7.345 -0.1309  0.4374  0.5006
  139OSM   C11F15225   1.372   1.366   7.377 -0.4102  0.3397 -0.0755
  139OSM   H11F15226   1.328   1.468   7.369  1.0569  1.0439  0.5257
  139OSM   H11G15227   1.465   1.365   7.317  0.0136  1.2382  0.5448
  139OSM   C12F15228   1.393   1.349   7.534  0.2186  0.4875  0.5396
  139OSM   H12F15229   1.473   1.274   7.549 -1.7787 -2.0056 -0.4516
  139OSM   H12G15230   1.295   1.311   7.571 -0.2980  1.0984 -0.1573
  139OSM   C13F15231   1.434   1.481   7.607 -0.2098 -0.0123 -0.1649
  139OSM   H13F15232   1.354   1.554   7.582 -1.3640 -1.6699 -1.5502
  139OSM   H13G15233   1.524   1.522   7.555 -0.9143 -2.4366 -3.6863
  139OSM   C14F15234   1.464   1.470   7.757 -0.3656  0.1234  0.2646
  139OSM   H14F15235   1.527   1.560   7.778 -1.0876  1.0872 -1.4569
  139OSM   H14G15236   1.524   1.377   7.763 -0.5443  0.0582  1.2533
  139OSM   C15F15237   1.341   1.467   7.855 -0.0616 -0.3973  0.3744
  139OSM   H15F15238   1.283   1.556   7.821  1.4787 -0.2674 -2.1586
  139OSM   H15G15239   1.373   1.490   7.959  0.1525 -0.4275  0.3144
  139OSM   C16F15240   1.277   1.330   7.858 -0.3617  0.0735  0.4661
  139OSM   H16F15241   1.368   1.267   7.870 -0.3982  0.3515  2.4854
  139OSM   H16G15242   1.234   1.304   7.759 -1.5143  0.6716  0.7985
  139OSM   C17F15243   1.170   1.288   7.960  0.1234 -0.7957  0.4259
  139OSM   H17F15244   1.067   1.325   7.940 -0.3511 -2.1331  0.2848
  139OSM   H17G15245   1.200   1.335   8.056 -0.5367  0.2189  0.1455
  139OSM   C18F15246   1.158   1.134   7.958  0.2860  0.4056  0.3218
  139OSM   H18F15247   1.090   1.086   8.032  0.1820  1.2502  0.7812
  139OSM   H18G15248   1.255   1.083   7.975 -0.3749 -0.9820  0.1000
  139OSM   H18H15249   1.128   1.089   7.861  2.2475 -0.0522 -0.1035
  140OSM      N15250   2.369   2.318   6.163 -0.1079 -0.0760  0.5558
  140OSM    C1515251   2.431   2.449   6.112  0.5707  0.1781  0.1572
  140OSM   H15A15252   2.397   2.526   6.180 -0.2300  0.0388 -0.0709
  140OSM   H15B15253   2.406   2.483   6.013  1.2349  1.2777  0.3460
  140OSM   H15C15254   2.537   2.446   6.131  0.7042 -0.3155 -0.6392
  140OSM    C1415255   2.220   2.315   6.136  0.0218  0.5311 -0.9437
  140OSM   H14A15256   2.201   2.313   6.029  0.7543  0.7126 -1.0811
  140OSM   H14B15257   2.169   2.399   6.180  0.5550  0.6274 -0.4983
  140OSM   H14C15258   2.178   2.221   6.168  0.7748 -0.1750 -1.9593
  140OSM    C1315259   2.424   2.205   6.095  0.0455 -0.2057 -1.1252
  140OSM   H13A15260   2.376   2.111   6.120  0.4650  0.3227  2.1299
  140OSM   H13B15261   2.525   2.198   6.132  0.4111  1.4703 -1.7191
  140OSM   H13C15262   2.416   2.212   5.987 -2.7028  0.3785 -0.9435
  140OSM    C1215263   2.385   2.300   6.318 -0.3361 -0.2007 -0.0720
  140OSM   H12A15264   2.341   2.206   6.347 -0.5175  0.1639  0.8786
  140OSM   H12B15265   2.324   2.376   6.366 -1.6700 -1.0083 -0.4440
  140OSM    C1115266   2.533   2.297   6.372 -0.2713  0.4638 -0.9489
  140OSM   H11A15267   2.586   2.212   6.324 -0.8121  0.0891 -0.8789
  140OSM   H11B15268   2.542   2.281   6.482  0.7592 -0.2031 -1.1143
  140OSM      P15269   2.740   2.446   6.322  0.0900 -0.2631  0.2439
  140OSM    O1315270   2.773   2.367   6.199 -0.1216  0.4680 -0.8152
  140OSM    O1415271   2.758   2.592   6.318  0.0341  0.4982  0.2755
  140OSM    O1115272   2.805   2.382   6.448 -0.7401 -0.3264  0.0735
  140OSM    O1215273   2.590   2.427   6.347  0.0523 -0.5811 -0.3221
  140OSM    C1S15274   2.811   2.462   6.567  0.0201  0.6850 -0.1058
  140OSM    H1S15275   2.715   2.515   6.587  0.2689  0.9149  0.4846
  140OSM    H1T15276   2.885   2.543   6.555 -0.3892  1.8742  3.9427
  140OSM     NF15277   2.857   2.490   6.800  0.7523 -0.1808 -0.0645
  140OSM    HNF15278   2.948   2.517   6.830  0.8050  0.6592 -0.9210
  140OSM    C2S15279   2.855   2.393   6.699 -0.2931 -0.5031  0.1481
  140OSM    H2S15280   2.771   2.324   6.723 -0.8548 -0.0407 -0.4660
  140OSM    C3S15281   2.983   2.310   6.676 -0.2583  0.5189 -0.1469
  140OSM    H3S15282   3.067   2.368   6.632  1.1230  1.3910  3.3676
  140OSM     O315283   2.953   2.204   6.582  0.1196  0.4621 -0.6776
  140OSM    HO315284   2.873   2.237   6.540  0.3903  0.6313 -1.0704
  140OSM    C4S15285   3.020   2.251   6.804 -0.2128 -0.1826  0.2429
  140OSM    H4S15286   2.974   2.153   6.823 -1.5444  0.5716  1.0394
  140OSM    C5S15287   3.104   2.302   6.899 -0.1806  0.1639  0.4253
  140OSM    H5S15288   3.168   2.387   6.874 -0.3010  0.2519  0.4125
  140OSM    C6S15289   3.137   2.235   7.034  0.4467 -0.1272 -0.1282
  140OSM    H6S15290   3.112   2.309   7.112 -0.0708 -2.7371  2.3430
  140OSM    H6T15291   3.243   2.204   7.042  0.6768  0.8728  1.0092
  140OSM    C7S15292   3.049   2.115   7.074 -0.2062 -0.1661  0.4524
  140OSM    H7S15293   3.074   2.036   7.000 -0.6485  0.7883 -0.7513
  140OSM    H7T15294   2.940   2.131   7.060  0.0662 -0.0314 -1.9113
  140OSM    C8S15295   3.086   2.045   7.199  0.0500 -1.0305 -0.1059
  140OSM    H8S15296   3.049   2.115   7.276 -0.5643 -0.8342 -0.5748
  140OSM    H8T15297   3.196   2.045   7.218  0.5045  1.0662 -2.2030
  140OSM    C9S15298   3.009   1.912   7.223 -0.7718  0.0335  0.1267
  140OSM    H9S15299   3.057   1.830   7.165 -2.4474 -1.1826  0.3750
  140OSM    H9T15300   2.910   1.931   7.175  0.1064  0.1794 -1.7265
  140OSM   C10S15301   3.006   1.877   7.369 -0.0428  0.1312  0.1615
  140OSM   H10S15302   2.954   1.781   7.390  0.2868 -0.3556 -1.1280
  140OSM   H10T15303   2.944   1.950   7.425  1.4083 -0.3415  2.4898
  140OSM   C11S15304   3.140   1.884   7.445 -0.3110 -0.7270 -0.3544
  140OSM   H11S15305   3.181   1.985   7.426  1.7618 -1.5876 -0.6908
  140OSM   H11T15306   3.204   1.800   7.411  1.0951 -0.7360  2.0881
  140OSM   C12S15307   3.129   1.874   7.596  0.2091 -0.1926 -0.9854
  140OSM   H12S15308   3.086   1.777   7.628 -1.6326  0.4035 -1.5282
  140OSM   H12T15309   3.063   1.954   7.635  0.1042  0.2027 -1.9427
  140OSM   C13S15310   3.254   1.894   7.678 -0.4228  0.5015 -0.2508
  140OSM   H13S15311   3.283   2.001   7.675  3.3623 -0.3649 -3.7548
  140OSM   H13T15312   3.338   1.842   7.626 -1.7336 -0.9136 -1.0434
  140OSM   C14S15313   3.241   1.849   7.820  0.1362 -0.1544 -0.5174
  140OSM   H14S15314   3.238   1.738   7.815  1.7077 -0.1855 -1.9801
  140OSM   H14T15315   3.152   1.884   7.875  0.4019  0.5906 -0.5551
  140OSM   C15S15316   3.365   1.895   7.910  0.0359  0.6630 -0.0425
  140OSM   H15S15317   3.393   2.002   7.896 -0.5528  0.6005 -2.1233
  140OSM   H15T15318   3.444   1.828   7.870 -1.0593 -2.2591  2.3710
  140OSM   C16S15319   3.350   1.870   8.061 -0.1188  0.1191  0.5113
  140OSM   H16S15320   3.334   1.760   8.070  0.5119  0.1442  2.3502
  140OSM   H16T15321   3.257   1.916   8.100 -0.0962 -0.3239  1.1154
  140OSM   C17S15322   3.475   1.918   8.138  0.0709  0.0662  0.5842
  140OSM   H17S15323   3.475   2.028   8.123 -0.5146  0.5479  3.5587
  140OSM   H17T15324   3.568   1.876   8.093 -0.6108  1.1897 -2.1226
  140OSM   C18S15325   3.465   1.891   8.288 -0.2201 -0.4199 -0.6080
  140OSM   H18S15326   3.434   1.786   8.308  0.1662 -0.1415  1.6383
  140OSM   H18T15327   3.398   1.958   8.345  0.8607  1.1642 -1.1318
  140OSM   H18U15328   3.564   1.899   8.337 -0.6614 -1.3046  0.4576
  140OSM    C1F15329   2.754   2.568   6.848 -0.2694  0.1266 -0.5067
  140OSM     OF15330   2.637   2.557   6.809  0.8384  0.4888  0.7507
  140OSM    C2F15331   2.793   2.688   6.932 -0.4960  0.1201  0.6375
  140OSM    H2F15332   2.749   2.781   6.892 -0.5949 -0.2389 -0.1236
  140OSM    H2G15333   2.903   2.697   6.915 -0.3661 -2.6638 -0.5395
  140OSM    C3F15334   2.770   2.670   7.085  0.0729  0.4423  0.1885
  140OSM    H3F15335   2.661   2.663   7.107 -0.2353  0.4709 -1.2380
  140OSM    H3G15336   2.802   2.766   7.130 -0.2234  0.1613  1.0135
  140OSM    C4F15337   2.858   2.557   7.141 -0.4257  0.0505  0.3013
  140OSM    H4F15338   2.939   2.595   7.206  1.0107  0.4350 -1.6298
  140OSM    H4G15339   2.908   2.497   7.062 -0.5119 -0.3071  0.5155
  140OSM    C5F15340   2.776   2.445   7.222 -0.6056  0.3392 -0.1572
  140OSM    H5F15341   2.701   2.492   7.288 -2.3860 -0.6751 -1.3798
  140OSM    H5G15342   2.851   2.400   7.291  0.5324  2.1512 -0.1362
  140OSM    C6F15343   2.695   2.348   7.136  0.1001  0.3703  0.2247
  140OSM    H6F15344   2.764   2.282   7.079  1.2425  1.1816  0.6301
  140OSM    H6G15345   2.639   2.409   7.062 -1.6392  0.5756  1.6475
  140OSM    C7F15346   2.596   2.258   7.214 -0.2954  0.2071  0.8126
  140OSM    H7F15347   2.531   2.319   7.281 -0.4129  1.8693 -0.7244
  140OSM    H7G15348   2.646   2.176   7.269  0.9650  0.0314 -0.5211
  140OSM    C8F15349   2.508   2.193   7.114  0.3831  0.0363  0.2322
  140OSM    H8F15350   2.480   2.271   7.040 -1.6988  0.5112  1.4461
  140OSM    H8G15351   2.411   2.163   7.159  0.4739 -1.8722 -0.7245
  140OSM    C9F15352   2.577   2.074   7.053 -0.4606  0.3138  0.3907
  140OSM    H9F15353   2.630   2.104   6.961  0.2947  1.8989  1.2880
  140OSM   C10F15354   2.586   1.948   7.102 -0.2498 -0.1944 -0.5874
  140OSM   H10F15355   2.634   1.878   7.033  1.7276  0.8627 -0.3612
  140OSM   C11F15356   2.539   1.889   7.231  0.4745  0.4266 -0.0302
  140OSM   H11F15357   2.496   1.790   7.205  1.1367  0.4364 -1.2003
  140OSM   H11G15358   2.460   1.950   7.281  0.4615  0.4757 -0.1095
  140OSM   C12F15359   2.659   1.846   7.320 -0.9387 -0.1020 -0.4765
  140OSM   H12F15360   2.711   1.944   7.326  0.0060 -0.6011 -0.3838
  140OSM   H12G15361   2.726   1.769   7.277 -1.4832  0.4255 -2.3704
  140OSM   C13F15362   2.623   1.801   7.466 -0.3298 -0.3161  0.2616
  140OSM   H13F15363   2.567   1.705   7.456  1.5981 -1.4109 -0.7799
  140OSM   H13G15364   2.541   1.855   7.517 -1.4787  0.1084 -1.8995
  140OSM   C14F15365   2.742   1.785   7.566 -0.8283 -0.2387  0.1113
  140OSM   H14F15366   2.808   1.874   7.575 -0.3050 -0.7819  1.9497
  140OSM   H14G15367   2.808   1.704   7.527 -2.6588 -2.4175  1.3163
  140OSM   C15F15368   2.695   1.738   7.709 -0.4643 -0.0105  0.3151
  140OSM   H15F15369   2.637   1.645   7.692 -0.0384  0.0472 -1.6601
  140OSM   H15G15370   2.640   1.822   7.758  1.3982  1.2310  0.3728
  140OSM   C16F15371   2.814   1.708   7.796  0.0829 -0.5460  0.6547
  140OSM   H16F15372   2.877   1.800   7.801 -1.6238  0.7175 -0.2721
  140OSM   H16G15373   2.876   1.635   7.739 -1.0911 -0.6804 -0.5008
  140OSM   C17F15374   2.782   1.670   7.940  0.3052  0.1476  0.4982
  140OSM   H17F15375   2.739   1.568   7.945 -0.2628  0.4334  1.8688
  140OSM   H17G15376   2.703   1.738   7.978  1.1825  0.4235  1.9137
  140OSM   C18F15377   2.904   1.677   8.026  0.0243  0.3640  0.1343
  140OSM   H18F15378   2.954   1.776   8.020 -0.4222  0.5551 -0.5435
  140OSM   H18G15379   2.983   1.610   7.988 -0.2400  0.3180 -0.3311
  140OSM   H18H15380   2.895   1.665   8.136 -2.1416  1.3823  0.1220
  141OSM      N15381   2.552   3.644   6.165 -0.3644  0.4716  0.5145
  141OSM    C1515382   2.575   3.573   6.299 -0.3422  0.1791  0.2784
  141OSM   H15A15383   2.494   3.509   6.331 -0.1766 -0.2728 -0.2095
  141OSM   H15B15384   2.622   3.634   6.376  0.3627 -1.7264  1.4217
  141OSM   H15C15385   2.651   3.501   6.276 -0.6877  0.3033 -1.4030
  141OSM    C1415386   2.673   3.703   6.111 -0.2865 -0.3322  0.0482
  141OSM   H14A15387   2.657   3.754   6.017 -2.3237 -1.6514 -0.3895
  141OSM   H14B15388   2.746   3.625   6.095  0.1735 -0.1695  1.2577
  141OSM   H14C15389   2.715   3.763   6.189  0.1682 -1.0909  0.3930
  141OSM    C1315390   2.512   3.550   6.055  0.1513 -0.0187 -0.5768
  141OSM   H13A15391   2.409   3.516   6.051  0.6305 -1.7358  0.5524
  141OSM   H13B15392   2.575   3.463   6.047  0.9666  0.5537 -0.5776
  141OSM   H13C15393   2.522   3.608   5.964 -0.6948  1.8596  0.4507
  141OSM    C1215394   2.443   3.748   6.175 -0.1372  0.2653  0.4563
  141OSM   H12A15395   2.431   3.788   6.076  1.0411 -3.2760 -1.2519
  141OSM   H12B15396   2.480   3.835   6.228  0.5596  0.7657 -0.8071
  141OSM    C1115397   2.306   3.718   6.240 -0.1828  0.2163  0.2693
  141OSM   H11A15398   2.257   3.817   6.229 -1.4348 -0.4069  0.1122
  141OSM   H11B15399   2.313   3.688   6.347 -1.2258 -0.1047  0.2569
  141OSM      P15400   2.170   3.490   6.212 -0.2258  0.1940 -0.1394
  141OSM    O1315401   2.059   3.445   6.129 -0.5370 -0.4102  0.6796
  141OSM    O1415402   2.278   3.388   6.237 -0.4217  0.2583  0.4027
  141OSM    O1115403   2.101   3.528   6.351  0.4980  0.2546 -0.0969
  141OSM    O1215404   2.226   3.629   6.157 -0.7632  0.3952 -0.5133
  141OSM    C1S15405   2.084   3.427   6.449 -0.9843 -0.5764 -0.0132
  141OSM    H1S15406   2.144   3.335   6.436  0.4436 -0.2846  3.3485
  141OSM    H1T15407   1.977   3.395   6.448 -1.0947 -0.2378  0.5900
  141OSM     NF15408   2.152   3.374   6.694  0.6466  0.0240 -0.0254
  141OSM    HNF15409   2.081   3.369   6.763 -2.4274  0.0366 -2.9081
  141OSM    C2S15410   2.129   3.480   6.594  0.2999  0.3109 -0.2007
  141OSM    H2S15411   2.223   3.536   6.576 -0.7960  1.9468 -1.1341
  141OSM    C3S15412   2.019   3.576   6.633 -0.0759 -0.1877 -0.1710
  141OSM    H3S15413   1.933   3.511   6.660  0.4200 -0.8874 -0.2567
  141OSM     O315414   1.973   3.668   6.529  0.7378 -0.2270  0.1833
  141OSM    HO315415   2.010   3.625   6.451  0.6059  1.9757 -1.1695
  141OSM    C4S15416   2.057   3.656   6.766  0.0127  0.9641  0.5946
  141OSM    H4S15417   2.004   3.608   6.850  1.8141 -2.7425 -0.1557
  141OSM    C5S15418   2.126   3.764   6.787 -0.9039 -0.6062  0.1014
  141OSM    H5S15419   2.145   3.814   6.691 -1.6249 -0.4439  0.0339
  141OSM    C6S15420   2.145   3.842   6.918  0.1102  0.1195 -0.0940
  141OSM    H6S15421   2.103   3.945   6.908  0.2005  0.1397 -0.2724
  141OSM    H6T15422   2.254   3.850   6.936  0.1831 -0.1810 -0.3932
  141OSM    C7S15423   2.082   3.772   7.044  0.2057 -0.8759 -0.8905
  141OSM    H7S15424   2.124   3.672   7.069  1.5291  0.3478  2.4170
  141OSM    H7T15425   1.976   3.762   7.012 -0.4421  1.4235  0.3157
  141OSM    C8S15426   2.101   3.864   7.172  0.1751 -0.5736  0.2209
  141OSM    H8S15427   2.038   3.954   7.153  1.9007  0.2940 -1.8974
  141OSM    H8T15428   2.199   3.917   7.171 -1.4891  2.8113  0.3346
  141OSM    C9S15429   2.049   3.794   7.312 -0.0286  0.1983  0.5982
  141OSM    H9S15430   2.088   3.690   7.318  0.1457  0.1329 -1.1926
  141OSM    H9T15431   1.939   3.779   7.304  0.1084 -0.7243  0.3135
  141OSM   C10S15432   2.075   3.874   7.440  0.1577 -0.7771  0.1135
  141OSM   H10S15433   2.016   3.966   7.423  0.3737 -0.8470 -1.1117
  141OSM   H10T15434   2.180   3.909   7.440 -0.6561  1.8117  0.5107
  141OSM   C11S15435   2.040   3.804   7.572 -0.0484  0.6638 -0.4258
  141OSM   H11S15436   2.118   3.726   7.586 -0.6679  0.0717 -0.1773
  141OSM   H11T15437   1.946   3.746   7.560  0.2770  0.1195 -0.3634
  141OSM   C12S15438   2.044   3.894   7.695 -0.4947 -0.5761  0.2931
  141OSM   H12S15439   1.973   3.978   7.677 -1.4780 -0.8775  2.4515
  141OSM   H12T15440   2.140   3.946   7.714 -2.6008  3.4782  1.1225
  141OSM   C13S15441   2.006   3.822   7.824 -0.2790  0.4269 -0.3524
  141OSM   H13S15442   2.095   3.769   7.863 -0.9542  0.1225  0.8301
  141OSM   H13T15443   1.915   3.760   7.809 -1.3809  1.5361  1.3205
  141OSM   C14S15444   1.937   3.916   7.920 -0.3905 -0.0117  0.1493
  141OSM   H14S15445   1.836   3.939   7.881 -0.5637 -2.4067 -1.0390
  141OSM   H14T15446   1.992   4.012   7.927 -1.4254  0.5694  0.4543
  141OSM   C15S15447   1.940   3.852   8.060 -0.2879 -0.1246  0.1765
  141OSM   H15S15448   2.048   3.827   8.061  0.0919 -0.1416 -5.6505
  141OSM   H15T15449   1.885   3.756   8.066 -3.0833  1.3824  0.1664
  141OSM   C16S15450   1.910   3.943   8.180 -0.0819 -0.6112 -0.0864
  141OSM   H16S15451   1.800   3.959   8.177 -0.1140 -0.8362 -3.0360
  141OSM   H16T15452   1.954   4.045   8.175 -1.8479  0.2858  1.3306
  141OSM   C17S15453   1.950   3.885   8.315 -0.1779 -0.6326 -0.0893
  141OSM   H17S15454   2.061   3.886   8.321 -0.2412  0.2280  1.8476
  141OSM   H17T15455   1.911   3.782   8.321 -1.5918 -0.1653 -0.8769
  141OSM   C18S15456   1.887   3.961   8.436  0.4392 -0.3370 -0.2991
  141OSM   H18S15457   1.931   3.926   8.532 -0.4720  2.0486  1.0987
  141OSM   H18T15458   1.776   3.959   8.428  0.3554 -2.4683  0.7407
  141OSM   H18U15459   1.919   4.068   8.438  2.5487 -0.9346  1.0725
  141OSM    C1F15460   2.259   3.293   6.698 -0.3611 -0.7060 -0.6062
  141OSM     OF15461   2.349   3.319   6.612  0.2676  0.4081  0.3552
  141OSM    C2F15462   2.249   3.170   6.784  0.4600 -0.2222 -0.7286
  141OSM    H2F15463   2.224   3.087   6.715  2.2687 -0.4976 -1.1047
  141OSM    H2G15464   2.166   3.177   6.858 -0.0437 -2.7858 -0.9584
  141OSM    C3F15465   2.388   3.147   6.847  0.6089 -0.4209 -0.0342
  141OSM    H3F15466   2.468   3.166   6.772  0.6722  2.3229  0.6155
  141OSM    H3G15467   2.401   3.050   6.899  0.2614 -0.6738 -0.4162
  141OSM    C4F15468   2.416   3.239   6.970  0.2651  0.7657 -0.2046
  141OSM    H4F15469   2.331   3.202   7.032 -1.3458  0.5114 -2.4279
  141OSM    H4G15470   2.390   3.340   6.933  0.6370  1.0317  0.2569
  141OSM    C5F15471   2.553   3.240   7.038 -0.4476  0.2898  0.4841
  141OSM    H5F15472   2.552   3.319   7.115  1.5410 -0.2895  1.1867
  141OSM    H5G15473   2.631   3.256   6.960 -1.9903  1.0974 -0.9410
  141OSM    C6F15474   2.592   3.110   7.107  0.0354  0.0813  1.1557
  141OSM    H6F15475   2.703   3.105   7.111  0.2334 -1.9073 -2.3274
  141OSM    H6G15476   2.571   3.022   7.042  1.1968  1.8240 -1.7413
  141OSM    C7F15477   2.535   3.086   7.246 -0.2430  0.6243 -0.3293
  141OSM    H7F15478   2.426   3.087   7.226 -0.2428  3.7449 -0.6153
  141OSM    H7G15479   2.566   3.163   7.320 -0.6827 -1.5205  2.2269
  141OSM    C8F15480   2.583   2.949   7.304 -0.0051  0.3907 -0.1566
  141OSM    H8F15481   2.557   2.869   7.232 -1.1858 -0.6901  1.4245
  141OSM    H8G15482   2.506   2.944   7.384 -0.4242  1.8149 -0.4337
  141OSM    C9F15483   2.728   2.945   7.346  0.3437  0.3801 -0.1516
  141OSM    H9F15484   2.797   2.958   7.262  1.6607 -0.2741  0.8021
  141OSM   C10F15485   2.779   2.902   7.463 -0.0942  0.3240  0.6842
  141OSM   H10F15486   2.888   2.889   7.470 -0.2697 -0.9672  1.3247
  141OSM   C11F15487   2.712   2.865   7.595 -0.0557 -0.0363 -0.0355
  141OSM   H11F15488   2.602   2.873   7.586 -0.1584  0.1755  1.2515
  141OSM   H11G15489   2.728   2.926   7.687 -2.0819  0.3821  0.0786
  141OSM   C12F15490   2.755   2.716   7.642 -0.7291  0.2897  0.3993
  141OSM   H12F15491   2.708   2.709   7.742 -0.5587  1.7687  0.6178
  141OSM   H12G15492   2.866   2.717   7.653 -0.4249 -0.2043 -2.0313
  141OSM   C13F15493   2.719   2.604   7.551  0.0826 -0.1958 -0.4188
  141OSM   H13F15494   2.772   2.623   7.455  1.9412  2.5815  1.0088
  141OSM   H13G15495   2.609   2.598   7.535 -0.1147 -0.5518  0.9795
  141OSM   C14F15496   2.759   2.465   7.608  0.1791  0.0407  0.3546
  141OSM   H14F15497   2.706   2.382   7.558 -2.7823  2.7902 -1.4728
  141OSM   H14G15498   2.733   2.464   7.716 -0.9431  2.1825  0.1782
  141OSM   C15F15499   2.916   2.437   7.604 -0.4010  0.3785 -0.6635
  141OSM   H15F15500   2.970   2.520   7.654 -0.1561 -0.4033  0.4169
  141OSM   H15G15501   2.948   2.437   7.498 -1.4473  1.3264 -1.0003
  141OSM   C16F15502   2.963   2.302   7.663  0.4083  0.2504  0.4148
  141OSM   H16F15503   2.894   2.218   7.637  0.7552 -0.8036  2.6706
  141OSM   H16G15504   2.973   2.312   7.773  2.3311 -1.1334  0.4112
  141OSM   C17F15505   3.102   2.257   7.606  0.6948  0.7636  0.1452
  141OSM   H17F15506   3.108   2.236   7.497  1.4274  1.8575 -0.0425
  141OSM   H17G15507   3.107   2.164   7.665 -1.2976 -0.1458 -1.0263
  141OSM   C18F15508   3.207   2.354   7.659  0.2810 -0.6458 -0.2427
  141OSM   H18F15509   3.192   2.443   7.595 -2.0879 -1.5859 -1.1257
  141OSM   H18G15510   3.310   2.315   7.640 -0.3878 -2.4105 -0.4068
  141OSM   H18H15511   3.201   2.380   7.766  1.9358 -0.5240 -0.1560
  142OSM      N15512   2.997   6.478   5.833 -0.8979  0.1939 -0.0571
  142OSM    C1515513   3.003   6.326   5.794 -0.2595 -0.1164  0.0154
  142OSM   H15A15514   3.053   6.265   5.868 -0.7807 -0.6924 -0.0991
  142OSM   H15B15515   3.032   6.294   5.695  0.2953  1.3346 -0.3100
  142OSM   H15C15516   2.902   6.290   5.808  0.4642 -1.5111  2.2692
  142OSM    C1415517   3.137   6.526   5.847  0.4033 -0.0310 -0.3168
  142OSM   H14A15518   3.192   6.541   5.756 -1.2027  0.5601 -1.2226
  142OSM   H14B15519   3.194   6.452   5.902  1.1721  0.0486 -0.9982
  142OSM   H14C15520   3.144   6.617   5.905 -0.2228 -0.8460  1.1150
  142OSM    C1315521   2.927   6.550   5.732  0.4821 -0.0002  0.2584
  142OSM   H13A15522   2.942   6.657   5.743 -0.1794  0.2154 -0.8507
  142OSM   H13B15523   2.823   6.524   5.723  0.0613  1.8758 -0.6974
  142OSM   H13C15524   2.968   6.521   5.637 -0.7852  2.9567 -1.3238
  142OSM    C1215525   2.927   6.496   5.969 -0.8017 -0.1454 -0.5578
  142OSM   H12A15526   2.827   6.456   5.959 -1.0974  0.2609  0.5542
  142OSM   H12B15527   2.918   6.602   5.987 -2.1973 -0.2317 -0.6257
  142OSM    C1115528   2.986   6.436   6.108  0.4330  0.0566  0.7794
  142OSM   H11A15529   2.929   6.478   6.194  0.2461  0.1778  0.5962
  142OSM   H11B15530   3.089   6.478   6.121  0.5100 -0.3786  1.6500
  142OSM      P15531   2.879   6.200   6.152 -0.5928 -0.0396 -0.5039
  142OSM    O1315532   2.757   6.282   6.172  0.2445  0.0690  0.1923
  142OSM    O1415533   2.864   6.083   6.066  0.0503  0.5064  0.7954
  142OSM    O1115534   2.932   6.155   6.300  0.0412 -0.0248  0.2932
  142OSM    O1215535   2.993   6.293   6.100  0.3918  0.5226 -0.1357
  142OSM    C1S15536   3.005   6.232   6.393 -0.0555 -0.2824  0.2211
  142OSM    H1S15537   3.090   6.282   6.343 -0.8155  0.0403 -0.7658
  142OSM    H1T15538   3.053   6.167   6.470 -0.8431 -1.1378  0.0134
  142OSM     NF15539   3.015   6.398   6.580  0.5025 -0.9050  0.2506
  142OSM    HNF15540   3.009   6.368   6.675  1.9771  0.6790  0.8978
  142OSM    C2S15541   2.926   6.323   6.483 -0.4086 -0.5559  0.3564
  142OSM    H2S15542   2.879   6.393   6.411  0.3876 -0.8488 -0.4653
  142OSM    C3S15543   2.814   6.238   6.557 -0.0883 -0.0703 -0.2198
  142OSM    H3S15544   2.867   6.164   6.622  1.7519  1.1658 -0.2258
  142OSM     O315545   2.743   6.154   6.469  0.2999 -0.2852  0.2072
  142OSM    HO315546   2.799   6.147   6.392 -1.0270  3.0431 -1.2275
  142OSM    C4S15547   2.719   6.326   6.632 -0.4455  0.0074 -0.2520
  142OSM    H4S15548   2.632   6.361   6.575 -1.0845 -1.5814 -0.2963
  142OSM    C5S15549   2.726   6.361   6.763  0.0582  0.3134 -0.5451
  142OSM    H5S15550   2.806   6.315   6.823 -0.1719  0.1636 -0.3495
  142OSM    C6S15551   2.625   6.441   6.837  0.7968 -0.5484  0.4592
  142OSM    H6S15552   2.530   6.464   6.784 -1.2226  2.0494  4.6403
  142OSM    H6T15553   2.676   6.538   6.859  2.1532 -1.4389  1.3550
  142OSM    C7S15554   2.594   6.361   6.963  0.4770  0.3606 -0.1901
  142OSM    H7S15555   2.681   6.339   7.028 -0.2073 -1.7455  0.0729
  142OSM    H7T15556   2.555   6.259   6.944  1.1799 -0.8294  3.8862
  142OSM    C8S15557   2.483   6.420   7.050 -0.5783  0.7538 -0.1352
  142OSM    H8S15558   2.393   6.433   6.987  0.8090  1.0295 -2.1803
  142OSM    H8T15559   2.507   6.520   7.093 -4.7695  3.2224 -2.8749
  142OSM    C9S15560   2.447   6.337   7.174  0.0270  0.4620 -0.3012
  142OSM    H9S15561   2.545   6.302   7.213 -0.5847 -0.5376  0.3711
  142OSM    H9T15562   2.374   6.256   7.154  0.9465 -0.5455  0.3132
  142OSM   C10S15563   2.378   6.414   7.281 -0.1516 -0.2813 -0.5279
  142OSM   H10S15564   2.280   6.443   7.239  0.7502  0.1190 -2.4761
  142OSM   H10T15565   2.442   6.505   7.290  1.0174 -1.0112 -1.1467
  142OSM   C11S15566   2.383   6.348   7.418  0.1050  0.1117  0.2359
  142OSM   H11S15567   2.488   6.343   7.453  0.4669  0.0193 -0.8287
  142OSM   H11T15568   2.333   6.248   7.416 -0.9279  0.5164  2.7255
  142OSM   C12S15569   2.319   6.422   7.534  0.0658 -0.0350 -0.1018
  142OSM   H12S15570   2.216   6.447   7.499 -1.1707 -2.6824  1.3629
  142OSM   H12T15571   2.378   6.511   7.566  0.5617 -0.3358 -0.1740
  142OSM   C13S15572   2.305   6.341   7.663  0.6467  0.7986  1.3590
  142OSM   H13S15573   2.394   6.275   7.667  0.3915  0.0843 -1.9553
  142OSM   H13T15574   2.231   6.261   7.641  2.6184 -0.2882 -2.2538
  142OSM   C14S15575   2.287   6.419   7.787 -1.2925  0.1990  0.4552
  142OSM   H14S15576   2.193   6.478   7.782  0.2584  2.7890 -0.0049
  142OSM   H14T15577   2.368   6.494   7.795 -1.2225  0.0647  1.0441
  142OSM   C15S15578   2.279   6.331   7.917  0.0317 -0.3548  0.4919
  142OSM   H15S15579   2.384   6.304   7.944  0.5564 -1.1454 -2.0147
  142OSM   H15T15580   2.220   6.241   7.891  1.3599 -0.8516 -1.0385
  142OSM   C16S15581   2.213   6.410   8.028 -0.8895 -0.0235 -0.2558
  142OSM   H16S15582   2.105   6.430   8.012 -0.3404  2.0144 -1.9074
  142OSM   H16T15583   2.273   6.503   8.042  0.1239 -0.7833  0.6079
  142OSM   C17S15584   2.218   6.328   8.160  0.0781 -0.0574  0.3006
  142OSM   H17S15585   2.194   6.223   8.129  1.1651  0.1283 -1.2853
  142OSM   H17T15586   2.140   6.357   8.233 -0.9938  1.9858 -1.5538
  142OSM   C18S15587   2.353   6.325   8.228  0.1344  0.1076 -0.6288
  142OSM   H18S15588   2.349   6.254   8.314  1.4299 -1.8519 -2.1045
  142OSM   H18T15589   2.395   6.424   8.255 -0.8012  0.9693 -2.1902
  142OSM   H18U15590   2.430   6.275   8.166  0.3188  1.7531 -1.7545
  142OSM    C1F15591   3.109   6.492   6.541 -0.2488  0.0353 -0.5856
  142OSM     OF15592   3.105   6.529   6.426 -0.2507 -0.4491 -0.0605
  142OSM    C2F15593   3.214   6.539   6.648  0.1145  0.4355  0.0052
  142OSM    H2F15594   3.195   6.646   6.670 -2.4403 -0.0691  0.6191
  142OSM    H2G15595   3.310   6.531   6.593  0.7064  1.2108  0.8922
  142OSM    C3F15596   3.219   6.471   6.786  0.1734 -0.2710  0.4260
  142OSM    H3F15597   3.313   6.502   6.837  1.2676 -0.8964 -1.1103
  142OSM    H3G15598   3.230   6.361   6.780 -2.6420 -0.5239 -2.3999
  142OSM    C4F15599   3.095   6.501   6.874  0.9308 -0.2897  0.5065
  142OSM    H4F15600   3.107   6.426   6.956 -0.5174  0.1014  1.1055
  142OSM    H4G15601   2.999   6.479   6.823  0.5327  3.3618 -0.5644
  142OSM    C5F15602   3.072   6.641   6.923 -0.0564 -0.3506 -0.5800
  142OSM    H5F15603   3.044   6.706   6.838  1.5036  0.7224 -0.3337
  142OSM    H5G15604   3.156   6.687   6.981 -0.4556  0.5468 -0.7093
  142OSM    C6F15605   2.950   6.640   7.021 -0.2835  0.2988  0.9722
  142OSM    H6F15606   2.883   6.561   6.979  0.4572  1.5479 -3.0545
  142OSM    H6G15607   2.885   6.730   7.022 -1.3084 -0.3996  0.2123
  142OSM    C7F15608   2.986   6.611   7.164 -0.2624  0.1732 -0.3930
  142OSM    H7F15609   3.073   6.676   7.190  1.1400 -0.0752 -3.9312
  142OSM    H7G15610   3.010   6.504   7.180  3.0541  0.6293 -1.5934
  142OSM    C8F15611   2.885   6.662   7.270  0.5390 -0.4670  0.0128
  142OSM    H8F15612   2.839   6.757   7.236 -1.3479 -1.5906 -0.7100
  142OSM    H8G15613   2.934   6.673   7.369 -0.7117 -1.5790  0.7871
  142OSM    C9F15614   2.786   6.557   7.279 -0.0743  0.8486 -0.4429
  142OSM    H9F15615   2.728   6.538   7.187 -1.8718 -0.9884  0.9524
  142OSM   C10F15616   2.750   6.477   7.379 -0.3659 -0.7518  0.0468
  142OSM   H10F15617   2.657   6.418   7.373 -0.0056 -1.2827 -0.6742
  142OSM   C11F15618   2.812   6.482   7.518  0.0232 -0.3177  0.7526
  142OSM   H11F15619   2.853   6.582   7.542 -1.2511 -0.2464  2.8728
  142OSM   H11G15620   2.891   6.404   7.521  0.4456  0.0252 -0.5674
  142OSM   C12F15621   2.711   6.435   7.620 -0.2296 -0.2581  0.1525
  142OSM   H12F15622   2.678   6.329   7.609 -1.0019  0.0104 -0.1948
  142OSM   H12G15623   2.619   6.497   7.630  0.7017  1.1014  0.4815
  142OSM   C13F15624   2.775   6.424   7.757 -0.6009  0.2713 -0.1846
  142OSM   H13F15625   2.795   6.526   7.795 -0.5676  0.7425 -1.4255
  142OSM   H13G15626   2.868   6.364   7.747  0.4731  1.9290 -0.3775
  142OSM   C14F15627   2.686   6.349   7.861 -0.4953  0.3945 -0.6531
  142OSM   H14F15628   2.669   6.243   7.834 -2.1572  0.7189 -0.9610
  142OSM   H14G15629   2.583   6.391   7.867 -0.0596  1.4175  0.0570
  142OSM   C15F15630   2.748   6.345   7.999  0.0011  0.2257  0.4054
  142OSM   H15F15631   2.856   6.370   7.989  0.0357 -0.7547 -3.4192
  142OSM   H15G15632   2.755   6.236   8.024 -0.5039  0.1213  0.1022
  142OSM   C16F15633   2.683   6.431   8.098  0.1967  0.2795 -0.1712
  142OSM   H16F15634   2.576   6.403   8.111 -0.2557  1.8449 -0.2941
  142OSM   H16G15635   2.670   6.535   8.060 -2.6325 -0.6098 -1.9561
  142OSM   C17F15636   2.754   6.419   8.242 -0.1494  0.4395  0.6647
  142OSM   H17F15637   2.863   6.420   8.222 -0.4117 -0.9460 -1.0430
  142OSM   H17G15638   2.732   6.318   8.282 -2.0740  1.8956  3.7327
  142OSM   C18F15639   2.701   6.523   8.336  0.3469 -0.2222 -0.0050
  142OSM   H18F15640   2.714   6.629   8.307 -0.7801  0.8424  3.0330
  142OSM   H18G15641   2.753   6.514   8.434 -0.1386  1.2548  0.4033
  142OSM   H18H15642   2.596   6.497   8.362  0.4522  0.2099  0.9084
  143OSM      N15643   3.973   1.577   5.694  0.4949 -0.3995 -0.3576
  143OSM    C1515644   3.934   1.729   5.700 -0.5256 -0.5728 -0.2194
  143OSM   H15A15645   3.991   1.775   5.779 -1.0991 -0.7344  0.2997
  143OSM   H15B15646   3.831   1.750   5.728  0.0301 -0.4033  1.8292
  143OSM   H15C15647   3.960   1.774   5.606  3.1178  0.3528  1.0798
  143OSM    C1415648   3.906   1.509   5.575 -0.4478 -0.4232 -0.1222
  143OSM   H14A15649   3.800   1.506   5.599 -0.8578 -0.9263 -1.8122
  143OSM   H14B15650   3.940   1.407   5.571  3.1853  0.6258  0.2971
  143OSM   H14C15651   3.922   1.561   5.481  0.7662  0.3942  0.5171
  143OSM    C1315652   4.122   1.562   5.693 -0.1403  0.4026  0.4279
  143OSM   H13A15653   4.150   1.458   5.687 -1.5098 -0.1398  2.4376
  143OSM   H13B15654   4.168   1.615   5.775  0.9877 -1.5466  1.0889
  143OSM   H13C15655   4.160   1.607   5.602  0.6366 -1.2180 -0.0763
  143OSM    C1215656   3.907   1.514   5.822 -0.1171  0.1923 -0.1325
  143OSM   H12A15657   3.899   1.409   5.801  0.0828  0.8538 -4.2089
  143OSM   H12B15658   3.808   1.548   5.848  0.6144 -0.2534  4.1169
  143OSM    C1115659   3.986   1.516   5.956 -0.6827 -0.3167  0.2839
  143OSM   H11A15660   4.065   1.439   5.948 -0.7853 -0.5507  1.3480
  143OSM   H11B15661   3.927   1.483   6.044 -0.8385  0.8860  0.6557
  143OSM      P15662   3.987   1.739   6.099  0.2877  0.0843  0.0903
  143OSM    O1315663   4.060   1.862   6.082 -0.1854  0.2471  0.3939
  143OSM    O1415664   3.842   1.750   6.090  0.0587  0.7308  0.2210
  143OSM    O1115665   4.013   1.663   6.238 -0.3027  0.1304  0.0127
  143OSM    O1215666   4.041   1.647   5.981 -0.5851 -0.2823 -0.1675
  143OSM    C1S15667   4.146   1.642   6.286  0.0510 -0.2101 -0.1941
  143OSM    H1S15668   4.192   1.738   6.316 -1.1036  0.0523  0.8345
  143OSM    H1T15669   4.215   1.609   6.206  2.0802 -1.2942  1.8881
  143OSM     NF15670   4.256   1.593   6.510 -0.2641  0.2099  0.6988
  143OSM    HNF15671   4.337   1.536   6.521  0.7095  1.1101 -1.2970
  143OSM    C2S15672   4.149   1.559   6.416 -0.0777  0.1400 -0.3182
  143OSM    H2S15673   4.057   1.591   6.470  0.1984 -0.8125  0.7580
  143OSM    C3S15674   4.139   1.409   6.374  0.3428 -0.3880 -0.2594
  143OSM    H3S15675   4.218   1.367   6.309  0.3918 -2.2981  0.9538
  143OSM     O315676   4.020   1.380   6.306  0.5346  0.2139 -0.1958
  143OSM    HO315677   3.990   1.470   6.290 -1.9735 -0.3814  0.6981
  143OSM    C4S15678   4.138   1.331   6.496  0.0473 -0.5600 -0.4272
  143OSM    H4S15679   4.042   1.340   6.550 -1.1041 -2.8230 -1.9554
  143OSM    C5S15680   4.237   1.264   6.555  0.7013  0.6883  0.4265
  143OSM    H5S15681   4.337   1.243   6.514  0.1626  0.2583 -0.7056
  143OSM    C6S15682   4.215   1.186   6.684 -0.3020 -0.1328  0.6796
  143OSM    H6S15683   4.252   1.083   6.669 -0.0451 -0.1404  1.3521
  143OSM    H6T15684   4.106   1.187   6.708 -1.0497  1.5281 -2.2438
  143OSM    C7S15685   4.290   1.248   6.801 -0.0925 -0.1392 -0.4145
  143OSM    H7S15686   4.389   1.296   6.781  0.2242 -0.7514 -0.3277
  143OSM    H7T15687   4.305   1.167   6.875  0.3052  0.2909 -0.0194
  143OSM    C8S15688   4.203   1.356   6.865  0.0238  0.3132  0.2113
  143OSM    H8S15689   4.113   1.307   6.909 -0.2390 -0.2225 -0.9041
  143OSM    H8T15690   4.168   1.427   6.786  1.9194 -1.0158 -1.9304
  143OSM    C9S15691   4.282   1.436   6.972  0.2450  0.1957  0.2898
  143OSM    H9S15692   4.210   1.515   7.004  0.3754 -0.1246  1.3929
  143OSM    H9T15693   4.368   1.479   6.917 -0.3081  1.3041  0.2583
  143OSM   C10S15694   4.340   1.356   7.084  0.4831  0.3885 -0.0298
  143OSM   H10S15695   4.420   1.406   7.143  0.0393 -0.2191  1.1248
  143OSM   H10T15696   4.398   1.269   7.045  0.0464 -0.2956  0.7895
  143OSM   C11S15697   4.238   1.305   7.184 -0.0408 -0.9890  0.0183
  143OSM   H11S15698   4.161   1.238   7.141  0.3024 -2.5762  1.7332
  143OSM   H11T15699   4.186   1.392   7.229  0.9868 -0.1997 -0.2959
  143OSM   C12S15700   4.301   1.224   7.304  0.3529  0.4271  0.3313
  143OSM   H12S15701   4.348   1.135   7.257 -1.7510 -0.1928 -0.7270
  143OSM   H12T15702   4.207   1.176   7.341  1.0705 -1.7797 -0.5211
  143OSM   C13S15703   4.371   1.310   7.406  0.4275 -0.0538 -0.1745
  143OSM   H13S15704   4.307   1.396   7.435  1.7820  0.6007  0.9852
  143OSM   H13T15705   4.458   1.361   7.359  0.9410  0.5809  1.4031
  143OSM   C14S15706   4.415   1.231   7.533 -0.2527  0.0216 -0.5010
  143OSM   H14S15707   4.509   1.270   7.577 -0.5830 -1.8444  2.0943
  143OSM   H14T15708   4.446   1.131   7.495 -0.2204  0.2192 -1.0099
  143OSM   C15S15709   4.304   1.237   7.633  0.3973  0.0818  0.4926
  143OSM   H15S15710   4.211   1.204   7.582  0.8379  1.1222 -1.0580
  143OSM   H15T15711   4.287   1.344   7.657 -1.2667 -0.2012  0.6927
  143OSM   C16S15712   4.341   1.160   7.761  0.5509 -0.5034  0.0123
  143OSM   H16S15713   4.413   1.222   7.819  1.2961 -0.1528 -1.2467
  143OSM   H16T15714   4.399   1.071   7.728 -0.6362 -1.0570 -0.6338
  143OSM   C17S15715   4.216   1.106   7.851 -0.4888  0.2481  0.6041
  143OSM   H17S15716   4.253   1.018   7.908  1.2981 -0.6379 -1.7419
  143OSM   H17T15717   4.144   1.069   7.775  1.0784  1.2897 -1.4639
  143OSM   C18S15718   4.144   1.210   7.929  0.0054 -0.7248  0.3387
  143OSM   H18S15719   4.216   1.259   7.999 -1.9089  0.5778  1.5057
  143OSM   H18T15720   4.062   1.177   7.996  0.6503 -0.8567  1.0827
  143OSM   H18U15721   4.099   1.283   7.859 -2.5718 -0.2945  2.2840
  143OSM    C1F15722   4.256   1.711   6.570  0.0853 -0.1941 -0.0877
  143OSM     OF15723   4.156   1.784   6.564 -0.5066 -0.6421  0.4687
  143OSM    C2F15724   4.372   1.745   6.650 -0.0415 -0.3062 -0.1928
  143OSM    H2F15725   4.432   1.819   6.593  0.9340 -2.0340 -1.4993
  143OSM    H2G15726   4.441   1.658   6.654  0.1286 -0.2509 -1.4745
  143OSM    C3F15727   4.334   1.799   6.792  0.0685  0.1838 -0.5449
  143OSM    H3F15728   4.291   1.717   6.853  0.4893  1.3450  1.4336
  143OSM    H3G15729   4.259   1.881   6.791  0.0018  0.2637  2.2989
  143OSM    C4F15730   4.466   1.842   6.865  0.0497  0.4749  0.7610
  143OSM    H4F15731   4.513   1.919   6.800  0.0913  1.6936  2.1963
  143OSM    H4G15732   4.529   1.751   6.871 -0.1971  0.3705  2.1933
  143OSM    C5F15733   4.446   1.897   7.005 -0.3248 -0.8592  0.2003
  143OSM    H5F15734   4.390   1.993   7.006  1.1235  0.0113  0.3649
  143OSM    H5G15735   4.547   1.921   7.046 -1.1078  0.0986  1.6567
  143OSM    C6F15736   4.375   1.798   7.099 -0.4249 -0.2149  0.5054
  143OSM    H6F15737   4.419   1.702   7.065 -1.0286 -0.8321  1.4012
  143OSM    H6G15738   4.265   1.800   7.079 -0.2302  0.8941 -0.5124
  143OSM    C7F15739   4.400   1.812   7.248 -0.1582  0.2566 -0.4708
  143OSM    H7F15740   4.368   1.909   7.291  0.4620 -0.2490  1.2062
  143OSM    H7G15741   4.511   1.811   7.261  0.0530 -0.8488 -2.0498
  143OSM    C8F15742   4.340   1.696   7.328 -0.0160 -0.6420 -0.0324
  143OSM    H8F15743   4.361   1.722   7.434 -0.2216  0.9015 -0.3513
  143OSM    H8G15744   4.389   1.597   7.314  0.2076 -0.2706 -2.0942
  143OSM    C9F15745   4.193   1.684   7.296 -0.1266 -0.2893  1.0110
  143OSM    H9F15746   4.160   1.631   7.206  1.8550 -1.8674  1.1535
  143OSM   C10F15747   4.100   1.741   7.373 -0.8890  0.9635  0.6663
  143OSM   H10F15748   3.993   1.723   7.356 -0.6903  1.2167 -1.0194
  143OSM   C11F15749   4.119   1.835   7.491 -0.3778  0.1107 -0.5512
  143OSM   H11F15750   4.026   1.893   7.509  0.0837  0.0589  2.5796
  143OSM   H11G15751   4.196   1.915   7.481 -0.1994  0.4751  2.6139
  143OSM   C12F15752   4.161   1.777   7.635  0.1896 -0.5968  0.6359
  143OSM   H12F15753   4.163   1.864   7.704 -3.2649  0.9690 -0.9840
  143OSM   H12G15754   4.261   1.730   7.619  0.8321  0.4304  1.4864
  143OSM   C13F15755   4.058   1.683   7.691  0.5422 -0.4665 -0.3977
  143OSM   H13F15756   4.023   1.608   7.617 -0.6091 -0.8032  0.4696
  143OSM   H13G15757   3.970   1.735   7.733  0.0841  0.3150 -2.1959
  143OSM   C14F15758   4.116   1.601   7.815 -0.1522  1.0274  0.6554
  143OSM   H14F15759   4.191   1.530   7.775 -0.5019  1.4014 -0.7293
  143OSM   H14G15760   4.038   1.535   7.858  0.9274 -2.0370 -1.7308
  143OSM   C15F15761   4.181   1.683   7.920  0.1507 -0.9331  0.3588
  143OSM   H15F15762   4.108   1.756   7.963 -0.1373 -1.6575  1.1396
  143OSM   H15G15763   4.272   1.726   7.873 -0.4208 -1.1754 -1.0085
  143OSM   C16F15764   4.238   1.598   8.040  0.4830  0.1320 -0.2701
  143OSM   H16F15765   4.298   1.510   8.009 -1.7870 -1.7475  0.3954
  143OSM   H16G15766   4.152   1.557   8.096  1.3075 -3.7589 -1.5570
  143OSM   C17F15767   4.318   1.688   8.138 -0.4108 -0.0168 -0.4028
  143OSM   H17F15768   4.419   1.689   8.092 -0.7737  1.9114 -1.2619
  143OSM   H17G15769   4.332   1.631   8.233 -1.3090 -2.2271 -1.5484
  143OSM   C18F15770   4.274   1.828   8.155 -0.4343 -0.4807  0.3465
  143OSM   H18F15771   4.321   1.862   8.250 -1.1663  0.5157  0.3714
  143OSM   H18G15772   4.166   1.857   8.158 -0.3360  0.4509 -2.4623
  143OSM   H18H15773   4.319   1.889   8.074 -1.6527  0.3698  0.2745
  144OSM      N15774   1.886   1.625   6.404  0.0386  0.0647 -0.2963
  144OSM    C1515775   1.852   1.727   6.297 -0.3696 -0.0194  0.0844
  144OSM   H15A15776   1.746   1.745   6.285 -0.6454 -2.3189 -1.3646
  144OSM   H15B15777   1.881   1.698   6.198 -1.1294 -0.8674  0.0979
  144OSM   H15C15778   1.902   1.816   6.332 -0.9944  0.3455  0.0691
  144OSM    C1415779   1.817   1.659   6.537 -0.1097  0.8068  0.9988
  144OSM   H14A15780   1.807   1.569   6.595 -0.6811 -0.2918 -0.7105
  144OSM   H14B15781   1.716   1.697   6.528 -0.1139  1.0262  1.9323
  144OSM   H14C15782   1.871   1.725   6.603 -0.3572 -0.3647  2.4123
  144OSM    C1315783   1.835   1.497   6.353 -0.2930  1.0739  0.1051
  144OSM   H13A15784   1.737   1.505   6.308 -0.6692  1.7195  1.0174
  144OSM   H13B15785   1.812   1.435   6.438 -0.2858 -0.2982 -0.8641
  144OSM   H13C15786   1.896   1.442   6.284 -1.0206  1.1296 -0.6005
  144OSM    C1215787   2.035   1.622   6.427 -0.3363  0.1865  0.0595
  144OSM   H12A15788   2.078   1.599   6.331 -1.0214 -2.0624  0.2421
  144OSM   H12B15789   2.063   1.542   6.494 -1.4237  1.3784  2.0084
  144OSM    C1115790   2.102   1.752   6.471 -0.7648  0.4442 -0.0322
  144OSM   H11A15791   2.211   1.741   6.490 -0.6645 -0.1197 -0.8660
  144OSM   H11B15792   2.057   1.776   6.569 -0.1121 -1.7090  0.8486
  144OSM      P15793   2.200   1.903   6.276 -0.5078  0.3094  0.3168
  144OSM    O1315794   2.273   1.776   6.237  0.0681 -0.4624 -0.3895
  144OSM    O1415795   2.136   1.979   6.164  0.0166 -0.1356 -0.2749
  144OSM    O1115796   2.291   1.996   6.370  0.3356  0.7605  0.1989
  144OSM    O1215797   2.086   1.855   6.381 -0.5449  0.3044 -0.2990
  144OSM    C1S15798   2.269   2.021   6.515  0.0651 -0.2813  0.3526
  144OSM    H1S15799   2.164   2.008   6.549  0.2548 -0.8413  0.7385
  144OSM    H1T15800   2.288   2.127   6.544  0.8276 -0.3410  0.0947
  144OSM     NF15801   2.340   1.995   6.744 -0.8995  0.6126  0.2439
  144OSM    HNF15802   2.399   2.064   6.787  0.8587 -1.5506  1.5046
  144OSM    C2S15803   2.371   1.953   6.610  0.2283 -0.2919 -0.0019
  144OSM    H2S15804   2.368   1.842   6.607  0.4046 -0.2831 -0.8210
  144OSM    C3S15805   2.514   1.988   6.562  0.1936 -0.3567  0.5250
  144OSM    H3S15806   2.535   2.097   6.563  3.0616 -0.7391 -2.4923
  144OSM     O315807   2.537   1.952   6.426 -0.5319 -0.6357  0.5310
  144OSM    HO315808   2.447   1.944   6.396  0.4010  0.1334 -2.9425
  144OSM    C4S15809   2.624   1.935   6.651 -0.4489  0.0090  0.0978
  144OSM    H4S15810   2.683   2.012   6.702  1.2062 -0.5177 -0.9371
  144OSM    C5S15811   2.662   1.806   6.681 -0.5965  0.0506  0.2031
  144OSM    H5S15812   2.596   1.727   6.641 -1.1875  1.0138 -0.7591
  144OSM    C6S15813   2.770   1.754   6.769 -0.2595  0.0755 -0.1147
  144OSM    H6S15814   2.811   1.825   6.843 -0.9653  0.3649  0.0044
  144OSM    H6T15815   2.850   1.703   6.712 -1.3859 -0.2083 -1.5094
  144OSM    C7S15816   2.701   1.644   6.849 -0.1617 -0.0170 -0.3670
  144OSM    H7S15817   2.676   1.558   6.784  0.7788 -0.7108  0.1682
  144OSM    H7T15818   2.605   1.669   6.900 -0.6840  1.1857 -1.8441
  144OSM    C8S15819   2.801   1.608   6.956 -0.4309 -0.4009  0.0542
  144OSM    H8S15820   2.832   1.702   7.006 -1.6130  1.0804 -1.8608
  144OSM    H8T15821   2.885   1.551   6.911 -1.0029 -1.4616  0.2760
  144OSM    C9S15822   2.731   1.513   7.069  0.0785  0.0227  0.0028
  144OSM    H9S15823   2.710   1.413   7.027  0.6111 -0.8458  1.7348
  144OSM    H9T15824   2.644   1.562   7.118  0.1715  1.1115 -0.8636
  144OSM   C10S15825   2.831   1.489   7.176 -0.3384  0.5000 -0.3564
  144OSM   H10S15826   2.857   1.584   7.227 -1.0459 -0.3802  1.7270
  144OSM   H10T15827   2.923   1.440   7.137 -0.3288  0.7934 -0.7073
  144OSM   C11S15828   2.765   1.393   7.287 -0.0368  0.0508 -0.1573
  144OSM   H11S15829   2.764   1.287   7.256  1.4452  0.0839 -0.3958
  144OSM   H11T15830   2.660   1.427   7.297 -1.0324 -1.4701 -3.7653
  144OSM   C12S15831   2.822   1.408   7.431 -0.2757 -0.1692  0.3291
  144OSM   H12S15832   2.818   1.516   7.456 -1.7037 -0.2895  0.6880
  144OSM   H12T15833   2.924   1.367   7.447  0.9483  2.6305  0.3565
  144OSM   C13S15834   2.731   1.352   7.541  0.2568  0.5526 -0.0195
  144OSM   H13S15835   2.688   1.258   7.502 -2.1060  1.4220  0.3017
  144OSM   H13T15836   2.644   1.419   7.558 -1.9585 -2.5932  2.2400
  144OSM   C14S15837   2.787   1.327   7.685  0.1019  0.6475  0.1145
  144OSM   H14S15838   2.829   1.419   7.731  1.3065  1.0522 -1.6894
  144OSM   H14T15839   2.873   1.256   7.682 -0.0142  0.5418 -1.1248
  144OSM   C15S15840   2.680   1.278   7.786  0.0295 -0.3292  0.4087
  144OSM   H15S15841   2.624   1.186   7.759 -1.0590  0.2696  0.5885
  144OSM   H15T15842   2.611   1.365   7.791  0.5254  0.0903  0.0542
  144OSM   C16S15843   2.734   1.252   7.927 -0.4429  0.1394  0.1138
  144OSM   H16S15844   2.738   1.347   7.985 -0.4664 -0.4046  1.0238
  144OSM   H16T15845   2.837   1.211   7.917 -0.4207  0.0112  0.8025
  144OSM   C17S15846   2.649   1.152   8.004 -0.2983 -0.3038  0.8762
  144OSM   H17S15847   2.678   1.177   8.108 -0.5790  0.3285  0.8083
  144OSM   H17T15848   2.681   1.048   7.981  1.4658  0.6571 -1.3961
  144OSM   C18S15849   2.490   1.158   7.994 -0.1316 -0.6005 -0.4119
  144OSM   H18S15850   2.437   1.083   8.056 -1.2572 -1.3046 -2.1408
  144OSM   H18T15851   2.459   1.133   7.890 -1.6904 -3.3928  0.6334
  144OSM   H18U15852   2.446   1.259   8.009 -0.4837 -0.4146 -2.3303
  144OSM    C1F15853   2.238   1.959   6.816 -0.4132 -0.4003  0.9122
  144OSM     OF15854   2.175   1.860   6.784  0.2323 -0.3065 -0.2458
  144OSM    C2F15855   2.213   2.043   6.934 -0.5483  0.5829 -0.4258
  144OSM    H2F15856   2.226   2.151   6.908  0.0137  0.6694  0.1902
  144OSM    H2G15857   2.297   2.014   7.000 -0.7924 -1.9797 -1.1431
  144OSM    C3F15858   2.074   2.029   7.000  0.5731  0.5893 -0.0147
  144OSM    H3F15859   2.048   1.921   7.006 -0.6951  0.9057  0.4453
  144OSM    H3G15860   1.990   2.070   6.941 -0.1886 -0.5941  0.2153
  144OSM    C4F15861   2.088   2.085   7.144  0.7593  0.4626  0.3638
  144OSM    H4F15862   1.990   2.127   7.175 -0.4674 -1.2989 -0.9640
  144OSM    H4G15863   2.153   2.175   7.143  0.6852  0.5059 -0.5009
  144OSM    C5F15864   2.161   1.988   7.238 -0.4947 -0.4541 -0.5133
  144OSM    H5F15865   2.254   1.952   7.189  1.3671  1.1618  1.6206
  144OSM    H5G15866   2.100   1.899   7.266  2.0980 -2.4293 -0.6931
  144OSM    C6F15867   2.209   2.050   7.377  0.2748  0.8621  0.7015
  144OSM    H6F15868   2.249   2.152   7.363  0.2558  0.5695 -2.0982
  144OSM    H6G15869   2.299   1.992   7.405  1.3225  1.6328 -0.9301
  144OSM    C7F15870   2.102   2.055   7.491  0.0042 -0.2852  0.1453
  144OSM    H7F15871   2.077   1.949   7.514  2.1253 -0.7134  0.7045
  144OSM    H7G15872   2.008   2.109   7.467 -0.0057 -0.3714 -0.0140
  144OSM    C8F15873   2.149   2.109   7.626 -0.8682 -0.2385  0.8459
  144OSM    H8F15874   2.240   2.049   7.645 -0.6934 -0.6463 -1.1322
  144OSM    H8G15875   2.057   2.101   7.688 -2.9614 -2.2395 -2.2095
  144OSM    C9F15876   2.191   2.246   7.617  0.1878 -1.5101 -0.2809
  144OSM    H9F15877   2.102   2.309   7.602  0.4689 -1.1668 -0.5379
  144OSM   C10F15878   2.316   2.303   7.618  0.7125  0.6398  0.3172
  144OSM   H10F15879   2.323   2.411   7.636 -0.8092  0.5572  1.6082
  144OSM   C11F15880   2.446   2.227   7.626  0.7606 -0.9280 -0.2296
  144OSM   H11F15881   2.512   2.263   7.544  0.3559  0.9844  0.2263
  144OSM   H11G15882   2.423   2.122   7.600 -3.2565  0.4757 -3.4990
  144OSM   C12F15883   2.499   2.242   7.765  0.3874  1.0639 -0.0982
  144OSM   H12F15884   2.423   2.216   7.841 -0.4572 -1.3543 -1.6758
  144OSM   H12G15885   2.509   2.352   7.783 -2.9443  1.3480  0.5179
  144OSM   C13F15886   2.615   2.152   7.804 -0.4888 -0.8168  0.2509
  144OSM   H13F15887   2.691   2.180   7.728  0.1965 -3.0331  0.0328
  144OSM   H13G15888   2.592   2.044   7.786 -0.2674 -1.2397  2.2862
  144OSM   C14F15889   2.659   2.178   7.950  0.4212 -0.3126  0.2556
  144OSM   H14F15890   2.578   2.148   8.020 -0.2803  1.6372  0.3326
  144OSM   H14G15891   2.677   2.285   7.975  1.0604 -0.5247  0.7113
  144OSM   C15F15892   2.775   2.089   7.987  0.1454  0.2538 -0.7343
  144OSM   H15F15893   2.870   2.110   7.933  0.7598 -1.2550 -0.3012
  144OSM   H15G15894   2.741   1.988   7.958 -4.0025  1.1571  0.3887
  144OSM   C16F15895   2.818   2.087   8.133 -0.5408  0.1464 -0.2931
  144OSM   H16F15896   2.877   1.996   8.154 -2.5106 -1.1013  0.1331
  144OSM   H16G15897   2.732   2.069   8.201  0.3210  0.0508  0.7852
  144OSM   C17F15898   2.901   2.213   8.179  0.2776  0.1933  0.3695
  144OSM   H17F15899   2.950   2.208   8.278  1.4402  0.1893 -0.1891
  144OSM   H17G15900   2.823   2.291   8.193  1.8433  2.0852 -0.7595
  144OSM   C18F15901   3.015   2.256   8.084 -0.5627 -0.3572  0.2034
  144OSM   H18F15902   3.085   2.172   8.065 -1.4424 -0.7209 -1.5743
  144OSM   H18G15903   3.072   2.342   8.125 -0.6488  0.8081 -2.0171
  144OSM   H18H15904   2.972   2.313   7.999  0.7177  0.1093 -0.1584
  145SAPE     N15905   3.208   0.914  10.613  0.0220 -0.4640 -0.3242
  145SAPE   HN115906   3.188   0.933  10.513 -0.0840 -0.3681 -0.2852
  145SAPE   HN215907   3.289   0.976  10.634 -0.1791 -0.6395  1.0794
  145SAPE   HN315908   3.233   0.814  10.624  0.7185 -0.1270  1.5020
  145SAPE   C1215909   3.083   0.938  10.692 -0.0084 -0.0401  0.0375
  145SAPE  H12A15910   3.046   1.042  10.686  1.0449  0.4876  1.7782
  145SAPE  H12B15911   3.098   0.899  10.795 -0.7851  0.8906  0.5124
  145SAPE   C1115912   2.971   0.854  10.634  0.1004  0.6145  0.3472
  145SAPE  H11A15913   2.979   0.865  10.524  2.5199  0.4792  0.4516
  145SAPE  H11B15914   2.869   0.894  10.654  0.0214  1.3761 -1.4080
  145SAPE     P15915   2.886   0.612  10.585 -0.1918 -0.1422  0.2775
  145SAPE   O1315916   2.885   0.475  10.643  0.0592 -1.0560  0.0526
  145SAPE   O1415917   2.754   0.675  10.584  0.5807  0.2095  0.3761
  145SAPE   O1215918   2.979   0.715  10.670  0.7405  0.5179  0.0482
  145SAPE   O1115919   2.947   0.620  10.442  0.1005  0.3427  0.0051
  145SAPE    C115920   3.079   0.591  10.413  0.5777 -0.0967 -0.7026
  145SAPE    HA15921   3.143   0.643  10.487  0.9563 -3.1673  1.3349
  145SAPE    HB15922   3.100   0.483  10.433 -1.6364 -0.5535 -0.5242
  145SAPE    C215923   3.116   0.610  10.266  0.1405 -1.2381  0.3820
  145SAPE    HS15924   3.224   0.598  10.244  0.2397  0.8974 -0.6061
  145SAPE   O2115925   3.074   0.735  10.211  0.3946  0.4118  0.1186
  145SAPE   C2115926   3.121   0.839  10.258  0.4929 -0.6535  0.2210
  145SAPE   O2215927   3.211   0.847  10.339  0.3964  0.4723 -0.0867
  145SAPE   C2215928   3.051   0.950  10.180 -0.1327 -1.0186  0.8953
  145SAPE   H2R15929   2.978   0.908  10.107  0.8909  0.7424 -1.2739
  145SAPE   H2S15930   2.991   1.008  10.253 -0.9436 -1.8064  0.8712
  145SAPE    C315931   3.051   0.488  10.192 -0.5373  0.2596 -0.0439
  145SAPE    HX15932   2.947   0.465  10.226 -0.3729 -2.3582 -1.0372
  145SAPE    HY15933   3.109   0.402  10.231 -1.7592 -0.9493 -0.7547
  145SAPE   O3115934   3.080   0.483  10.056  0.1262 -0.0699 -0.1418
  145SAPE   C3115935   2.997   0.555   9.975 -0.2298  0.0281 -0.1178
  145SAPE   O3215936   2.899   0.613  10.014  0.2071 -0.3874 -0.2455
  145SAPE   C3215937   3.050   0.545   9.833  0.2779 -0.6034 -0.5311
  145SAPE   H2X15938   3.062   0.436   9.811  0.5778 -0.6811 -0.0047
  145SAPE   H2Y15939   3.151   0.592   9.840 -0.3451  0.6808  0.1850
  145SAPE   C2315940   3.148   1.048  10.109 -0.3370  0.5460 -0.1817
  145SAPE   H3R15941   3.221   1.074  10.189 -0.2361 -0.2299 -0.0199
  145SAPE   H3S15942   3.093   1.135  10.067 -1.4736  1.1481  2.3339
  145SAPE   C2415943   3.250   0.978  10.007 -0.6278 -0.4688  0.1253
  145SAPE   H4R15944   3.298   0.894  10.060 -0.8538  0.4608  1.8971
  145SAPE   H4S15945   3.328   1.055   9.986  0.0298 -0.9658  0.7109
  145SAPE   C2515946   3.194   0.943   9.872  0.2318 -0.7740  0.1402
  145SAPE   H5R15947   3.107   0.876   9.875  0.9487 -1.6936  1.5554
  145SAPE   C2615948   3.249   0.977   9.755 -0.2529  0.3911 -0.5888
  145SAPE   H6R15949   3.210   0.930   9.663  0.1873  0.8558 -1.0225
  145SAPE   C2715950   3.383   1.047   9.717 -0.0208  0.1672  0.3060
  145SAPE   H7R15951   3.453   0.971   9.676  0.1037  0.1600  0.5325
  145SAPE   H7S15952   3.431   1.091   9.807  2.2168 -0.0674 -0.7057
  145SAPE   C2815953   3.381   1.172   9.625  0.0046 -0.1398 -0.1388
  145SAPE   H8R15954   3.402   1.267   9.676 -1.9815  0.2533  0.0251
  145SAPE   C2915955   3.342   1.175   9.492  0.1319 -0.2217 -0.0379
  145SAPE   H9R15956   3.363   1.265   9.432  0.5260 -0.7344 -0.6882
  145SAPE  C21015957   3.293   1.051   9.416 -0.0238 -0.6880 -0.1233
  145SAPE  H10R15958   3.192   1.067   9.373 -1.2594 -0.9901  2.4403
  145SAPE  H10S15959   3.289   0.961   9.482 -0.6045 -1.6089 -1.3774
  145SAPE  C21115960   3.393   1.017   9.308 -0.3035  0.2866  0.4692
  145SAPE  H11R15961   3.477   0.955   9.341  2.3825  3.2144 -0.4735
  145SAPE  C21215962   3.380   1.047   9.178 -0.7850 -0.2360  0.7246
  145SAPE  H12R15963   3.462   1.030   9.107  0.2793  1.0097  1.6129
  145SAPE  C21315964   3.269   1.128   9.116  0.0472  0.1619 -0.1797
  145SAPE  H13R15965   3.193   1.161   9.190  0.1932  0.5847 -0.2144
  145SAPE  H13S15966   3.205   1.062   9.053 -0.1656 -0.8589  1.0558
  145SAPE  C21415967   3.314   1.247   9.037 -0.3613 -0.3506  0.2077
  145SAPE  H14R15968   3.352   1.325   9.104  1.5848 -2.7885  2.1635
  145SAPE  C21515969   3.337   1.255   8.904 -0.4167 -0.1701 -0.4326
  145SAPE  H15R15970   3.389   1.343   8.864 -1.5413  0.0838 -1.3778
  145SAPE  C21615971   3.317   1.147   8.806  0.9106  0.8443  0.9405
  145SAPE  H16R15972   3.266   1.066   8.862 -0.0180  1.0365  0.3963
  145SAPE  H16S15973   3.415   1.109   8.770 -0.5047 -2.3368  0.0221
  145SAPE  C21715974   3.227   1.190   8.685  0.0003  0.4822  0.3792
  145SAPE  H17R15975   3.277   1.276   8.636  1.7508 -0.7192 -0.0571
  145SAPE  H17S15976   3.134   1.227   8.733  0.2673  0.7118  0.7213
  145SAPE  C21815977   3.183   1.083   8.582  0.3525  0.4336  0.3277
  145SAPE  H18R15978   3.088   1.121   8.539 -0.9697 -0.9668  1.8760
  145SAPE  H18S15979   3.134   0.994   8.626 -2.6992  0.5110 -2.4864
  145SAPE  C21915980   3.278   1.050   8.463  0.3096 -0.4696 -0.1950
  145SAPE  H19R15981   3.380   1.024   8.501  0.6414  2.6424  1.3640
  145SAPE  H19S15982   3.297   1.149   8.416 -0.1336 -0.2950 -0.0102
  145SAPE  C22015983   3.214   0.959   8.357  0.0544 -0.4073  0.4814
  145SAPE  H20R15984   3.107   0.981   8.334  0.2343 -0.8473 -0.8732
  145SAPE  H20S15985   3.220   0.852   8.385 -0.0931 -0.9581 -1.4347
  145SAPE  H20T15986   3.270   0.966   8.261 -0.2363 -0.0860  0.3333
  145SAPE   C3315987   2.959   0.613   9.737 -0.1446 -0.0659 -0.2107
  145SAPE   H3X15988   2.932   0.717   9.767 -1.6469  0.2646 -2.5067
  145SAPE   H3Y15989   2.864   0.556   9.737 -0.7078  0.7944  1.6145
  145SAPE   C3415990   3.023   0.637   9.602  0.3334  0.1505 -0.1811
  145SAPE   H4X15991   3.066   0.536   9.582 -0.6837 -0.8935  2.4491
  145SAPE   H4Y15992   3.103   0.712   9.620  0.0534 -0.0480  2.1755
  145SAPE   C3515993   2.922   0.695   9.499 -0.1499 -0.5472 -0.1308
  145SAPE   H5X15994   2.876   0.787   9.543  0.5607 -0.1895 -0.1272
  145SAPE   H5Y15995   2.838   0.625   9.477  1.4665 -1.8529 -2.5088
  145SAPE   C3615996   2.996   0.736   9.370  0.7624  0.9287 -0.1199
  145SAPE   H6X15997   3.064   0.657   9.331  0.5082 -0.0031  1.2618
  145SAPE   H6Y15998   3.043   0.832   9.398  0.1648  1.7476 -1.8201
  145SAPE   C3715999   2.884   0.761   9.269  0.0016 -0.6469 -0.4741
  145SAPE   H7X16000   2.805   0.817   9.324  0.2932 -2.4932  1.9702
  145SAPE   H7Y16001   2.837   0.668   9.231 -0.4705 -0.0594 -1.3683
  145SAPE   C3816002   2.936   0.848   9.153 -0.7102 -0.3135 -0.5890
  145SAPE   H8X16003   3.028   0.799   9.114 -2.3386 -2.0940 -2.4576
  145SAPE   H8Y16004   2.966   0.942   9.204 -0.3900 -1.4089  1.3326
  145SAPE   C3916005   2.843   0.858   9.037  0.3083 -0.1349  0.5635
  145SAPE   H9X16006   2.739   0.889   9.061 -0.1549  0.7535 -2.2063
  145SAPE   H9Y16007   2.829   0.754   8.998 -2.3853  1.1829 -2.4123
  145SAPE  C31016008   2.893   0.953   8.932  0.4615  1.0083 -0.3157
  145SAPE  H10X16009   2.976   0.893   8.889 -2.0165 -2.1524 -1.0511
  145SAPE  H10Y16010   2.925   1.054   8.966  0.0991  0.8574  0.4929
  145SAPE  C31116011   2.791   0.969   8.811  0.5732 -0.2535  0.4458
  145SAPE  H11X16012   2.693   0.995   8.855  0.4842  0.9354 -0.4031
  145SAPE  H11Y16013   2.776   0.874   8.756  0.7123 -1.4128  2.3254
  145SAPE  C31216014   2.820   1.090   8.723 -0.1858 -0.1643  0.7238
  145SAPE  H12X16015   2.922   1.073   8.683 -0.7007 -3.4852  0.5061
  145SAPE  H12Y16016   2.852   1.169   8.794  1.5661  1.1524 -1.3986
  145SAPE  C31316017   2.717   1.136   8.614  0.3248  0.1842 -0.3874
  145SAPE  H13X16018   2.622   1.082   8.634  1.6853 -2.1222  0.3435
  145SAPE  H13Y16019   2.756   1.097   8.517  1.1967  1.5583 -0.6182
  145SAPE  C31416020   2.691   1.289   8.597  0.6694 -0.1064 -0.3063
  145SAPE  H14X16021   2.788   1.343   8.588  0.2888  0.5914 -0.3277
  145SAPE  H14Y16022   2.641   1.328   8.688  2.0241 -0.8370  0.7851
  145SAPE  C31516023   2.598   1.327   8.476  0.0631  0.2493 -0.1646
  145SAPE  H15X16024   2.507   1.264   8.481 -0.2211  0.3687 -2.7059
  145SAPE  H15Y16025   2.652   1.301   8.383  0.9529  0.1429  0.3737
  145SAPE  C31616026   2.556   1.475   8.476  0.1486 -0.0488  0.5058
  145SAPE  H16X16027   2.647   1.539   8.483  0.5549 -0.1143 -2.4894
  145SAPE  H16Y16028   2.472   1.496   8.544  0.4841  2.2796  0.2684
  145SAPE  C31716029   2.500   1.518   8.340 -0.0009  0.2841  0.1846
  145SAPE  H17X16030   2.439   1.610   8.351  1.2863  1.0728  1.0361
  145SAPE  H17Y16031   2.430   1.440   8.303  0.2910  0.0947  0.0202
  145SAPE  C31816032   2.604   1.541   8.226 -0.3282 -0.3769 -0.8058
  145SAPE  H18X16033   2.557   1.609   8.152 -0.3143  2.4634  1.6170
  145SAPE  H18Y16034   2.633   1.449   8.172 -0.3172 -1.4208  0.8826
  145SAPE  H18Z16035   2.694   1.586   8.273 -0.5918  0.6369 -1.2658
  146SAPE     N16036   3.178   1.341  10.870  0.6532 -0.2037  0.0965
  146SAPE   HN116037   3.167   1.249  10.917 -0.2095 -0.2097 -0.0979
  146SAPE   HN216038   3.280   1.350  10.850  0.2804  0.0624 -1.8613
  146SAPE   HN316039   3.138   1.412  10.935 -1.6600 -0.1235 -1.3073
  146SAPE   C1216040   3.099   1.344  10.743  0.3763  0.1287 -0.4954
  146SAPE  H12A16041   2.997   1.306  10.762  0.8971 -0.7022  0.7125
  146SAPE  H12B16042   3.151   1.276  10.671 -1.0867 -1.5410 -0.0455
  146SAPE   C1116043   3.081   1.485  10.674  0.1379  0.3405  0.2133
  146SAPE  H11A16044   3.011   1.536  10.743 -1.6469 -1.4021 -0.2041
  146SAPE  H11B16045   3.028   1.476  10.576  0.3314 -0.8515  0.2028
  146SAPE     P16046   3.214   1.707  10.675  0.4681  0.0447  0.1818
  146SAPE   O1316047   3.180   1.738  10.814  0.2556 -0.9741  0.1913
  146SAPE   O1416048   3.346   1.747  10.632  0.0121 -0.0278 -0.7791
  146SAPE   O1216049   3.203   1.552  10.653  0.0286 -0.3202  0.1115
  146SAPE   O1116050   3.105   1.767  10.581 -0.2096  0.3448  0.7297
  146SAPE    C116051   3.142   1.842  10.461  0.1862 -0.3856 -0.4887
  146SAPE    HA16052   3.135   1.951  10.481 -0.9048 -0.5148 -0.1157
  146SAPE    HB16053   3.246   1.825  10.426  0.9590  0.6823  1.1562
  146SAPE    C216054   3.042   1.799  10.346  0.1658 -0.1270 -0.3320
  146SAPE    HS16055   2.944   1.785  10.397  0.3289 -1.3987 -0.3324
  146SAPE   O2116056   3.089   1.674  10.291  0.5001  0.1951 -0.4079
  146SAPE   C2116057   2.997   1.605  10.225 -0.1780 -0.9703 -0.0342
  146SAPE   O2216058   2.882   1.638  10.209  0.2220  0.1116  0.8180
  146SAPE   C2216059   3.050   1.477  10.178  0.2234 -0.1003  0.4189
  146SAPE   H2R16060   3.058   1.414  10.270 -0.6918 -1.8119 -0.6203
  146SAPE   H2S16061   2.967   1.437  10.117  1.2866  0.7766 -1.7092
  146SAPE    C316062   3.019   1.903  10.237  0.0661 -0.6979  0.3271
  146SAPE    HX16063   2.967   1.987  10.287  1.9298 -1.2766  3.5444
  146SAPE    HY16064   2.960   1.867  10.151 -0.5189  0.2460  0.3259
  146SAPE   O3116065   3.146   1.959  10.191 -0.2578  0.6643  0.5968
  146SAPE   C3116066   3.193   1.925  10.071 -0.1224 -0.3816  0.3215
  146SAPE   O3216067   3.136   1.850   9.994 -0.4899  0.1701 -0.2492
  146SAPE   C3216068   3.326   1.995  10.043 -0.2816  1.0535  0.4884
  146SAPE   H2X16069   3.384   1.952  10.127 -0.9505 -0.8581  0.0315
  146SAPE   H2Y16070   3.322   2.106  10.036 -1.3172  1.0313  0.5523
  146SAPE   C2316071   3.186   1.464  10.108 -0.6510  0.7123  0.4845
  146SAPE   H3R16072   3.213   1.357  10.116  0.5099  1.0475  1.2068
  146SAPE   H3S16073   3.266   1.519  10.161 -0.5464 -0.4923  1.6145
  146SAPE   C2416074   3.184   1.494   9.950  0.0009  0.7275 -0.3826
  146SAPE   H4R16075   3.288   1.514   9.916 -0.2666  1.0644 -1.0164
  146SAPE   H4S16076   3.133   1.591   9.934  0.7304  0.8516 -2.1426
  146SAPE   C2516077   3.119   1.394   9.861 -1.1646  0.7172 -0.9484
  146SAPE   H5R16078   3.063   1.316   9.914 -0.1230  0.4672 -0.1811
  146SAPE   C2616079   3.100   1.410   9.729 -0.1094 -0.3337  1.0685
  146SAPE   H6R16080   3.040   1.340   9.669  0.6361  1.6340 -2.2136
  146SAPE   C2716081   3.168   1.523   9.658 -0.0265  0.5336 -0.0479
  146SAPE   H7R16082   3.276   1.497   9.654  0.5074  2.6607 -0.8357
  146SAPE   H7S16083   3.152   1.621   9.708 -1.7904  0.7746 -0.9916
  146SAPE   C2816084   3.117   1.551   9.519  0.9170  1.1137 -0.3651
  146SAPE   H8R16085   3.009   1.555   9.497  0.7334  0.4502  0.3554
  146SAPE   C2916086   3.194   1.554   9.401  0.0289 -0.2341 -0.8680
  146SAPE   H9R16087   3.142   1.570   9.306  0.4503  1.5151 -0.8371
  146SAPE  C21016088   3.345   1.555   9.403 -0.3894  0.2661 -0.1225
  146SAPE  H10R16089   3.387   1.452   9.392  2.6462  1.1170  2.2924
  146SAPE  H10S16090   3.386   1.591   9.499 -0.5093  0.7202 -0.2398
  146SAPE  C21116091   3.398   1.657   9.299 -0.1659  0.3904  0.1120
  146SAPE  H11R16092   3.323   1.718   9.248 -0.7010 -0.0522  0.3569
  146SAPE  C21216093   3.526   1.644   9.256  0.4539  0.3148 -0.3238
  146SAPE  H12R16094   3.568   1.720   9.188  3.4346 -2.3856 -1.8127
  146SAPE  C21316095   3.624   1.542   9.312 -0.2411 -0.4558  0.0107
  146SAPE  H13R16096   3.694   1.509   9.233  1.6786  1.7334  0.6683
  146SAPE  H13S16097   3.578   1.448   9.349  1.5662 -1.0039  1.0006
  146SAPE  C21416098   3.697   1.591   9.430 -0.4908 -0.2672  0.6669
  146SAPE  H14R16099   3.732   1.695   9.415  2.5186 -1.1382  0.9592
  146SAPE  C21516100   3.728   1.533   9.546 -0.1095 -0.0404  0.1323
  146SAPE  H15R16101   3.778   1.594   9.622  1.3846  0.4995 -1.2175
  146SAPE  C21616102   3.689   1.392   9.584  0.3597  0.0341  0.2646
  146SAPE  H16R16103   3.766   1.326   9.538  1.7203  1.2521  0.7096
  146SAPE  H16S16104   3.588   1.366   9.547 -1.9525  1.7064  4.7296
  146SAPE  C21716105   3.694   1.358   9.737 -0.0040  0.0953  0.0099
  146SAPE  H17R16106   3.796   1.364   9.780 -0.2834 -0.3010  0.7541
  146SAPE  H17S16107   3.653   1.257   9.758 -0.1220  0.0885 -0.2522
  146SAPE  C21816108   3.603   1.457   9.814 -0.2879 -0.5817  0.1575
  146SAPE  H18R16109   3.501   1.429   9.779 -0.4854 -0.6723  0.7900
  146SAPE  H18S16110   3.632   1.560   9.785  0.5927 -0.8519  0.0640
  146SAPE  C21916111   3.592   1.455   9.975 -0.6662  0.2531  0.0050
  146SAPE  H19R16112   3.536   1.547  10.005  1.0395  0.5063  2.7527
  146SAPE  H19S16113   3.695   1.457  10.017 -0.9722 -0.1933  0.7950
  146SAPE  C22016114   3.532   1.324  10.027 -0.2068 -0.3431  0.1952
  146SAPE  H20R16115   3.422   1.317  10.011 -0.1391 -0.3685 -0.2857
  146SAPE  H20S16116   3.544   1.332  10.137 -0.9066  1.9634  0.1583
  146SAPE  H20T16117   3.588   1.237   9.987 -0.0982  0.1884 -0.8344
  146SAPE   C3316118   3.396   1.953   9.913 -0.2341 -0.3510 -0.0364
  146SAPE   H3X16119   3.418   1.844   9.910  3.4955  0.2737  0.3539
  146SAPE   H3Y16120   3.495   2.002   9.906  0.5891 -2.0991 -1.8060
  146SAPE   C3416121   3.328   2.006   9.778  0.3998  0.0765  0.6641
  146SAPE   H4X16122   3.302   2.113   9.793  0.5175  0.3813 -1.0666
  146SAPE   H4Y16123   3.236   1.949   9.753  0.2610  0.4434  0.3383
  146SAPE   C3516124   3.429   2.007   9.667  0.3248 -0.0004 -0.4339
  146SAPE   H5X16125   3.462   1.902   9.654 -1.6634 -0.8186  0.6761
  146SAPE   H5Y16126   3.506   2.076   9.707 -0.2711 -0.8485  2.3815
  146SAPE   C3616127   3.366   2.070   9.540 -0.6032 -0.5524  0.4282
  146SAPE   H6X16128   3.337   2.177   9.551 -0.3729 -0.1217 -2.2862
  146SAPE   H6Y16129   3.273   2.010   9.531 -1.6287  1.0505 -0.0181
  146SAPE   C3716130   3.454   2.046   9.418 -0.0484 -0.1451 -0.9176
  146SAPE   H7X16131   3.470   1.937   9.432  1.3930  0.1615  0.1663
  146SAPE   H7Y16132   3.558   2.084   9.424  0.2682 -1.1325  0.3482
  146SAPE   C3816133   3.385   2.074   9.288  0.5019 -0.5068 -0.1859
  146SAPE   H8X16134   3.347   2.178   9.297 -2.2063 -1.3220 -1.1462
  146SAPE   H8Y16135   3.297   2.009   9.266 -1.7027  2.2811 -0.1182
  146SAPE   C3916136   3.482   2.077   9.169 -0.5206 -0.6205 -0.0904
  146SAPE   H9X16137   3.544   1.985   9.157  1.9130  0.6327  1.9272
  146SAPE   H9Y16138   3.568   2.142   9.195  0.3702 -1.8396  0.1054
  146SAPE  C31016139   3.417   2.104   9.035  0.4054  0.7814 -0.5083
  146SAPE  H10X16140   3.495   2.092   8.957 -0.2034  2.0060 -1.3306
  146SAPE  H10Y16141   3.366   2.202   9.026 -1.0582  0.1451  0.3888
  146SAPE  C31116142   3.325   1.987   8.993  0.4102 -0.0422 -0.2439
  146SAPE  H11X16143   3.234   2.009   9.052 -1.7382 -2.1011 -2.5704
  146SAPE  H11Y16144   3.378   1.899   9.034  1.7920  0.7908 -0.1609
  146SAPE  C31216145   3.295   1.979   8.841  0.9954  0.2187 -0.5081
  146SAPE  H12X16146   3.388   1.989   8.782  2.2263 -0.5926  1.2173
  146SAPE  H12Y16147   3.235   2.069   8.813  0.0331 -0.4018 -0.5045
  146SAPE  C31316148   3.224   1.855   8.788 -0.1443  0.6349  1.0447
  146SAPE  H13X16149   3.216   1.867   8.678 -0.5114  1.9233  1.1846
  146SAPE  H13Y16150   3.125   1.854   8.839 -1.2478  1.4844 -0.9723
  146SAPE  C31416151   3.310   1.723   8.811  0.0037 -0.5634 -0.0699
  146SAPE  H14X16152   3.303   1.698   8.920 -0.7560  2.2045  0.5936
  146SAPE  H14Y16153   3.419   1.742   8.808 -0.0886 -0.1168 -0.7244
  146SAPE  C31516154   3.259   1.614   8.712  0.0435 -0.4684  0.3813
  146SAPE  H15X16155   3.149   1.613   8.718 -0.0281  1.8100  0.0136
  146SAPE  H15Y16156   3.296   1.518   8.755  1.8415  0.3122  0.6806
  146SAPE  C31616157   3.307   1.632   8.567  0.6716 -0.0073  0.3232
  146SAPE  H16X16158   3.418   1.633   8.572  0.6682  1.7012  0.5091
  146SAPE  H16Y16159   3.258   1.723   8.525 -0.6286 -0.1824  1.3737
  146SAPE  C31716160   3.257   1.526   8.475 -0.5334  0.5483 -0.1353
  146SAPE  H17X16161   3.313   1.433   8.497 -1.2937  0.4016  1.3246
  146SAPE  H17Y16162   3.305   1.556   8.379 -0.9836 -0.7548 -0.7979
  146SAPE  C31816163   3.109   1.487   8.486  0.3327  0.0827  0.2631
  146SAPE  H18X16164   3.062   1.586   8.467  3.0852  1.2630 -0.9663
  146SAPE  H18Y16165   3.081   1.449   8.587  0.2806  0.3180  0.3382
  146SAPE  H18Z16166   3.083   1.411   8.409  1.3279 -0.9330  0.8968
  147SAPE     N16167   3.657   5.001  10.673 -0.4377  0.4351 -0.3802
  147SAPE   HN116168   3.663   5.084  10.736  0.3951  0.3080 -0.2837
  147SAPE   HN216169   3.757   4.996  10.645 -0.3992  0.2584 -0.2169
  147SAPE   HN316170   3.601   5.014  10.586 -0.3638  0.7811 -0.3778
  147SAPE   C1216171   3.607   4.870  10.743 -0.6313  0.4446  0.1854
  147SAPE  H12A16172   3.599   4.790  10.666  1.6368  0.0093  0.3351
  147SAPE  H12B16173   3.501   4.889  10.769 -0.1866  0.9028  1.8112
  147SAPE   C1116174   3.688   4.839  10.873 -0.1899 -0.4099 -0.1135
  147SAPE  H11A16175   3.613   4.781  10.931  0.8629 -0.5491  1.1530
  147SAPE  H11B16176   3.705   4.936  10.925 -0.9313  0.8698 -2.1282
  147SAPE     P16177   3.948   4.821  10.834 -0.3540  0.0694  0.2706
  147SAPE   O1316178   3.978   4.923  10.939 -0.1503 -0.4485  0.4117
  147SAPE   O1416179   4.052   4.714  10.814 -0.2199 -0.0426  0.0902
  147SAPE   O1216180   3.807   4.753  10.858 -0.2791 -0.4512  0.0235
  147SAPE   O1116181   3.935   4.893  10.690 -0.4531  0.1209  0.1634
  147SAPE    C116182   4.045   4.987  10.665 -0.2679 -0.2689 -0.4907
  147SAPE    HA16183   4.023   5.082  10.719  0.4661  0.3079 -1.1795
  147SAPE    HB16184   4.143   4.945  10.696  0.2491  1.1213 -0.1505
  147SAPE    C216185   4.058   5.019  10.512  0.3533  0.8525 -0.0888
  147SAPE    HS16186   4.159   5.057  10.485  0.0786  0.3550 -1.9750
  147SAPE   O2116187   3.953   5.105  10.466  0.0082  0.0538 -0.0741
  147SAPE   C2116188   3.993   5.193  10.374  0.1265 -0.2889 -0.0998
  147SAPE   O2216189   4.104   5.198  10.324  0.5782 -0.5724  0.1718
  147SAPE   C2216190   3.891   5.304  10.352 -0.0187 -0.0758  0.4607
  147SAPE   H2R16191   3.819   5.310  10.437 -0.4754 -1.2238  0.1715
  147SAPE   H2S16192   3.956   5.394  10.343  0.9208 -0.8074 -0.2373
  147SAPE    C316193   4.048   4.878  10.435 -0.5712 -0.5585 -0.4291
  147SAPE    HX16194   3.953   4.826  10.457  1.1014 -4.6421 -1.8034
  147SAPE    HY16195   4.131   4.816  10.475 -0.1815  0.2522  0.0389
  147SAPE   O3116196   4.058   4.903  10.291  0.0883  0.8269 -0.2005
  147SAPE   C3116197   4.187   4.888  10.252 -0.8873  0.1377  0.6169
  147SAPE   O3216198   4.282   4.874  10.328  0.4425  0.6390 -0.0638
  147SAPE   C3216199   4.197   4.903  10.098 -0.5442 -0.0719  0.4078
  147SAPE   H2X16200   4.114   4.969  10.065  0.1241  1.5668  1.9115
  147SAPE   H2Y16201   4.183   4.801  10.055 -1.8480 -0.0111  0.6417
  147SAPE   C2316202   3.809   5.278  10.229 -0.4636  0.0603 -0.6313
  147SAPE   H3R16203   3.876   5.293  10.142 -1.1612  0.8220 -1.0490
  147SAPE   H3S16204   3.727   5.353  10.213 -0.0264  0.7146  0.1433
  147SAPE   C2416205   3.741   5.135  10.228  0.1664  0.7629  0.2541
  147SAPE   H4R16206   3.683   5.113  10.319 -1.4189 -2.3565 -1.3359
  147SAPE   H4S16207   3.815   5.052  10.238 -0.2661  0.5010  1.3159
  147SAPE   C2516208   3.657   5.119  10.097  0.2275 -0.0920  0.2607
  147SAPE   H5R16209   3.550   5.134  10.116  0.1118 -1.2577  0.5787
  147SAPE   C2616210   3.694   5.076   9.978 -0.4046  0.2480 -0.2176
  147SAPE   H6R16211   3.623   5.082   9.894  0.8906 -1.2005 -1.4725
  147SAPE   C2716212   3.833   5.036   9.928  0.6806  0.1568 -0.5729
  147SAPE   H7R16213   3.904   5.028  10.013 -0.8056  1.7799  0.9112
  147SAPE   H7S16214   3.870   5.124   9.871 -1.2368  0.0694 -2.0604
  147SAPE   C2816215   3.855   4.910   9.853 -0.2636 -0.3831  0.0443
  147SAPE   H8R16216   3.905   4.833   9.913 -0.0231 -0.5801 -0.3999
  147SAPE   C2916217   3.841   4.892   9.720  0.6762 -0.5618  0.1912
  147SAPE   H9R16218   3.856   4.791   9.680  1.1304  0.6707 -3.0297
  147SAPE  C21016219   3.785   4.985   9.614  0.4411  0.5750  0.4836
  147SAPE  H10R16220   3.756   5.080   9.663 -0.5484  0.6377 -0.1815
  147SAPE  H10S16221   3.688   4.943   9.577  0.9722 -1.8042  1.5562
  147SAPE  C21116222   3.890   5.017   9.502  0.9120 -0.5436  0.2066
  147SAPE  H11R16223   3.993   5.016   9.541  0.7368 -0.6263  0.6835
  147SAPE  C21216224   3.867   5.046   9.376  0.0913 -0.3191 -0.2463
  147SAPE  H12R16225   3.951   5.048   9.305  0.4510  0.7292  0.1899
  147SAPE  C21316226   3.736   5.042   9.303 -0.4459 -0.0461 -0.1188
  147SAPE  H13R16227   3.660   4.968   9.337 -1.0448  0.1294 -1.0417
  147SAPE  H13S16228   3.764   5.002   9.203  2.5148 -0.8024  0.8983
  147SAPE  C21416229   3.671   5.173   9.269  0.4391  0.1965  0.0155
  147SAPE  H14R16230   3.711   5.220   9.178 -0.4677 -1.6702 -1.4130
  147SAPE  C21516231   3.583   5.237   9.346  0.1232 -0.4896 -0.3305
  147SAPE  H15R16232   3.556   5.338   9.312 -0.3904 -0.0443  1.3473
  147SAPE  C21616233   3.530   5.197   9.477 -0.3885 -0.5677 -0.3105
  147SAPE  H16R16234   3.616   5.155   9.534 -0.6385 -0.5758  0.0686
  147SAPE  H16S16235   3.447   5.123   9.464 -0.6003 -0.6096  1.0557
  147SAPE  C21716236   3.468   5.315   9.549  0.2603 -0.2363 -0.1572
  147SAPE  H17R16237   3.389   5.370   9.495  0.8691 -0.1869 -1.0265
  147SAPE  H17S16238   3.542   5.395   9.573 -1.5382  1.2208  0.8090
  147SAPE  C21816239   3.399   5.275   9.681 -0.4966  0.1184  0.8691
  147SAPE  H18R16240   3.469   5.220   9.747  0.1291 -0.9070 -0.5714
  147SAPE  H18S16241   3.308   5.214   9.661 -0.1514 -0.2372  0.3535
  147SAPE  C21916242   3.358   5.386   9.780  0.5987 -0.1128  0.2795
  147SAPE  H19R16243   3.300   5.458   9.718  1.7768  1.1350  0.5548
  147SAPE  H19S16244   3.450   5.435   9.818  0.7298  0.9505 -1.2870
  147SAPE  C22016245   3.271   5.340   9.899  0.3611  0.1781 -0.4684
  147SAPE  H20R16246   3.227   5.428   9.949  0.5360 -0.1421  0.2635
  147SAPE  H20S16247   3.335   5.288   9.973 -1.6385 -0.9762  0.5209
  147SAPE  H20T16248   3.186   5.272   9.877 -0.0306 -0.2391  2.0119
  147SAPE   C3316249   4.334   4.950  10.047  0.2733  0.5571 -0.1453
  147SAPE   H3X16250   4.407   4.866  10.053  1.0079  1.2979  2.4837
  147SAPE   H3Y16251   4.389   5.030  10.102  2.3589 -0.0401 -1.2501
  147SAPE   C3416252   4.333   4.994   9.898  0.2723 -0.6043  0.8970
  147SAPE   H4X16253   4.430   5.049   9.890  0.9687 -1.7671  1.0575
  147SAPE   H4Y16254   4.251   5.066   9.880 -0.3952 -1.8011 -1.1907
  147SAPE   C3516255   4.346   4.880   9.787 -0.1792  0.5512 -0.3999
  147SAPE   H5X16256   4.299   4.796   9.842  2.5868 -0.0031  1.3050
  147SAPE   H5Y16257   4.454   4.854   9.782 -0.6430 -1.9978  1.1068
  147SAPE   C3616258   4.277   4.908   9.651  0.0229 -0.1683 -0.7466
  147SAPE   H6X16259   4.352   4.965   9.594 -0.2212  2.6946  1.5429
  147SAPE   H6Y16260   4.188   4.974   9.663  1.1265  1.8070 -2.8348
  147SAPE   C3716261   4.237   4.770   9.588  1.2415  0.1276 -0.0954
  147SAPE   H7X16262   4.144   4.742   9.641  0.8603 -2.9171 -2.1579
  147SAPE   H7Y16263   4.317   4.696   9.606  1.1401  0.4541  1.8583
  147SAPE   C3816264   4.182   4.783   9.440 -0.6993 -0.5256 -0.5748
  147SAPE   H8X16265   4.125   4.878   9.442  0.4850  0.2410  1.5958
  147SAPE   H8Y16266   4.118   4.694   9.423  0.1130 -1.6097  1.5613
  147SAPE   C3916267   4.286   4.798   9.332 -0.3673  0.2918  0.6137
  147SAPE   H9X16268   4.352   4.712   9.309 -1.2558  0.1310 -1.5935
  147SAPE   H9Y16269   4.354   4.882   9.357  3.0777 -2.8684  2.8491
  147SAPE  C31016270   4.209   4.831   9.194 -0.2206  0.5694 -0.6558
  147SAPE  H10X16271   4.283   4.846   9.112  0.9753  0.9416  0.4640
  147SAPE  H10Y16272   4.156   4.928   9.205 -0.0111  0.7455 -1.1796
  147SAPE  C31116273   4.105   4.723   9.160  0.5307  0.6166  0.5063
  147SAPE  H11X16274   4.058   4.742   9.061 -0.3664 -2.6677  0.1820
  147SAPE  H11Y16275   4.024   4.723   9.235  1.4407  2.7651  1.5669
  147SAPE  C31216276   4.162   4.586   9.142  0.3049 -0.3133 -0.4473
  147SAPE  H12X16277   4.196   4.549   9.241  0.9811 -0.2387 -0.6458
  147SAPE  H12Y16278   4.252   4.577   9.079  2.4800  0.1281  2.3929
  147SAPE  C31316279   4.060   4.492   9.075 -0.3553  0.1435  0.0780
  147SAPE  H13X16280   4.033   4.538   8.977 -0.0902  1.2511  0.5109
  147SAPE  H13Y16281   3.969   4.505   9.139 -0.9767  2.0906 -1.1289
  147SAPE  C31416282   4.109   4.349   9.066 -0.0675  0.0728 -0.3303
  147SAPE  H14X16283   4.140   4.312   9.167 -2.4290 -1.3387 -0.0419
  147SAPE  H14Y16284   4.192   4.353   8.993 -1.1062 -0.8487 -1.6075
  147SAPE  C31516285   3.999   4.258   9.009  0.0416 -0.3065 -0.4056
  147SAPE  H15X16286   3.950   4.307   8.922 -2.8291  0.0281  1.2919
  147SAPE  H15Y16287   3.910   4.240   9.073 -0.0202 -2.4215 -1.0230
  147SAPE  C31616288   4.058   4.117   8.960  0.0054  0.0204  0.2659
  147SAPE  H16X16289   3.982   4.039   8.939 -0.1711 -0.0121  0.9863
  147SAPE  H16Y16290   4.129   4.075   9.034  0.7428 -0.9218 -0.9443
  147SAPE  C31716291   4.134   4.119   8.826 -0.1122  0.4238 -0.8851
  147SAPE  H17X16292   4.219   4.047   8.822 -2.2935 -2.2682 -3.9520
  147SAPE  H17Y16293   4.185   4.217   8.810 -1.1644  0.5632 -4.3820
  147SAPE  C31816294   4.048   4.095   8.704  0.3780 -0.3788 -0.3649
  147SAPE  H18X16295   4.004   3.993   8.711 -1.0421 -0.2009 -4.2554
  147SAPE  H18Y16296   4.097   4.112   8.605 -0.8093  3.8915 -0.4052
  147SAPE  H18Z16297   3.970   4.173   8.713  2.4651  1.6473  1.6309
  148SAPE     N16298   5.442   0.612  10.396 -0.7464 -0.1956  0.4048
  148SAPE   HN116299   5.382   0.530  10.417 -2.1988  0.1409 -2.1079
  148SAPE   HN216300   5.534   0.580  10.432  0.3796  1.6400 -0.6712
  148SAPE   HN316301   5.394   0.684  10.454  0.9228  1.9752 -0.7376
  148SAPE   C1216302   5.465   0.642  10.255 -0.4047 -0.2046  0.0597
  148SAPE  H12A16303   5.480   0.752  10.260 -0.8739 -0.1885  2.0807
  148SAPE  H12B16304   5.377   0.606  10.197 -0.7998 -0.0818  0.5797
  148SAPE   C1116305   5.592   0.557  10.211  0.5933 -0.3571  0.7021
  148SAPE  H11A16306   5.612   0.594  10.108  2.2053 -0.3132  1.0090
  148SAPE  H11B16307   5.561   0.451  10.209  1.2140 -0.5369  0.2348
  148SAPE     P16308   5.822   0.676  10.275 -0.1986 -0.0072 -0.3491
  148SAPE   O1316309   5.778   0.815  10.281  0.0368 -0.4723  0.2405
  148SAPE   O1416310   5.923   0.637  10.372 -0.5201 -0.0495  0.1576
  148SAPE   O1216311   5.699   0.577  10.297 -0.0621 -0.3649  0.0449
  148SAPE   O1116312   5.878   0.642  10.136  0.5296 -0.5948  0.3477
  148SAPE    C116313   5.895   0.505  10.103 -0.2514 -0.4915 -0.3517
  148SAPE    HA16314   5.848   0.430  10.171  0.0103 -1.0298 -0.7579
  148SAPE    HB16315   5.853   0.485  10.002  2.2588 -1.8029 -1.2076
  148SAPE    C216316   6.043   0.467  10.116 -0.4573  0.7568 -0.0051
  148SAPE    HS16317   6.077   0.523  10.205 -0.0436  0.1036  0.2596
  148SAPE   O2116318   6.098   0.527  10.001 -0.2684 -0.2313  0.2814
  148SAPE   C2116319   6.155   0.645  10.013 -0.0925  0.5868 -0.7614
  148SAPE   O2216320   6.187   0.695  10.120 -0.8602  0.2909 -0.0447
  148SAPE   C2216321   6.185   0.707   9.870  1.0616 -0.2184 -0.8468
  148SAPE   H2R16322   6.220   0.624   9.805  0.2474 -0.3902 -1.0830
  148SAPE   H2S16323   6.089   0.753   9.839  1.6807  0.1499 -2.2748
  148SAPE    C316324   6.077   0.318  10.124  0.4631 -0.3111  0.1452
  148SAPE    HX16325   6.016   0.283  10.210 -2.4993  1.9057 -0.8557
  148SAPE    HY16326   6.182   0.297  10.153  0.6044 -0.2481 -0.3177
  148SAPE   O3116327   6.044   0.243  10.004 -0.1727  0.0673  0.1193
  148SAPE   C3116328   5.936   0.169   9.998 -0.0489  0.1403 -0.0986
  148SAPE   O3216329   5.856   0.152  10.092 -0.2470 -0.4664  0.2394
  148SAPE   C3216330   5.919   0.106   9.859 -0.7553  0.1578 -0.0185
  148SAPE   H2X16331   5.965   0.005   9.870 -0.2944  0.4892  1.3823
  148SAPE   H2Y16332   5.960   0.173   9.781  0.8538  0.2699  0.8763
  148SAPE   C2316333   6.283   0.826   9.880  0.0615  0.6068 -0.7142
  148SAPE   H3R16334   6.368   0.811   9.951 -0.0707  1.8238 -0.2825
  148SAPE   H3S16335   6.223   0.908   9.923 -1.5622 -0.1439 -1.4571
  148SAPE   C2416336   6.327   0.882   9.748  0.5398  0.0307  0.0933
  148SAPE   H4R16337   6.387   0.970   9.779 -0.1959  0.3207  0.7415
  148SAPE   H4S16338   6.235   0.921   9.698  0.9582  0.8480 -0.0512
  148SAPE   C2516339   6.415   0.795   9.664  0.5596  0.3168 -0.7808
  148SAPE   H5R16340   6.482   0.726   9.717 -0.8681 -1.2177 -0.8929
  148SAPE   C2616341   6.404   0.768   9.532 -0.4616 -0.1463  0.4959
  148SAPE   H6R16342   6.489   0.712   9.490  0.7775  1.8925  0.1145
  148SAPE   C2716343   6.301   0.828   9.428 -0.2359 -0.6234 -0.7433
  148SAPE   H7R16344   6.361   0.867   9.343  0.5364 -0.9400 -0.3534
  148SAPE   H7S16345   6.232   0.907   9.466 -0.3591  0.3529 -2.8461
  148SAPE   C2816346   6.217   0.708   9.387  0.6695 -0.4251 -0.0037
  148SAPE   H8R16347   6.173   0.660   9.476  1.5485  0.1510  0.7671
  148SAPE   C2916348   6.181   0.671   9.259 -0.5600  0.1582  0.2869
  148SAPE   H9R16349   6.109   0.588   9.246  0.4247 -0.9931  1.7653
  148SAPE  C21016350   6.213   0.749   9.137  0.1509  0.4854  0.6977
  148SAPE  H10R16351   6.280   0.681   9.081  1.5494  0.8604  1.8672
  148SAPE  H10S16352   6.278   0.838   9.154  2.6065 -1.4018  1.7899
  148SAPE  C21116353   6.095   0.781   9.050  0.7774  0.9730  0.7840
  148SAPE  H11R16354   5.995   0.777   9.097 -0.0032 -2.6465 -0.8554
  148SAPE  C21216355   6.091   0.810   8.917 -0.3360 -0.2253 -0.0849
  148SAPE  H12R16356   5.996   0.853   8.883  0.1601  2.7609  1.8666
  148SAPE  C21316357   6.218   0.810   8.832  0.4186 -0.0159 -0.0475
  148SAPE  H13R16358   6.194   0.742   8.747 -2.1297  2.2679 -1.3312
  148SAPE  H13S16359   6.299   0.771   8.897  0.7393  2.3674  1.1023
  148SAPE  C21416360   6.263   0.943   8.776  0.0060 -0.1855 -0.0482
  148SAPE  H14R16361   6.292   1.006   8.862 -1.1398 -1.8747  1.6636
  148SAPE  C21516362   6.268   0.980   8.650  0.2506 -0.6588  0.0598
  148SAPE  H15R16363   6.301   1.080   8.618 -1.5530 -0.2998 -0.7906
  148SAPE  C21616364   6.225   0.906   8.528 -0.6373  0.6216  0.6053
  148SAPE  H16R16365   6.125   0.860   8.541 -1.2807  1.2202 -1.8089
  148SAPE  H16S16366   6.300   0.829   8.502 -0.7847  1.1035 -1.3917
  148SAPE  C21716367   6.209   0.988   8.394 -0.4879 -0.0060  0.3717
  148SAPE  H17R16368   6.313   1.014   8.366 -0.3346  0.1670  1.0670
  148SAPE  H17S16369   6.144   1.078   8.406 -1.6641 -0.5426 -1.5397
  148SAPE  C21816370   6.140   0.909   8.277  0.3309 -0.9276  0.1068
  148SAPE  H18R16371   6.189   0.810   8.279 -1.0017 -1.6043  0.0126
  148SAPE  H18S16372   6.178   0.955   8.184  0.5323 -0.3096  0.4867
  148SAPE  C21916373   5.983   0.904   8.285  0.4026  0.7511 -0.3913
  148SAPE  H19R16374   5.948   1.007   8.308  1.8578  1.5381 -1.5565
  148SAPE  H19S16375   5.960   0.845   8.377  2.1781 -2.7125 -1.9845
  148SAPE  C22016376   5.905   0.843   8.171 -0.2153 -0.0828 -0.7165
  148SAPE  H20R16377   5.912   0.733   8.169  2.2000  0.0077 -0.1635
  148SAPE  H20S16378   5.942   0.890   8.078  1.7576  0.5217  0.3197
  148SAPE  H20T16379   5.802   0.885   8.182 -0.2456 -0.7061  2.5415
  148SAPE   C3316380   5.769   0.076   9.834 -0.7446  0.3258 -0.3478
  148SAPE   H3X16381   5.698   0.160   9.821 -0.8990  0.0231 -1.6093
  148SAPE   H3Y16382   5.731   0.027   9.926 -0.8393  1.0569  0.0086
  148SAPE   C3416383   5.730  -0.008   9.709 -0.6558  0.7760 -0.1714
  148SAPE   H4X16384   5.622  -0.033   9.705 -0.5083 -0.1783  1.2921
  148SAPE   H4Y16385   5.790  -0.101   9.724 -0.7826  0.7519  0.1959
  148SAPE   C3516386   5.791   0.065   9.583  0.6615  0.1205  0.1299
  148SAPE   H5X16387   5.900   0.042   9.580  0.4280 -1.0403 -2.6280
  148SAPE   H5Y16388   5.776   0.173   9.604 -1.3497 -0.4541  2.0215
  148SAPE   C3616389   5.712   0.014   9.463 -0.4963 -0.6734 -0.9405
  148SAPE   H6X16390   5.607   0.049   9.470  0.1098  1.1468 -0.3156
  148SAPE   H6Y16391   5.715  -0.097   9.462 -0.7571 -0.7221  0.7348
  148SAPE   C3716392   5.760   0.060   9.322  0.7354 -0.0131 -0.0792
  148SAPE   H7X16393   5.672   0.029   9.261 -0.6839  0.6376  1.5569
  148SAPE   H7Y16394   5.851   0.006   9.289  1.6997  1.7592 -0.4230
  148SAPE   C3816395   5.780   0.207   9.297 -0.4804 -0.3580  0.1700
  148SAPE   H8X16396   5.859   0.253   9.360  1.4383 -0.2673 -2.1756
  148SAPE   H8Y16397   5.678   0.248   9.314 -1.9063 -2.1977 -2.9785
  148SAPE   C3916398   5.799   0.235   9.144 -0.6331  0.8810 -0.1217
  148SAPE   H9X16399   5.879   0.168   9.106 -2.0080  0.5332 -2.5943
  148SAPE   H9Y16400   5.837   0.332   9.105 -1.2217  0.9679 -0.4846
  148SAPE  C31016401   5.667   0.220   9.074  0.1449  0.2436  0.1240
  148SAPE  H10X16402   5.590   0.293   9.108  0.8577  0.9773  0.2183
  148SAPE  H10Y16403   5.630   0.121   9.107  3.4591 -0.3892  2.4350
  148SAPE  C31116404   5.667   0.226   8.918  0.5723  0.3650 -0.2252
  148SAPE  H11X16405   5.564   0.213   8.880  0.3667  2.2237 -0.3796
  148SAPE  H11Y16406   5.725   0.140   8.878 -1.3445 -1.3222  0.4393
  148SAPE  C31216407   5.725   0.346   8.861 -0.2741 -0.1603  0.2690
  148SAPE  H12X16408   5.702   0.338   8.753  0.5534 -1.3480  0.1623
  148SAPE  H12Y16409   5.835   0.351   8.871  0.0225  2.6030 -2.6614
  148SAPE  C31316410   5.674   0.477   8.922 -1.0249 -0.1237  0.3565
  148SAPE  H13X16411   5.670   0.473   9.033 -1.4062  1.1587  0.4086
  148SAPE  H13Y16412   5.566   0.474   8.893 -0.8664 -0.3411 -0.2251
  148SAPE  C31416413   5.749   0.611   8.892 -0.0604  0.0775  0.0061
  148SAPE  H14X16414   5.855   0.582   8.874 -0.2815 -0.6829 -0.1265
  148SAPE  H14Y16415   5.735   0.679   8.979 -1.9268 -0.2630  0.0189
  148SAPE  C31516416   5.702   0.663   8.758 -0.3742  0.0966  0.3202
  148SAPE  H15X16417   5.716   0.585   8.680 -0.7226  0.5945 -0.2443
  148SAPE  H15Y16418   5.755   0.758   8.736  0.6625  0.0766  2.4523
  148SAPE  C31616419   5.559   0.708   8.761  0.3287 -0.0133  0.0142
  148SAPE  H16X16420   5.551   0.811   8.801 -0.9181  0.2049 -0.7727
  148SAPE  H16Y16421   5.489   0.643   8.818  1.9103 -0.9915  0.9203
  148SAPE  C31716422   5.500   0.712   8.615  0.0319 -0.2413 -0.5446
  148SAPE  H17X16423   5.391   0.733   8.621  0.3571  1.3952  0.5019
  148SAPE  H17Y16424   5.525   0.613   8.571  2.0406  0.0511 -0.1633
  148SAPE  C31816425   5.566   0.807   8.527  0.0147  0.1085  0.7343
  148SAPE  H18X16426   5.509   0.828   8.434  0.1806  1.1094  0.8427
  148SAPE  H18Y16427   5.668   0.782   8.490  0.7253  2.0174  1.2765
  148SAPE  H18Z16428   5.578   0.903   8.582 -0.5320  0.5594  0.0839
  149SAPE     N16429   1.025   2.531  11.383  0.3089  0.9188  0.1385
  149SAPE   HN116430   1.089   2.583  11.446  1.9585 -0.8169 -0.0198
  149SAPE   HN216431   0.978   2.462  11.446  1.0430  1.3650  1.2149
  149SAPE   HN316432   1.090   2.488  11.315 -0.3818  1.0864 -0.6436
  149SAPE   C1216433   0.924   2.629  11.330  0.2648  0.4265 -0.1467
  149SAPE  H12A16434   0.982   2.701  11.269  2.0212  0.6235  1.6621
  149SAPE  H12B16435   0.879   2.691  11.410  0.5440 -0.8131  1.0202
  149SAPE   C1116436   0.815   2.577  11.228  0.4395 -0.2369  0.6167
  149SAPE  H11A16437   0.750   2.661  11.195 -1.7453 -1.8421  0.6194
  149SAPE  H11B16438   0.756   2.501  11.283  0.8692 -0.7913  0.3170
  149SAPE     P16439   0.825   2.496  10.971 -0.2822 -0.1436  0.0949
  149SAPE   O1316440   0.741   2.380  10.954  0.2387  0.1387  0.2110
  149SAPE   O1416441   0.771   2.629  10.930  0.1948 -0.0064 -0.4096
  149SAPE   O1216442   0.876   2.500  11.126  0.1376  0.0521  0.2135
  149SAPE   O1116443   0.962   2.472  10.902  0.0008  0.1374  0.0463
  149SAPE    C116444   1.033   2.348  10.915  0.1995  0.5776 -0.6728
  149SAPE    HA16445   1.106   2.352  10.999 -1.8056  2.1831  1.1296
  149SAPE    HB16446   0.980   2.253  10.938  0.2632  0.7130  0.0782
  149SAPE    C216447   1.110   2.306  10.786 -0.5096  0.4703  1.1801
  149SAPE    HS16448   1.183   2.234  10.829 -0.3485  0.8696  1.5891
  149SAPE   O2116449   1.176   2.423  10.740 -0.1934  0.6577  0.1060
  149SAPE   C2116450   1.286   2.399  10.672  0.1407 -0.3523 -0.1944
  149SAPE   O2216451   1.346   2.294  10.673  0.3699 -0.3142  0.2283
  149SAPE   C2216452   1.329   2.523  10.592  0.1134 -0.1126  0.2784
  149SAPE   H2R16453   1.239   2.572  10.548  0.0916 -1.4550 -1.2233
  149SAPE   H2S16454   1.396   2.592  10.648  1.9565  0.4581 -2.4763
  149SAPE    C316455   1.025   2.239  10.680  0.4479 -0.4923 -0.0461
  149SAPE    HX16456   0.945   2.308  10.644  3.7670  3.9331  0.3055
  149SAPE    HY16457   0.974   2.146  10.712  0.9445 -1.5708 -2.1766
  149SAPE   O3116458   1.094   2.203  10.562 -0.5123 -0.1907  0.1540
  149SAPE   C3116459   1.155   2.090  10.555 -0.1186 -0.0986  0.0657
  149SAPE   O3216460   1.152   1.999  10.636 -0.2771 -0.1352  0.2536
  149SAPE   C3216461   1.220   2.093  10.413 -1.0700 -0.5874 -0.4942
  149SAPE   H2X16462   1.256   1.991  10.386  1.6253 -0.1097  0.9241
  149SAPE   H2Y16463   1.302   2.167  10.423 -0.1918 -1.4991 -0.6981
  149SAPE   C2316464   1.420   2.482  10.470  0.1143  0.2063 -0.2928
  149SAPE   H3R16465   1.369   2.418  10.395  1.9327  0.7518 -2.1027
  149SAPE   H3S16466   1.504   2.420  10.508 -0.5706 -0.0680  0.7963
  149SAPE   C2416467   1.467   2.613  10.406 -0.6729  0.3049  0.3125
  149SAPE   H4R16468   1.547   2.579  10.336 -1.4722 -1.3811  0.1855
  149SAPE   H4S16469   1.526   2.671  10.480  1.0408  0.0793 -0.8050
  149SAPE   C2516470   1.360   2.699  10.340 -0.3003  0.7044  0.4298
  149SAPE   H5R16471   1.321   2.782  10.403 -0.1397  1.9026 -0.9928
  149SAPE   C2616472   1.309   2.682  10.212  0.1871  0.1869  0.0008
  149SAPE   H6R16473   1.233   2.755  10.182 -0.7828  0.5772  3.0618
  149SAPE   C2716474   1.348   2.571  10.118 -0.1133  0.1579 -0.4911
  149SAPE   H7R16475   1.390   2.480  10.167  1.1139  0.1887 -1.4190
  149SAPE   H7S16476   1.442   2.599  10.066  0.1946 -0.2876 -0.1824
  149SAPE   C2816477   1.236   2.541  10.028  0.7986 -0.3929  0.6911
  149SAPE   H8R16478   1.136   2.523  10.070 -0.5008 -0.8136 -2.3405
  149SAPE   C2916479   1.229   2.563   9.894  0.4974 -0.6240  0.3324
  149SAPE   H9R16480   1.137   2.536   9.841 -0.2120 -0.5510  1.4993
  149SAPE  C21016481   1.339   2.621   9.809  0.4296 -1.0764 -0.5768
  149SAPE  H10R16482   1.428   2.651   9.869 -0.5500 -0.1366  0.4642
  149SAPE  H10S16483   1.305   2.722   9.778 -0.8696 -0.8922  1.2719
  149SAPE  C21116484   1.374   2.535   9.693  0.1959 -1.0222 -0.2373
  149SAPE  H11R16485   1.412   2.437   9.724 -1.1895 -1.1268  1.2592
  149SAPE  C21216486   1.361   2.569   9.565 -0.2796 -0.7709  0.2950
  149SAPE  H12R16487   1.393   2.494   9.491 -0.4556  0.6461 -1.2797
  149SAPE  C21316488   1.292   2.696   9.519 -0.5024 -0.1965 -0.8902
  149SAPE  H13R16489   1.367   2.734   9.446  0.6287 -0.0533  0.3139
  149SAPE  H13S16490   1.278   2.775   9.595 -0.5253 -0.5039 -0.5729
  149SAPE  C21416491   1.165   2.664   9.446 -0.7071  0.4191  0.3089
  149SAPE  H14R16492   1.098   2.601   9.507  1.7056 -1.0148  1.6295
  149SAPE  C21516493   1.121   2.694   9.324  0.4624 -0.2745  0.8144
  149SAPE  H15R16494   1.023   2.659   9.289 -0.1639  1.7993  0.3405
  149SAPE  C21616495   1.208   2.772   9.228  0.7183 -0.5663  0.1483
  149SAPE  H16R16496   1.313   2.737   9.237  0.6981 -0.1837  2.2875
  149SAPE  H16S16497   1.199   2.880   9.251 -3.1639 -0.2252 -2.1026
  149SAPE  C21716498   1.158   2.746   9.087 -0.1728 -0.2180 -0.0130
  149SAPE  H17R16499   1.203   2.821   9.018 -1.3204  1.2381  0.7531
  149SAPE  H17S16500   1.051   2.775   9.079  0.0714  1.7080  2.5045
  149SAPE  C21816501   1.176   2.610   9.019  0.4941 -0.0682  0.0751
  149SAPE  H18R16502   1.120   2.537   9.082 -0.4466  1.9176  1.6662
  149SAPE  H18S16503   1.280   2.580   8.996  1.5556  2.7583  0.7336
  149SAPE  C21916504   1.104   2.614   8.884 -0.5731  0.0746  0.3403
  149SAPE  H19R16505   1.166   2.681   8.820 -0.2750  0.0140  0.5637
  149SAPE  H19S16506   1.002   2.655   8.896 -0.4102  1.0212 -1.2548
  149SAPE  C22016507   1.089   2.481   8.811 -0.6556  0.6843 -0.0291
  149SAPE  H20R16508   1.188   2.433   8.799 -1.6193 -1.2568 -0.5644
  149SAPE  H20S16509   1.035   2.501   8.716  1.1438 -1.5832 -1.6468
  149SAPE  H20T16510   1.034   2.403   8.868 -2.4232  1.7313 -0.2179
  149SAPE   C3316511   1.118   2.138  10.303  0.4054 -0.3453 -0.1799
  149SAPE   H3X16512   1.059   2.230  10.323 -0.0201 -0.5243 -0.6272
  149SAPE   H3Y16513   1.045   2.055  10.308  0.3062 -0.2203  0.7538
  149SAPE   C3416514   1.181   2.143  10.171  0.7023  0.2403  0.0668
  149SAPE   H4X16515   1.249   2.055  10.162  1.5490  0.8468  0.3377
  149SAPE   H4Y16516   1.246   2.234  10.172  1.8389 -0.5465  1.1160
  149SAPE   C3516517   1.081   2.154  10.051  0.3611  0.2037 -0.1749
  149SAPE   H5X16518   1.036   2.255  10.056 -0.6132 -0.1203 -1.7540
  149SAPE   H5Y16519   1.005   2.073  10.044  1.7538 -1.0952 -1.2472
  149SAPE   C3616520   1.168   2.153   9.926 -0.9222 -0.5807 -0.1255
  149SAPE   H6X16521   1.218   2.054   9.921  2.1643  0.7075  2.3245
  149SAPE   H6Y16522   1.252   2.224   9.936 -1.4133  0.2604 -1.5812
  149SAPE   C3716523   1.107   2.193   9.790  0.2005 -0.1172  0.6891
  149SAPE   H7X16524   1.093   2.303   9.800  1.0620  0.1454 -0.6141
  149SAPE   H7Y16525   1.005   2.150   9.782 -0.2132  0.5874  1.9349
  149SAPE   C3816526   1.189   2.177   9.660  0.0218  0.3953 -0.2441
  149SAPE   H8X16527   1.188   2.072   9.624  0.8165  0.3218 -0.0663
  149SAPE   H8Y16528   1.290   2.208   9.694  0.1773 -0.0437 -0.3044
  149SAPE   C3916529   1.143   2.268   9.543  0.3636  0.4246 -0.2293
  149SAPE   H9X16530   1.152   2.378   9.553  3.6488  0.3965 -1.4755
  149SAPE   H9Y16531   1.036   2.247   9.523  0.2643 -1.2486  1.6477
  149SAPE  C31016532   1.215   2.246   9.409  0.2252 -0.0493  0.0235
  149SAPE  H10X16533   1.325   2.235   9.421  0.0492 -0.4357  1.4484
  149SAPE  H10Y16534   1.192   2.336   9.348 -1.4903 -0.3896  0.1198
  149SAPE  C31116535   1.157   2.123   9.331 -0.0453 -0.5100  0.1061
  149SAPE  H11X16536   1.143   2.045   9.410 -2.8293 -1.1510 -0.8954
  149SAPE  H11Y16537   1.221   2.077   9.252  1.1189 -0.3346  0.9179
  149SAPE  C31216538   1.019   2.139   9.273 -0.1882 -0.5196 -0.0650
  149SAPE  H12X16539   0.949   2.169   9.354  0.6940 -0.9165  0.8773
  149SAPE  H12Y16540   0.985   2.036   9.247 -0.7955 -0.3790  0.1569
  149SAPE  C31316541   1.013   2.245   9.155  0.0606 -0.0182 -0.3459
  149SAPE  H13X16542   1.070   2.199   9.071 -0.1950 -0.0126 -0.5232
  149SAPE  H13Y16543   1.049   2.341   9.198  0.7053 -0.1317 -0.6185
  149SAPE  C31416544   0.870   2.277   9.105 -0.2708  0.5080 -0.3364
  149SAPE  H14X16545   0.876   2.369   9.043 -0.2848 -0.3648 -1.7030
  149SAPE  H14Y16546   0.802   2.297   9.191  0.3792 -2.0319  0.8678
  149SAPE  C31516547   0.807   2.159   9.026  1.0220  0.2000 -0.5097
  149SAPE  H15X16548   0.697   2.178   9.024  0.8858  0.0543  1.9918
  149SAPE  H15Y16549   0.835   2.065   9.079 -0.5087  0.5437  1.0107
  149SAPE  C31616550   0.849   2.131   8.876  0.7060 -0.5326 -0.6350
  149SAPE  H16X16551   0.957   2.125   8.853  0.9398 -0.5702  0.4415
  149SAPE  H16Y16552   0.808   2.218   8.820 -0.2005 -0.4734  0.1003
  149SAPE  C31716553   0.787   2.003   8.818 -0.2529  0.4002 -0.6108
  149SAPE  H17X16554   0.676   2.002   8.827 -0.1438  0.7922  1.1243
  149SAPE  H17Y16555   0.820   1.910   8.868  2.1665  1.5962  0.2078
  149SAPE  C31816556   0.813   1.988   8.671  0.0899 -0.3007  0.1166
  149SAPE  H18X16557   0.758   1.898   8.636 -2.7872  1.0235  0.9497
  149SAPE  H18Y16558   0.916   1.975   8.631 -0.5494 -4.3796 -0.7196
  149SAPE  H18Z16559   0.773   2.076   8.617  1.1305 -0.9220 -1.7743
  150SAPE     N16560   2.769   2.031  10.850  0.3236 -0.6802 -0.6890
  150SAPE   HN116561   2.675   2.040  10.808 -1.4621  0.9793  3.2497
  150SAPE   HN216562   2.757   2.006  10.950  1.6551  0.5879 -0.1719
  150SAPE   HN316563   2.811   2.126  10.845 -0.0128 -0.2001  2.9265
  150SAPE   C1216564   2.854   1.932  10.775  0.5460  0.3205  0.1899
  150SAPE  H12A16565   2.957   1.958  10.804  0.2185  3.4211 -1.0847
  150SAPE  H12B16566   2.859   1.955  10.666 -2.8925  1.1305  0.0740
  150SAPE   C1116567   2.813   1.788  10.804  0.9561 -0.4712 -0.1788
  150SAPE  H11A16568   2.829   1.772  10.913  2.0013 -1.1313 -0.4139
  150SAPE  H11B16569   2.890   1.727  10.754  1.4326 -0.1047  0.1002
  150SAPE     P16570   2.644   1.610  10.766  0.3792  0.0744 -0.2305
  150SAPE   O1316571   2.718   1.541  10.876 -0.2072 -0.0740  0.3971
  150SAPE   O1416572   2.496   1.605  10.777 -0.4372 -0.3121  0.9607
  150SAPE   O1216573   2.688   1.758  10.755  0.0564  0.0890  0.2321
  150SAPE   O1116574   2.688   1.554  10.630  0.3129  0.0453 -0.1306
  150SAPE    C116575   2.691   1.635  10.513  0.1739 -0.0925 -1.0538
  150SAPE    HA16576   2.752   1.727  10.524  0.3868 -0.4422  1.0684
  150SAPE    HB16577   2.742   1.587  10.426  2.1432 -0.4531  0.2442
  150SAPE    C216578   2.545   1.680  10.464  0.2043  0.1830 -0.1726
  150SAPE    HS16579   2.491   1.743  10.538 -0.8341  0.6415 -1.2793
  150SAPE   O2116580   2.486   1.554  10.434  0.0389  0.1404 -0.0665
  150SAPE   C2116581   2.350   1.550  10.466 -0.1297 -0.1033 -0.4775
  150SAPE   O2216582   2.293   1.645  10.520  0.1552  0.4946  0.3765
  150SAPE   C2216583   2.275   1.428  10.411 -0.8289 -0.3869 -0.6256
  150SAPE   H2R16584   2.349   1.347  10.390  0.9855  0.9292  0.4438
  150SAPE   H2S16585   2.198   1.402  10.487 -1.8065  0.6967 -1.2247
  150SAPE    C316586   2.551   1.757  10.328 -0.4610 -0.0695 -0.0441
  150SAPE    HX16587   2.443   1.762  10.302 -0.5209 -1.0857 -0.0428
  150SAPE    HY16588   2.609   1.700  10.252 -2.4321  1.1662 -2.6320
  150SAPE   O3116589   2.606   1.888  10.347  0.1608 -0.4436  0.6162
  150SAPE   C3116590   2.516   1.993  10.331 -0.8637  0.2236 -0.3290
  150SAPE   O3216591   2.398   1.986  10.331  0.1449  0.5186  0.0079
  150SAPE   C3216592   2.596   2.116  10.306 -0.4132  0.1382  0.2983
  150SAPE   H2X16593   2.699   2.112  10.347  0.2184 -0.2178 -1.2362
  150SAPE   H2Y16594   2.542   2.196  10.361 -2.6044 -0.7986 -0.3764
  150SAPE   C2316595   2.185   1.463  10.287 -0.0486  0.3268  0.2425
  150SAPE   H3R16596   2.149   1.568  10.293 -0.6797  0.0397  2.2322
  150SAPE   H3S16597   2.104   1.386  10.283  0.5686 -0.2929 -0.6870
  150SAPE   C2416598   2.272   1.447  10.156 -0.1242 -0.7504  0.1672
  150SAPE   H4R16599   2.326   1.351  10.171 -0.7837 -1.1166  0.2390
  150SAPE   H4S16600   2.344   1.531  10.142  0.0173 -0.6519  1.3833
  150SAPE   C2516601   2.197   1.432  10.029  0.0456  1.4370  0.1044
  150SAPE   H5R16602   2.088   1.414  10.030  0.3790 -1.0231 -0.7376
  150SAPE   C2616603   2.253   1.435   9.907 -0.3598 -0.9492  0.6414
  150SAPE   H6R16604   2.184   1.432   9.821  0.5365 -1.7286 -0.0698
  150SAPE   C2716605   2.402   1.450   9.880 -0.2469  0.4499 -0.4357
  150SAPE   H7R16606   2.418   1.388   9.789 -0.7793 -1.4339  0.6977
  150SAPE   H7S16607   2.466   1.401   9.956 -0.5930 -0.9323 -1.0009
  150SAPE   C2816608   2.440   1.596   9.876 -0.6640  0.3370 -0.0516
  150SAPE   H8R16609   2.367   1.669   9.914 -0.2870  1.4907 -1.4280
  150SAPE   C2916610   2.557   1.651   9.833  0.0851 -0.2211  0.6833
  150SAPE   H9R16611   2.571   1.760   9.838  1.0463 -0.3244  0.4725
  150SAPE  C21016612   2.685   1.578   9.778  0.4955 -0.2143  0.2423
  150SAPE  H10R16613   2.654   1.486   9.725  0.3385  1.2942 -2.4615
  150SAPE  H10S16614   2.752   1.554   9.864  1.0099  0.7789  0.1353
  150SAPE  C21116615   2.757   1.667   9.679  0.5775 -0.4907 -0.1478
  150SAPE  H11R16616   2.819   1.741   9.731 -1.6398  0.4865  1.2503
  150SAPE  C21216617   2.767   1.673   9.549  0.7785  0.1620  0.1336
  150SAPE  H12R16618   2.828   1.751   9.501 -1.4887  0.1120 -3.1255
  150SAPE  C21316619   2.699   1.587   9.444 -0.8940  0.7045 -0.4589
  150SAPE  H13R16620   2.738   1.484   9.455  0.5692  1.2077 -0.8275
  150SAPE  H13S16621   2.741   1.626   9.349  1.9807  0.0919  0.4731
  150SAPE  C21416622   2.545   1.588   9.445 -0.3632  0.0716 -0.1572
  150SAPE  H14R16623   2.500   1.619   9.540 -0.5572 -1.2440  0.2007
  150SAPE  C21516624   2.472   1.548   9.340  0.1183 -0.0391  0.3720
  150SAPE  H15R16625   2.364   1.562   9.357  0.1750  3.2800 -1.2830
  150SAPE  C21616626   2.521   1.501   9.204  0.0869 -0.2626  0.2044
  150SAPE  H16R16627   2.514   1.390   9.202  0.2939 -0.2757  0.2100
  150SAPE  H16S16628   2.630   1.519   9.195  0.2756 -0.9703  1.0057
  150SAPE  C21716629   2.445   1.561   9.087  0.2535 -0.3100  0.7370
  150SAPE  H17R16630   2.476   1.668   9.078 -0.0937 -0.1487  1.3948
  150SAPE  H17S16631   2.336   1.552   9.109 -0.2001  0.1641 -1.1598
  150SAPE  C21816632   2.477   1.485   8.958 -0.2598 -0.1655 -0.0790
  150SAPE  H18R16633   2.432   1.384   8.969 -0.1946 -0.4212 -1.8721
  150SAPE  H18S16634   2.587   1.469   8.954 -0.2942 -0.7956  1.1824
  150SAPE  C21916635   2.419   1.546   8.835  0.4365 -0.2830  1.7548
  150SAPE  H19R16636   2.500   1.582   8.766 -1.8089  2.9367  0.5495
  150SAPE  H19S16637   2.379   1.644   8.866 -1.5046 -1.3477  2.7604
  150SAPE  C22016638   2.308   1.460   8.768 -0.3924  0.4721 -0.0811
  150SAPE  H20R16639   2.233   1.444   8.849 -0.7133  0.7201 -0.3253
  150SAPE  H20S16640   2.341   1.363   8.725 -0.4147 -0.5543  2.1008
  150SAPE  H20T16641   2.264   1.518   8.684 -1.0599  0.4541  0.2480
  150SAPE   C3316642   2.617   2.154  10.156  0.7424 -0.0234  0.3003
  150SAPE   H3X16643   2.662   2.255  10.154 -0.9413  0.9651  3.6918
  150SAPE   H3Y16644   2.518   2.169  10.107 -0.4101 -0.4998  2.3159
  150SAPE   C3416645   2.701   2.058  10.073  0.1161 -0.1260 -0.3078
  150SAPE   H4X16646   2.654   1.958  10.078 -0.8188  0.3189  0.1716
  150SAPE   H4Y16647   2.800   2.040  10.119 -0.8002 -1.0977  1.4112
  150SAPE   C3516648   2.711   2.124   9.933 -0.5415  0.2604 -0.2960
  150SAPE   H5X16649   2.764   2.222   9.934  1.5028 -0.7867  1.3163
  150SAPE   H5Y16650   2.608   2.131   9.891 -1.5262 -2.0306  1.4992
  150SAPE   C3616651   2.799   2.041   9.838 -0.5289 -0.4658 -0.2668
  150SAPE   H6X16652   2.765   1.936   9.846  1.8159 -1.1555  3.1614
  150SAPE   H6Y16653   2.901   2.036   9.882 -0.6067 -0.3874 -0.0773
  150SAPE   C3716654   2.799   2.095   9.695  0.0700  0.7009  1.0184
  150SAPE   H7X16655   2.835   2.200   9.689 -0.5568  0.8293 -2.8273
  150SAPE   H7Y16656   2.695   2.083   9.658  0.4398 -1.9595  0.6039
  150SAPE   C3816657   2.893   2.007   9.610  0.0343  0.1707  0.0304
  150SAPE   H8X16658   2.883   1.899   9.635 -2.0147  0.0177 -1.2690
  150SAPE   H8Y16659   2.999   2.040   9.616 -0.1210  0.4808  1.6367
  150SAPE   C3916660   2.862   2.009   9.463  0.2429  0.7293 -0.5671
  150SAPE   H9X16661   2.827   2.113   9.445  2.4819  1.6331 -0.0123
  150SAPE   H9Y16662   2.775   1.944   9.440  0.4642  0.1972  0.0991
  150SAPE  C31016663   2.992   1.971   9.386  0.5730  0.5128  0.0212
  150SAPE  H10X16664   3.035   1.881   9.435  0.9332 -0.3172 -1.7370
  150SAPE  H10Y16665   3.063   2.056   9.395 -0.1741  1.2741 -1.0518
  150SAPE  C31116666   2.958   1.931   9.245  0.2503  0.8007  0.7790
  150SAPE  H11X16667   2.871   1.866   9.223  0.2819  0.7013  0.9444
  150SAPE  H11Y16668   3.045   1.880   9.198  0.1654  0.9922  0.4057
  150SAPE  C31216669   2.934   2.048   9.153  0.0922 -0.8568  0.2332
  150SAPE  H12X16670   3.021   2.117   9.150 -0.3325 -0.3521 -0.5895
  150SAPE  H12Y16671   2.849   2.104   9.196  0.8909 -0.3443  1.1834
  150SAPE  C31316672   2.911   2.012   9.008 -0.5135  0.5863  0.3868
  150SAPE  H13X16673   2.833   1.934   9.001 -0.8092  0.8693  0.5296
  150SAPE  H13Y16674   3.008   1.971   8.973 -1.8783 -1.2020 -1.5774
  150SAPE  C31416675   2.863   2.132   8.919  0.8736  0.0534 -0.2266
  150SAPE  H14X16676   2.891   2.224   8.975  0.0950 -1.2266  2.4270
  150SAPE  H14Y16677   2.752   2.132   8.916  0.8748  1.3560 -0.5985
  150SAPE  C31516678   2.923   2.132   8.785 -0.2960 -0.1640 -0.1382
  150SAPE  H15X16679   3.033   2.115   8.787 -0.0079  1.5546  0.8601
  150SAPE  H15Y16680   2.905   2.235   8.747 -2.5769 -0.0558  1.0140
  150SAPE  C31616681   2.878   2.016   8.698  0.3446 -0.5267  0.0457
  150SAPE  H16X16682   2.771   2.024   8.669  0.4084 -1.0624 -0.3418
  150SAPE  H16Y16683   2.880   1.924   8.760 -2.9236 -0.6328  0.1801
  150SAPE  C31716684   2.960   1.996   8.568  0.0579  0.5803  0.1385
  150SAPE  H17X16685   3.070   1.999   8.588  0.5439 -2.5986 -1.3284
  150SAPE  H17Y16686   2.932   2.080   8.502 -3.3496 -0.0188  0.6624
  150SAPE  C31816687   2.943   1.859   8.488  0.5533 -0.0740  0.1487
  150SAPE  H18X16688   2.840   1.857   8.448  0.4344  0.0965  0.4409
  150SAPE  H18Y16689   2.953   1.773   8.558  1.4804 -0.0387  0.0707
  150SAPE  H18Z16690   3.015   1.861   8.403 -0.5174 -0.0288 -0.7764
  151SAPE     N16691   5.940   5.941  10.391  0.1293 -0.8613  0.8326
  151SAPE   HN116692   5.883   5.993  10.460  0.3102  1.7043 -0.8181
  151SAPE   HN216693   5.940   5.841  10.422 -0.0569 -1.3155 -0.5545
  151SAPE   HN316694   6.037   5.979  10.395 -0.1135 -0.0876 -0.1613
  151SAPE   C1216695   5.880   5.951  10.259  0.0527  0.3868 -0.6626
  151SAPE  H12A16696   5.954   5.912  10.187  1.5792  3.9602 -1.2208
  151SAPE  H12B16697   5.857   6.058  10.240  1.9487  1.0639  0.5850
  151SAPE   C1116698   5.748   5.878  10.262 -0.0323 -0.6060  0.2482
  151SAPE  H11A16699   5.774   5.773  10.285  0.1216 -0.9486 -1.3619
  151SAPE  H11B16700   5.698   5.883  10.163 -0.5715 -1.0230  0.4963
  151SAPE     P16701   5.558   6.032  10.361 -0.0227  0.3509  0.1896
  151SAPE   O1316702   5.472   6.018  10.484 -0.8780  0.0702  0.3650
  151SAPE   O1416703   5.606   6.163  10.324  0.8007 -0.1534  0.2049
  151SAPE   O1216704   5.677   5.934  10.373  0.2636  0.4719  0.2773
  151SAPE   O1116705   5.473   5.973  10.240  0.0424  0.2113 -0.8140
  151SAPE    C116706   5.414   5.847  10.252  0.2999 -0.2478 -0.5891
  151SAPE    HA16707   5.489   5.774  10.287 -1.0463 -1.7007 -0.6577
  151SAPE    HB16708   5.341   5.849  10.336  0.6948 -2.3834 -0.1453
  151SAPE    C216709   5.328   5.809  10.127  0.3075 -0.5546  0.5643
  151SAPE    HS16710   5.280   5.713  10.155  0.2860 -1.2160 -1.5388
  151SAPE   O2116711   5.416   5.802  10.009  0.4124  0.4381  0.3619
  151SAPE   C2116712   5.499   5.704  10.012 -0.2322 -0.1169  0.0281
  151SAPE   O2216713   5.488   5.606  10.086 -0.5066  0.4037 -0.3176
  151SAPE   C2216714   5.597   5.723   9.905 -0.8466 -0.0251  0.2673
  151SAPE   H2R16715   5.568   5.676   9.809 -0.1833  1.0274 -0.4696
  151SAPE   H2S16716   5.608   5.831   9.882  3.4341  0.0500  1.6705
  151SAPE    C316717   5.220   5.916  10.102  0.1759  0.2748  0.0976
  151SAPE    HX16718   5.275   6.005  10.065 -0.7329  0.0797 -1.8812
  151SAPE    HY16719   5.174   5.939  10.200 -2.3177  2.5999 -1.4675
  151SAPE   O3116720   5.113   5.870  10.011 -0.1645  0.4122  0.4273
  151SAPE   C3116721   4.998   5.934  10.027  0.4709  1.1928 -0.0411
  151SAPE   O3216722   4.976   6.030  10.097  0.1008  0.2851 -0.0090
  151SAPE   C3216723   4.888   5.837   9.967  0.0566  0.4611 -0.1929
  151SAPE   H2X16724   4.793   5.848  10.023 -0.1294  2.4729 -0.8366
  151SAPE   H2Y16725   4.915   5.730   9.984 -0.6891  0.2143 -0.5387
  151SAPE   C2316726   5.743   5.674   9.945 -0.1892  0.3400 -0.1421
  151SAPE   H3R16727   5.732   5.565   9.964 -0.2940  0.0796 -1.5578
  151SAPE   H3S16728   5.775   5.726  10.037 -0.4831  1.6241 -0.7347
  151SAPE   C2416729   5.856   5.688   9.836  0.4963  0.2449 -0.0332
  151SAPE   H4R16730   5.843   5.794   9.803 -0.7070 -0.7431 -3.0828
  151SAPE   H4S16731   5.841   5.625   9.746 -0.6583 -0.1443  0.4090
  151SAPE   C2516732   5.997   5.683   9.896  0.2187 -0.0577 -0.8863
  151SAPE   H5R16733   5.995   5.683  10.006  0.0818 -1.6982 -0.8548
  151SAPE   C2616734   6.101   5.625   9.835  1.0903 -0.6262  0.0168
  151SAPE   H6R16735   6.193   5.628   9.895 -0.2783 -0.5628  2.2575
  151SAPE   C2716736   6.092   5.574   9.696  0.3150 -0.5174  0.1824
  151SAPE   H7R16737   6.075   5.659   9.626  0.3974 -1.9549 -1.6483
  151SAPE   H7S16738   6.006   5.505   9.684 -0.5076  0.4391  0.3284
  151SAPE   C2816739   6.230   5.506   9.672  0.4061  0.5725  0.2297
  151SAPE   H8R16740   6.292   5.492   9.761 -0.1151 -0.9386  0.3747
  151SAPE   C2916741   6.280   5.480   9.552  0.2821 -0.5622  0.2059
  151SAPE   H9R16742   6.380   5.435   9.549  1.2027  1.3569  0.5570
  151SAPE  C21016743   6.197   5.495   9.423 -0.0988  0.0679 -0.3034
  151SAPE  H10R16744   6.238   5.577   9.359  0.7226 -0.1379 -0.0566
  151SAPE  H10S16745   6.090   5.522   9.436  0.5364  1.8812  1.6240
  151SAPE  C21116746   6.202   5.370   9.342 -0.7942  0.5756 -0.6811
  151SAPE  H11R16747   6.241   5.283   9.397  0.1669  2.3213  1.5644
  151SAPE  C21216748   6.165   5.352   9.217  0.6440  0.0111  0.4802
  151SAPE  H12R16749   6.192   5.252   9.180  1.1798 -0.5106  2.1451
  151SAPE  C21316750   6.102   5.448   9.123  0.2504 -0.0277  1.0707
  151SAPE  H13R16751   6.184   5.479   9.054  1.1716  0.3916  2.3160
  151SAPE  H13S16752   6.085   5.540   9.183  0.5900  0.3216  0.6463
  151SAPE  C21416753   5.983   5.375   9.057 -0.0217  0.0180 -0.2969
  151SAPE  H14R16754   6.002   5.278   9.007 -0.7423 -0.4137  0.2451
  151SAPE  C21516755   5.860   5.426   9.046  0.0880  0.0448 -0.2263
  151SAPE  H15R16756   5.782   5.374   8.990 -2.0852 -0.6172  3.0951
  151SAPE  C21616757   5.815   5.554   9.105  0.8501  0.0640  0.3143
  151SAPE  H16R16758   5.722   5.586   9.055  0.9669  0.6754  0.4758
  151SAPE  H16S16759   5.884   5.638   9.081  1.1105 -0.5971 -1.4057
  151SAPE  C21716760   5.793   5.555   9.251 -0.1812  0.2791 -0.1082
  151SAPE  H17R16761   5.885   5.555   9.314 -0.6844  2.6691  0.7512
  151SAPE  H17S16762   5.733   5.470   9.289  3.0557 -1.9306  0.4755
  151SAPE  C21816763   5.727   5.685   9.304  0.1340 -0.4404 -0.1379
  151SAPE  H18R16764   5.637   5.708   9.243  0.6630 -1.5877 -1.3853
  151SAPE  H18S16765   5.799   5.760   9.267 -0.8441 -0.2895 -1.8341
  151SAPE  C21916766   5.712   5.699   9.457  0.4343  0.3926  0.1010
  151SAPE  H19R16767   5.811   5.670   9.500  0.4378  3.0801  2.1796
  151SAPE  H19S16768   5.640   5.618   9.479  0.1489  0.3530 -0.9467
  151SAPE  C22016769   5.648   5.820   9.517  0.1233  0.8352  0.2452
  151SAPE  H20R16770   5.636   5.798   9.625 -1.7039  1.4591  0.2129
  151SAPE  H20S16771   5.545   5.843   9.482 -0.4069 -0.5042  0.8879
  151SAPE  H20T16772   5.713   5.911   9.518 -1.2967  1.9451 -1.5759
  151SAPE   C3316773   4.866   5.865   9.818  0.1177  0.3579  0.0392
  151SAPE   H3X16774   4.955   5.852   9.753  0.3220  1.9931 -0.0630
  151SAPE   H3Y16775   4.830   5.970   9.811  2.7642  1.3176 -0.3950
  151SAPE   C3416776   4.760   5.768   9.759 -0.3163 -0.3006 -0.5693
  151SAPE   H4X16777   4.676   5.777   9.831  0.1461  0.3536 -0.0939
  151SAPE   H4Y16778   4.802   5.665   9.762  0.0410 -0.2097 -1.8185
  151SAPE   C3516779   4.721   5.801   9.621  0.6369  0.4303  0.4396
  151SAPE   H5X16780   4.800   5.809   9.543  0.9930 -0.9789  0.6373
  151SAPE   H5Y16781   4.669   5.899   9.631  0.8274  0.3729  2.2621
  151SAPE   C3616782   4.616   5.692   9.569  0.3643 -0.0868  0.1984
  151SAPE   H6X16783   4.553   5.652   9.651 -0.1235 -0.7290 -0.4783
  151SAPE   H6Y16784   4.673   5.602   9.537 -1.5703 -2.6206  3.2889
  151SAPE   C3716785   4.535   5.759   9.459 -0.1776  0.2157  0.0275
  151SAPE   H7X16786   4.609   5.784   9.379 -0.1079  0.4612  0.1689
  151SAPE   H7Y16787   4.476   5.840   9.505 -1.8229  0.5911 -2.5598
  151SAPE   C3816788   4.438   5.673   9.393  0.6426  0.6445 -0.6812
  151SAPE   H8X16789   4.395   5.606   9.471 -1.2235  1.0377 -1.3069
  151SAPE   H8Y16790   4.501   5.607   9.331  0.9451  0.1210  0.1669
  151SAPE   C3916791   4.325   5.729   9.312 -0.1181 -0.0116 -0.4101
  151SAPE   H9X16792   4.269   5.805   9.371 -2.0348 -1.2634 -0.5257
  151SAPE   H9Y16793   4.252   5.650   9.286  0.0327 -1.6812  3.5206
  151SAPE  C31016794   4.380   5.796   9.183  0.4260 -0.2900 -0.2570
  151SAPE  H10X16795   4.456   5.725   9.144 -2.6601 -2.0618 -3.7047
  151SAPE  H10Y16796   4.425   5.886   9.230  0.7432 -1.6964  2.3171
  151SAPE  C31116797   4.266   5.824   9.091 -0.1294  0.9016  0.6174
  151SAPE  H11X16798   4.183   5.880   9.139 -0.2846  0.2374  1.1364
  151SAPE  H11Y16799   4.237   5.724   9.053  2.7051 -0.0884  0.8681
  151SAPE  C31216800   4.291   5.912   8.966 -0.0972  0.3854  0.1125
  151SAPE  H12X16801   4.377   5.879   8.905 -0.3767  0.1788 -0.1747
  151SAPE  H12Y16802   4.299   6.012   9.015 -1.7035 -0.0959  1.4866
  151SAPE  C31316803   4.174   5.927   8.872 -0.3485  0.3347  0.7562
  151SAPE  H13X16804   4.084   5.941   8.936  0.0004  1.4910  1.0208
  151SAPE  H13Y16805   4.167   5.825   8.830  2.0772  0.2578  0.3916
  151SAPE  C31416806   4.177   6.037   8.762  0.4699  0.0280 -0.1221
  151SAPE  H14X16807   4.189   6.130   8.821 -0.2719 -1.6135  2.8309
  151SAPE  H14Y16808   4.083   6.049   8.704  0.5558  1.4644  0.0078
  151SAPE  C31516809   4.293   6.017   8.664  0.4719 -0.2321  0.5923
  151SAPE  H15X16810   4.277   5.933   8.594  1.1869  1.4735 -1.7268
  151SAPE  H15Y16811   4.381   5.997   8.728 -0.4939 -0.0016  2.0477
  151SAPE  C31616812   4.318   6.151   8.589  0.2712  0.2066  0.3229
  151SAPE  H16X16813   4.339   6.221   8.673 -0.1719  0.8017 -0.0561
  151SAPE  H16Y16814   4.222   6.181   8.542  1.5051  2.4595 -0.9218
  151SAPE  C31716815   4.439   6.142   8.499 -0.2000 -0.4906  0.3719
  151SAPE  H17X16816   4.427   6.076   8.410 -1.2965  0.8502 -0.5290
  151SAPE  H17Y16817   4.523   6.105   8.561  0.1786 -1.5149 -0.7019
  151SAPE  C31816818   4.489   6.278   8.439 -0.6934  0.7803 -0.8308
  151SAPE  H18X16819   4.429   6.312   8.351  0.9403  2.5437 -1.3290
  151SAPE  H18Y16820   4.597   6.266   8.416 -0.8043  0.0647 -0.9889
  151SAPE  H18Z16821   4.482   6.352   8.522 -0.3013 -0.2368  0.1221
  152SAPE     N16822   0.213   5.597  10.607 -0.0903 -0.1417 -0.0339
  152SAPE   HN116823   0.282   5.651  10.551  0.0460  0.1794  0.4440
  152SAPE   HN216824   0.153   5.663  10.660  1.7150 -0.4388  2.5227
  152SAPE   HN316825   0.268   5.542  10.676  0.5378  1.9554  1.2314
  152SAPE   C1216826   0.147   5.500  10.515  0.2343 -0.8324  0.5984
  152SAPE  H12A16827   0.048   5.468  10.553 -0.7497 -0.4046 -1.4795
  152SAPE  H12B16828   0.202   5.407  10.488  1.1127  0.2910 -1.8100
  152SAPE   C1116829   0.127   5.576  10.383 -0.4079  0.4330  0.1182
  152SAPE  H11A16830   0.087   5.510  10.303  1.0793  0.6077 -0.7907
  152SAPE  H11B16831   0.228   5.595  10.342 -0.1478  0.7921  0.9123
  152SAPE     P16832  -0.075   5.730  10.408  0.4867 -0.0281  0.2654
  152SAPE   O1316833  -0.133   5.615  10.484  0.1713 -0.7411  0.4524
  152SAPE   O1416834  -0.091   5.868  10.459  0.0905  0.3197  0.0889
  152SAPE   O1216835   0.072   5.706  10.386  0.1920  0.1076 -0.2332
  152SAPE   O1116836  -0.125   5.728  10.259 -0.1446 -0.8409 -0.2350
  152SAPE    C116837  -0.057   5.822  10.168  0.0341  0.2224 -0.5932
  152SAPE    HA16838  -0.083   5.929  10.184 -0.1225 -0.0404  1.0661
  152SAPE    HB16839   0.051   5.797  10.177 -0.6856 -2.7102  1.0619
  152SAPE    C216840  -0.101   5.793  10.024  0.3231 -0.0245  0.1712
  152SAPE    HS16841  -0.083   5.686  10.003  0.8147  0.0984 -0.0410
  152SAPE   O2116842  -0.022   5.859   9.923  0.3207 -0.8203  0.3541
  152SAPE   C2116843   0.107   5.837   9.904  0.5590 -0.0454  0.1620
  152SAPE   O2216844   0.174   5.754   9.956 -0.4012 -0.1886 -0.6863
  152SAPE   C2216845   0.157   5.928   9.793 -0.4738 -0.2342  0.4199
  152SAPE   H2R16846   0.090   6.016   9.780 -0.9077 -0.4771  0.9953
  152SAPE   H2S16847   0.254   5.966   9.831 -1.9906  1.9396  2.3869
  152SAPE    C316848  -0.244   5.832  10.005 -0.1457 -0.9534 -0.3284
  152SAPE    HX16849  -0.264   5.938  10.033  0.5211 -0.6965 -0.8202
  152SAPE    HY16850  -0.302   5.774  10.080 -0.9874 -0.9489 -0.9611
  152SAPE   O3116851  -0.290   5.803   9.875 -0.3021  0.3279  0.3740
  152SAPE   C3116852  -0.306   5.892   9.786  0.6281  0.7794 -0.0658
  152SAPE   O3216853  -0.287   6.014   9.793 -0.8357 -0.2023  0.1428
  152SAPE   C3216854  -0.349   5.827   9.651 -0.2549 -0.6074 -0.3233
  152SAPE   H2X16855  -0.449   5.784   9.671 -1.2381  0.8727 -1.7712
  152SAPE   H2Y16856  -0.272   5.749   9.626 -0.1217 -0.7019  0.3709
  152SAPE   C2316857   0.171   5.859   9.657 -0.6754 -0.4278 -0.1596
  152SAPE   H3R16858   0.212   5.758   9.679 -0.8193 -0.4149  0.1645
  152SAPE   H3S16859   0.251   5.913   9.600 -0.8332  0.9887  0.8943
  152SAPE   C2416860   0.053   5.879   9.557  0.3226  0.5596 -0.4375
  152SAPE   H4R16861   0.035   5.988   9.545 -0.6312  0.2041 -2.9452
  152SAPE   H4S16862  -0.036   5.826   9.599  0.6456 -1.6940 -2.3289
  152SAPE   C2516863   0.069   5.814   9.419 -0.2524 -0.6863 -0.6595
  152SAPE   H5R16864   0.041   5.708   9.421 -0.7086 -0.5558 -0.0016
  152SAPE   C2616865   0.097   5.877   9.307 -0.9627 -0.7215 -0.4301
  152SAPE   H6R16866   0.082   5.822   9.213 -0.8025 -0.6236 -0.5156
  152SAPE   C2716867   0.124   6.029   9.283 -0.1644 -0.1561  0.3166
  152SAPE   H7R16868   0.197   6.038   9.199  0.3101  1.3813  0.8706
  152SAPE   H7S16869   0.169   6.083   9.369  1.4951  3.0997 -2.3419
  152SAPE   C2816870  -0.009   6.093   9.248 -0.0679  0.3086 -0.7843
  152SAPE   H8R16871  -0.071   6.110   9.337  2.7814  1.3954  1.1336
  152SAPE   C2916872  -0.063   6.136   9.132  0.0071 -0.4340  0.3177
  152SAPE   H9R16873  -0.164   6.180   9.136  1.0072  1.9125  1.9364
  152SAPE  C21016874  -0.009   6.111   8.997 -0.3226  1.1437 -0.3103
  152SAPE  H10R16875   0.101   6.099   9.009 -0.5261  0.3170  0.8925
  152SAPE  H10S16876  -0.022   6.189   8.919 -0.4955 -0.5597 -2.0681
  152SAPE  C21116877  -0.055   5.987   8.923 -0.6656  0.6104  0.1585
  152SAPE  H11R16878  -0.136   5.927   8.968 -0.8094 -1.6339 -2.7497
  152SAPE  C21216879  -0.017   5.949   8.803  0.5696  1.0482  0.1615
  152SAPE  H12R16880  -0.055   5.854   8.762  0.6212  0.1988  1.9759
  152SAPE  C21316881   0.072   6.032   8.708  0.1798 -0.5095 -0.0409
  152SAPE  H13R16882   0.154   6.060   8.777  0.3074  1.9016 -1.0911
  152SAPE  H13S16883   0.018   6.122   8.674 -1.5348 -1.2637  0.5595
  152SAPE  C21416884   0.119   5.955   8.584  0.9234  1.0237 -0.7652
  152SAPE  H14R16885   0.102   5.848   8.603  0.9504  1.2690  0.8023
  152SAPE  C21516886   0.182   5.999   8.474 -0.1818  0.7435 -0.8653
  152SAPE  H15R16887   0.215   5.930   8.395  1.4329  1.8127 -1.1676
  152SAPE  C21616888   0.224   6.144   8.459 -0.0082 -0.5376  0.3445
  152SAPE  H16R16889   0.146   6.218   8.486 -0.5111 -1.0525  0.3102
  152SAPE  H16S16890   0.243   6.157   8.351  1.5012 -1.6358  0.4488
  152SAPE  C21716891   0.361   6.177   8.529 -1.1611 -0.7087  0.6174
  152SAPE  H17R16892   0.340   6.169   8.637  2.6851 -0.0356  1.5618
  152SAPE  H17S16893   0.391   6.281   8.502  1.6231 -1.2347  1.3877
  152SAPE  C21816894   0.479   6.079   8.484 -1.0769 -0.1857 -1.0467
  152SAPE  H18R16895   0.468   6.064   8.374 -3.1978 -2.4457 -0.6138
  152SAPE  H18S16896   0.462   5.982   8.535 -0.9724 -0.0244 -0.7013
  152SAPE  C21916897   0.618   6.124   8.532  0.5592  0.5085  0.7340
  152SAPE  H19R16898   0.614   6.146   8.641 -1.8982  1.8077  0.4564
  152SAPE  H19S16899   0.631   6.217   8.473  1.9409  0.9650  1.7115
  152SAPE  C22016900   0.727   6.019   8.492  0.5932 -0.2565 -0.2501
  152SAPE  H20R16901   0.727   5.990   8.385  0.5089  1.5949 -0.7851
  152SAPE  H20S16902   0.715   5.928   8.554 -0.6982  0.6352  0.8713
  152SAPE  H20T16903   0.821   6.076   8.507 -0.2239  2.1985 -3.2428
  152SAPE   C3316904  -0.359   5.917   9.524  0.2631  0.0440  0.3255
  152SAPE   H3X16905  -0.261   5.968   9.512 -1.2710  3.3910  0.8574
  152SAPE   H3Y16906  -0.422   6.008   9.536  1.8883  1.1765  0.7768
  152SAPE   C3416907  -0.404   5.841   9.403 -0.4530 -0.2454  0.2973
  152SAPE   H4X16908  -0.471   5.906   9.342  2.0057 -0.3377 -2.7171
  152SAPE   H4Y16909  -0.462   5.752   9.436  0.9095 -1.1532  0.3113
  152SAPE   C3516910  -0.290   5.787   9.321 -0.4171 -0.0733 -0.3649
  152SAPE   H5X16911  -0.216   5.736   9.387 -1.1656 -0.4699  0.1962
  152SAPE   H5Y16912  -0.232   5.872   9.280  0.3151 -0.4300 -0.0893
  152SAPE   C3616913  -0.328   5.706   9.198 -0.3881 -0.7636 -0.2799
  152SAPE   H6X16914  -0.393   5.778   9.143  0.5689  1.0336  0.8208
  152SAPE   H6Y16915  -0.393   5.626   9.237 -0.2695 -0.6399  0.1750
  152SAPE   C3716916  -0.208   5.670   9.108  0.5056 -0.0738 -0.2376
  152SAPE   H7X16917  -0.150   5.761   9.083  1.3748 -1.0665 -2.0563
  152SAPE   H7Y16918  -0.244   5.634   9.009  0.1859  1.4808 -0.7087
  152SAPE   C3816919  -0.116   5.554   9.157 -0.6856  0.6573 -1.0637
  152SAPE   H8X16920  -0.189   5.474   9.183 -1.0145  1.1640 -0.4003
  152SAPE   H8Y16921  -0.066   5.578   9.253 -0.5970  0.7899 -1.1428
  152SAPE   C3916922  -0.017   5.505   9.046  0.2186 -0.2139 -0.1297
  152SAPE   H9X16923  -0.068   5.504   8.947 -0.3183 -0.4229  0.1438
  152SAPE   H9Y16924   0.032   5.407   9.064  0.4820  0.1228  1.0894
  152SAPE  C31016925   0.088   5.615   9.022 -0.4971  0.2283  0.1774
  152SAPE  H10X16926   0.130   5.630   9.124 -0.5903 -0.9819  0.4151
  152SAPE  H10Y16927   0.049   5.709   8.978  1.3348  1.4938  1.1043
  152SAPE  C31116928   0.214   5.568   8.935  0.0015  0.3218  0.2578
  152SAPE  H11X16929   0.243   5.465   8.966  0.6813 -1.0410 -4.2133
  152SAPE  H11Y16930   0.298   5.629   8.973 -0.1475 -0.9374  2.8810
  152SAPE  C31216931   0.202   5.571   8.782  0.3604 -0.1945 -0.5045
  152SAPE  H12X16932   0.251   5.660   8.738 -0.1300 -0.0649 -0.7988
  152SAPE  H12Y16933   0.094   5.580   8.756  0.4116  4.7739  0.0041
  152SAPE  C31316934   0.269   5.449   8.732 -0.8763 -0.9402 -0.2778
  152SAPE  H13X16935   0.223   5.355   8.770 -1.4731 -0.3758  0.4270
  152SAPE  H13Y16936   0.378   5.450   8.753 -0.2125 -0.5652 -3.2512
  152SAPE  C31416937   0.256   5.447   8.579 -0.7133 -0.3765 -0.6693
  152SAPE  H14X16938   0.291   5.543   8.535 -0.6960  1.5002  2.9928
  152SAPE  H14Y16939   0.148   5.454   8.555 -0.4623 -1.4961 -2.2536
  152SAPE  C31516940   0.323   5.332   8.508  0.7071 -0.5242 -0.2009
  152SAPE  H15X16941   0.294   5.237   8.558  1.8558 -0.9612 -0.3312
  152SAPE  H15Y16942   0.433   5.330   8.520  0.5786 -0.3350  1.1740
  152SAPE  C31616943   0.293   5.343   8.356 -0.2351 -0.8133 -1.0210
  152SAPE  H16X16944   0.324   5.445   8.323 -1.3006  0.0234  0.4640
  152SAPE  H16Y16945   0.189   5.331   8.320 -0.4706 -0.1630 -0.5685
  152SAPE  C31716946   0.362   5.231   8.276  0.0589 -0.2571 -0.5139
  152SAPE  H17X16947   0.327   5.133   8.314 -2.0692 -0.8418 -3.6441
  152SAPE  H17Y16948   0.472   5.235   8.296 -0.0060 -0.2198 -0.1549
  152SAPE  C31816949   0.347   5.235   8.125  0.5083  0.6212 -0.0714
  152SAPE  H18X16950   0.410   5.162   8.070 -0.4535  0.5615 -1.1355
  152SAPE  H18Y16951   0.365   5.333   8.076  0.6084 -0.1581 -1.6603
  152SAPE  H18Z16952   0.246   5.198   8.095  1.6778 -1.3302 -1.8503
  153SAPE     N16953   1.450   0.214  10.781 -0.3149  0.3955  0.5384
  153SAPE   HN116954   1.524   0.254  10.843 -0.4178  0.8729  0.3539
  153SAPE   HN216955   1.356   0.244  10.813 -1.1233  1.3038 -2.3782
  153SAPE   HN316956   1.461   0.113  10.805 -0.5862  0.6278  1.7052
  153SAPE   C1216957   1.483   0.239  10.635  0.1450  0.6861 -0.1170
  153SAPE  H12A16958   1.550   0.155  10.604  2.6924  2.2342  0.9177
  153SAPE  H12B16959   1.538   0.335  10.626 -2.0223  2.2885  2.3510
  153SAPE   C1116960   1.354   0.239  10.544  0.5701 -0.5525  0.7072
  153SAPE  H11A16961   1.304   0.140  10.545  0.7262 -0.6803 -0.9580
  153SAPE  H11B16962   1.374   0.252  10.435 -2.6389  0.0892  0.0886
  153SAPE     P16963   1.117   0.326  10.628  0.0174  0.0149  0.1823
  153SAPE   O1316964   1.091   0.185  10.654 -0.1238 -0.2790  0.5105
  153SAPE   O1416965   1.077   0.426  10.728  0.1709 -0.3462 -0.9052
  153SAPE   O1216966   1.273   0.346  10.593 -0.3972 -0.1757 -0.2626
  153SAPE   O1116967   1.040   0.369  10.496 -0.2069 -0.0874 -0.3353
  153SAPE    C116968   1.099   0.465  10.411 -0.3734  0.6495  0.5113
  153SAPE    HA16969   1.185   0.522  10.453  0.7628 -0.7160  0.1040
  153SAPE    HB16970   1.152   0.420  10.324 -0.3057  3.1422 -0.8322
  153SAPE    C216971   0.981   0.557  10.367 -0.3396  0.0088 -0.0959
  153SAPE    HS16972   0.892   0.494  10.346 -0.6066  0.6121 -0.7920
  153SAPE   O2116973   1.014   0.631  10.252 -0.2825 -0.1570 -0.2970
  153SAPE   C2116974   0.985   0.561  10.140 -0.1986 -0.2017 -0.4316
  153SAPE   O2216975   0.931   0.451  10.127  0.1284  0.1156  0.4726
  153SAPE   C2216976   1.032   0.656  10.021  0.8736  0.7554  0.0404
  153SAPE   H2R16977   0.961   0.740  10.011  0.8468  0.6072 -1.1833
  153SAPE   H2S16978   1.131   0.703  10.041  1.3863 -0.1301 -0.3628
  153SAPE    C316979   0.937   0.652  10.479 -0.8060  0.4735  0.6745
  153SAPE    HX16980   1.032   0.700  10.512 -0.5140  0.7792 -0.5526
  153SAPE    HY16981   0.900   0.592  10.564  1.3917 -1.8170  0.1522
  153SAPE   O3116982   0.839   0.746  10.426 -0.1891  0.1305  0.3386
  153SAPE   C3116983   0.859   0.871  10.459  0.3656  0.5692 -0.6959
  153SAPE   O3216984   0.933   0.916  10.537 -0.1891  0.2103 -0.0041
  153SAPE   C3216985   0.766   0.960  10.369 -0.2257 -0.3246 -0.0331
  153SAPE   H2X16986   0.793   1.065  10.391 -2.1269  0.1838  0.0058
  153SAPE   H2Y16987   0.660   0.949  10.399 -1.2159 -0.2670 -3.1509
  153SAPE   C2316988   1.025   0.580   9.889 -0.3383  0.4471 -0.5908
  153SAPE   H3R16989   0.922   0.547   9.864  0.6124 -2.0705 -1.6067
  153SAPE   H3S16990   1.080   0.483   9.893  1.7691  1.5803  3.5241
  153SAPE   C2416991   1.071   0.663   9.766  0.1199  0.4963  0.5320
  153SAPE   H4R16992   1.154   0.733   9.790  1.7350 -1.2908  0.4750
  153SAPE   H4S16993   0.979   0.719   9.742 -0.3013 -1.4781 -3.0713
  153SAPE   C2516994   1.110   0.585   9.639  0.2031  0.4235 -0.3752
  153SAPE   H5R16995   1.202   0.525   9.647 -0.4961 -0.8619 -1.5195
  153SAPE   C2616996   1.044   0.571   9.525 -0.1326  0.3001 -1.2713
  153SAPE   H6R16997   1.094   0.505   9.453  0.3233  1.4757 -2.0661
  153SAPE   C2716998   0.917   0.635   9.480  0.1511  0.6698  0.1047
  153SAPE   H7R16999   0.929   0.684   9.381 -0.6170 -2.6052 -1.7416
  153SAPE   H7S17000   0.879   0.715   9.548 -1.0949  1.0128 -0.9328
  153SAPE   C2817001   0.814   0.524   9.466  0.3900 -0.1007  1.1391
  153SAPE   H8R17002   0.797   0.460   9.554  1.8335 -0.7028  1.0108
  153SAPE   C2917003   0.769   0.476   9.350 -0.2867  0.1069  0.1327
  153SAPE   H9R17004   0.714   0.381   9.349  0.8730 -0.6590 -2.8115
  153SAPE  C21017005   0.810   0.524   9.211 -0.1686  0.2767  0.4582
  153SAPE  H10R17006   0.921   0.527   9.202 -0.3590  1.1873 -2.9160
  153SAPE  H10S17007   0.767   0.626   9.203  0.3491  0.5028  0.5081
  153SAPE  C21117008   0.764   0.425   9.100  0.4881  0.0741  0.0041
  153SAPE  H11R17009   0.755   0.320   9.130 -2.5733  0.6145  1.2554
  153SAPE  C21217010   0.724   0.457   8.978 -0.4660  0.1446  0.3481
  153SAPE  H12R17011   0.673   0.382   8.915 -1.6709  2.0755 -1.0996
  153SAPE  C21317012   0.730   0.602   8.912  0.1742  0.1082 -0.0986
  153SAPE  H13R17013   0.733   0.680   8.991 -2.4930 -2.0992  2.4061
  153SAPE  H13S17014   0.633   0.614   8.858 -0.3796  1.2687  1.1175
  153SAPE  C21417015   0.849   0.622   8.815 -0.2437  1.4208 -0.2893
  153SAPE  H14R17016   0.943   0.573   8.845 -1.7662 -0.8724  1.0405
  153SAPE  C21517017   0.842   0.667   8.687 -1.1162  0.2732 -0.1879
  153SAPE  H15R17018   0.934   0.679   8.628 -0.4828  0.8714  0.8962
  153SAPE  C21617019   0.717   0.720   8.618 -0.3433 -0.0102 -0.4287
  153SAPE  H16R17020   0.749   0.790   8.538 -1.6271 -1.0627 -1.9249
  153SAPE  H16S17021   0.652   0.784   8.682 -1.0044 -0.1475 -0.9541
  153SAPE  C21717022   0.634   0.604   8.565  0.0049 -0.3935  0.1624
  153SAPE  H17R17023   0.569   0.571   8.649 -0.8199  2.3226  0.6936
  153SAPE  H17S17024   0.699   0.529   8.515  0.6437 -0.2619  0.7683
  153SAPE  C21817025   0.527   0.652   8.466  0.2032 -0.8787 -0.1518
  153SAPE  H18R17026   0.588   0.719   8.402  2.0952  0.9488  3.2475
  153SAPE  H18S17027   0.462   0.714   8.532  1.4500  1.7440 -1.2395
  153SAPE  C21917028   0.454   0.543   8.380 -0.3394 -0.6300 -0.1205
  153SAPE  H19R17029   0.359   0.589   8.344 -0.4007 -0.2752  0.4774
  153SAPE  H19S17030   0.432   0.461   8.451  0.2533 -1.1341 -0.5147
  153SAPE  C22017031   0.539   0.477   8.271 -0.1310 -0.1052 -0.3489
  153SAPE  H20R17032   0.487   0.385   8.234  1.7298 -0.8035 -1.3694
  153SAPE  H20S17033   0.639   0.449   8.310 -0.4802  0.3931  0.9217
  153SAPE  H20T17034   0.564   0.545   8.187  2.0676  0.4175  0.6533
  153SAPE   C3317035   0.773   0.922  10.221  1.1479 -0.1143  0.0986
  153SAPE   H3X17036   0.716   0.828  10.204  0.0339  0.7925 -1.4391
  153SAPE   H3Y17037   0.879   0.896  10.197  1.5329 -0.5567  2.0735
  153SAPE   C3417038   0.724   1.026  10.120 -0.2318 -0.4863 -0.5821
  153SAPE   H4X17039   0.751   1.128  10.156 -0.2204  0.1059 -2.1916
  153SAPE   H4Y17040   0.614   1.020  10.113 -0.2602 -0.0510 -0.5366
  153SAPE   C3517041   0.776   0.995   9.981 -0.0126  0.0400  0.3745
  153SAPE   H5X17042   0.753   0.894   9.940  0.4175 -0.1171  0.5142
  153SAPE   H5Y17043   0.886   0.986   9.993 -0.0002  0.2243  0.3962
  153SAPE   C3617044   0.748   1.096   9.870  0.1109  0.4238  0.1020
  153SAPE   H6X17045   0.777   1.194   9.911 -1.2198  0.6462  0.5636
  153SAPE   H6Y17046   0.639   1.106   9.850 -0.2350 -1.9021  0.5483
  153SAPE   C3717047   0.823   1.082   9.734 -0.3731  0.9459  0.1223
  153SAPE   H7X17048   0.808   0.980   9.693  0.9134  0.8206 -0.0810
  153SAPE   H7Y17049   0.934   1.079   9.746  0.3468 -1.5331 -4.5630
  153SAPE   C3817050   0.781   1.183   9.630  0.4764 -0.2188 -0.3652
  153SAPE   H8X17051   0.802   1.277   9.685 -0.1273 -0.5441  0.4393
  153SAPE   H8Y17052   0.674   1.180   9.602  0.1923  2.8116  0.1152
  153SAPE   C3917053   0.870   1.179   9.502  0.1227 -0.3792 -0.4421
  153SAPE   H9X17054   0.969   1.209   9.543 -0.8022  1.7934  0.3332
  153SAPE   H9Y17055   0.828   1.250   9.427  1.1733 -0.2538 -0.9268
  153SAPE  C31017056   0.894   1.037   9.439  0.3178 -0.2983 -0.4922
  153SAPE  H10X17057   0.945   0.964   9.506  0.4126  0.4540  0.2717
  153SAPE  H10Y17058   0.965   1.044   9.354  0.8831 -2.0058 -0.1921
  153SAPE  C31117059   0.762   0.972   9.396 -0.0200  0.3314  0.4002
  153SAPE  H11X17060   0.703   0.978   9.490  2.3281  2.0027  1.8919
  153SAPE  H11Y17061   0.776   0.864   9.378  0.2977  0.6129 -1.2638
  153SAPE  C31217062   0.695   1.022   9.263 -0.0042 -0.2960 -0.0838
  153SAPE  H12X17063   0.669   1.129   9.273  2.3741  0.3897 -0.6531
  153SAPE  H12Y17064   0.590   0.985   9.258  0.2134 -0.9907  0.3669
  153SAPE  C31317065   0.773   1.004   9.133 -0.4650 -0.1196  0.1208
  153SAPE  H13X17066   0.789   0.900   9.098  0.9151  0.0326  0.2718
  153SAPE  H13Y17067   0.874   1.041   9.161 -0.3584 -1.0562  1.0378
  153SAPE  C31417068   0.721   1.103   9.023 -0.6631 -0.5065 -0.2856
  153SAPE  H14X17069   0.709   1.200   9.075  0.9704  0.3207 -1.3690
  153SAPE  H14Y17070   0.625   1.060   8.989 -1.0218  0.2977 -0.3140
  153SAPE  C31517071   0.825   1.115   8.902  0.3945 -0.5258  0.0864
  153SAPE  H15X17072   0.839   1.021   8.845 -2.0973 -1.0596  0.2693
  153SAPE  H15Y17073   0.928   1.135   8.940  0.0623  1.3525  0.1237
  153SAPE  C31617074   0.776   1.227   8.817  0.0457 -0.2533  0.3765
  153SAPE  H16X17075   0.836   1.225   8.724 -0.1157 -3.6380  0.2281
  153SAPE  H16Y17076   0.789   1.327   8.863 -0.6090  2.3055 -4.3018
  153SAPE  C31717077   0.631   1.218   8.777  1.0381 -0.2870 -0.2215
  153SAPE  H17X17078   0.584   1.248   8.873  0.7381  1.4616 -0.8810
  153SAPE  H17Y17079   0.612   1.110   8.761 -2.2619 -0.2582  2.4733
  153SAPE  C31817080   0.575   1.311   8.667  0.4525  0.5609  0.8903
  153SAPE  H18X17081   0.613   1.292   8.565 -0.8514  1.9432  0.1168
  153SAPE  H18Y17082   0.594   1.417   8.691 -2.2296  1.6170 -1.2367
  153SAPE  H18Z17083   0.467   1.291   8.654  0.9546 -1.6033 -0.6165
  154SAPE     N17084   2.061   5.351  11.070  0.3000  0.5329 -0.1528
  154SAPE   HN117085   2.151   5.303  11.088  0.5666  0.6570 -1.1276
  154SAPE   HN217086   2.042   5.419  11.147  0.2027 -0.1179  0.4056
  154SAPE   HN317087   1.984   5.283  11.064  1.0575 -0.2602 -1.1506
  154SAPE   C1217088   2.089   5.429  10.944 -0.0809  0.6856 -0.2820
  154SAPE  H12A17089   2.178   5.496  10.946  2.0948 -2.0111 -0.1251
  154SAPE  H12B17090   1.997   5.490  10.930  1.5469  3.0422 -1.3265
  154SAPE   C1117091   2.094   5.330  10.826  0.0160 -0.2011  0.3068
  154SAPE  H11A17092   2.117   5.388  10.733 -1.5091  1.9525  1.1973
  154SAPE  H11B17093   1.993   5.285  10.810  0.1525  0.1099 -1.7054
  154SAPE     P17094   2.339   5.239  10.819  0.1965  0.0190  0.2193
  154SAPE   O1317095   2.387   5.346  10.912 -0.6264  0.7662 -0.0010
  154SAPE   O1417096   2.400   5.102  10.832  0.0085 -0.7297  0.3367
  154SAPE   O1217097   2.187   5.227  10.848 -0.2029  0.6781  0.0118
  154SAPE   O1117098   2.338   5.293  10.670 -0.0402 -0.2938  0.4173
  154SAPE    C117099   2.313   5.205  10.561 -0.4389 -0.4026  0.4348
  154SAPE    HA17100   2.243   5.123  10.588 -0.6857 -1.5768 -3.1849
  154SAPE    HB17101   2.270   5.267  10.480 -1.5069 -0.9852  0.5433
  154SAPE    C217102   2.451   5.146  10.514  0.2227 -0.9120  0.3741
  154SAPE    HS17103   2.489   5.086  10.600 -0.2263  2.3247  3.0473
  154SAPE   O2117104   2.539   5.249  10.479 -0.8013 -0.0057  0.2945
  154SAPE   C2117105   2.659   5.210  10.447  0.0591 -0.0173 -1.2216
  154SAPE   O2217106   2.706   5.104  10.477 -0.3669  0.5237 -0.2326
  154SAPE   C2217107   2.747   5.336  10.403  0.1709  0.0776  0.2252
  154SAPE   H2R17108   2.670   5.412  10.379  1.2797  1.2091  0.1586
  154SAPE   H2S17109   2.801   5.376  10.491  0.7538 -1.1695  0.4618
  154SAPE    C317110   2.426   5.052  10.390 -0.4067  0.2024  0.9400
  154SAPE    HX17111   2.357   4.972  10.424 -0.6531  0.0923  0.1843
  154SAPE    HY17112   2.521   5.003  10.359 -1.5949 -2.0911  0.7276
  154SAPE   O3117113   2.361   5.113  10.283  0.7813 -0.4685 -0.3086
  154SAPE   C3117114   2.423   5.169  10.179 -0.4747  0.3303 -0.0865
  154SAPE   O3217115   2.543   5.175  10.166  0.1566 -0.5899 -0.0650
  154SAPE   C3217116   2.325   5.185  10.069  0.5696 -0.0169  0.2769
  154SAPE   H2X17117   2.298   5.293  10.078 -0.3210 -0.1283 -0.7919
  154SAPE   H2Y17118   2.232   5.126  10.083 -0.6275  1.9145  0.8948
  154SAPE   C2317119   2.841   5.308  10.288  0.8230 -0.1005  0.2028
  154SAPE   H3R17120   2.794   5.251  10.205  2.3472 -0.2974 -0.5560
  154SAPE   H3S17121   2.918   5.237  10.325  1.3835 -0.0069 -0.7509
  154SAPE   C2417122   2.911   5.437  10.234 -0.0368 -0.0650  0.1808
  154SAPE   H4R17123   2.980   5.392  10.159 -1.2942 -1.0402 -0.4288
  154SAPE   H4S17124   2.960   5.490  10.317  0.9205 -1.3891  0.4987
  154SAPE   C2517125   2.802   5.517  10.164 -0.1774  0.3195  0.1037
  154SAPE   H5R17126   2.749   5.591  10.226  0.0751 -0.6736  1.5696
  154SAPE   C2617127   2.797   5.519  10.029 -0.0168  0.0887  0.0091
  154SAPE   H6R17128   2.718   5.582   9.984  1.1486  0.5284 -1.4721
  154SAPE   C2717129   2.876   5.444   9.929 -0.2600 -0.3602 -0.2282
  154SAPE   H7R17130   2.977   5.415   9.965 -0.3690 -1.0821 -0.4886
  154SAPE   H7S17131   2.881   5.507   9.837 -0.7747  3.3052  2.0672
  154SAPE   C2817132   2.808   5.312   9.899 -0.9529  0.4689  0.1928
  154SAPE   H8R17133   2.768   5.265   9.990  0.8921 -1.5917  0.0278
  154SAPE   C2917134   2.800   5.252   9.773 -0.5187 -0.9404  0.2067
  154SAPE   H9R17135   2.748   5.156   9.760 -2.0158 -0.1203 -0.0911
  154SAPE  C21017136   2.846   5.305   9.636 -0.2607  0.4171  0.4808
  154SAPE  H10R17137   2.891   5.220   9.581 -0.3527  1.0514 -0.5937
  154SAPE  H10S17138   2.922   5.385   9.647 -1.3770  1.3766  1.5535
  154SAPE  C21117139   2.740   5.378   9.555  0.3609 -0.6311 -0.3627
  154SAPE  H11R17140   2.658   5.412   9.620 -0.4403 -2.2697 -0.4641
  154SAPE  C21217141   2.764   5.420   9.433  0.4342 -1.2836  0.6958
  154SAPE  H12R17142   2.681   5.472   9.383 -0.0189 -1.1247  1.6100
  154SAPE  C21317143   2.888   5.411   9.345  0.0122  0.0538  1.0268
  154SAPE  H13R17144   2.976   5.395   9.411  0.5973 -4.3076 -0.5127
  154SAPE  H13S17145   2.906   5.502   9.284 -3.2767 -0.5990 -1.1788
  154SAPE  C21417146   2.887   5.290   9.255 -0.0418 -0.1999  0.3770
  154SAPE  H14R17147   2.913   5.202   9.316 -2.5502 -0.8380  0.6199
  154SAPE  C21517148   2.882   5.286   9.119  0.2867 -0.3450  0.1140
  154SAPE  H15R17149   2.865   5.192   9.064  2.3987 -1.3672  1.0856
  154SAPE  C21617150   2.854   5.407   9.034  0.2565  0.0077  0.0991
  154SAPE  H16R17151   2.943   5.439   8.977 -0.3643  2.0128  0.1710
  154SAPE  H16S17152   2.822   5.493   9.096 -0.2309  0.0516 -0.2048
  154SAPE  C21717153   2.738   5.361   8.936 -0.8518 -0.1859 -0.2898
  154SAPE  H17R17154   2.651   5.334   9.000 -1.2870  0.4196 -0.6178
  154SAPE  H17S17155   2.769   5.271   8.878 -0.5668 -1.4049  1.6599
  154SAPE  C21817156   2.682   5.472   8.844 -0.0897  0.1303  0.0027
  154SAPE  H18R17157   2.630   5.547   8.907  2.4334 -0.9607  3.7338
  154SAPE  H18S17158   2.623   5.431   8.759  3.1514 -2.0890 -1.3645
  154SAPE  C21917159   2.781   5.569   8.776  0.1304 -1.4898 -0.2312
  154SAPE  H19R17160   2.860   5.520   8.715 -0.3103 -2.3956 -0.0957
  154SAPE  H19S17161   2.826   5.632   8.856 -0.2864  1.5352 -2.1948
  154SAPE  C22017162   2.706   5.671   8.686 -0.1233 -0.1312  0.0725
  154SAPE  H20R17163   2.612   5.700   8.738 -0.9300 -0.4041 -1.1941
  154SAPE  H20S17164   2.683   5.618   8.591  0.2741  1.2606 -0.8366
  154SAPE  H20T17165   2.766   5.764   8.673  0.1160 -0.2463  0.3474
  154SAPE   C3317166   2.390   5.174   9.928  0.2183 -0.6212  0.4212
  154SAPE   H3X17167   2.385   5.065   9.907  1.4275 -0.5321 -0.4116
  154SAPE   H3Y17168   2.496   5.207   9.931  0.1694 -0.3845 -0.3940
  154SAPE   C3417169   2.337   5.261   9.816  0.2978 -0.4346 -0.4850
  154SAPE   H4X17170   2.336   5.369   9.843  0.9434 -0.4909 -0.2096
  154SAPE   H4Y17171   2.232   5.237   9.790 -0.3128  1.0884  0.4387
  154SAPE   C3517172   2.418   5.237   9.690 -0.2089 -0.5006 -0.4195
  154SAPE   H5X17173   2.413   5.129   9.664 -0.8303 -0.4175 -0.6683
  154SAPE   H5Y17174   2.526   5.261   9.689 -0.2941 -0.0855 -1.4756
  154SAPE   C3617175   2.366   5.313   9.564 -0.5966 -0.6975 -0.3609
  154SAPE   H6X17176   2.417   5.410   9.582  0.1111 -0.9883 -0.7486
  154SAPE   H6Y17177   2.256   5.324   9.555 -0.2378  1.8285 -3.0982
  154SAPE   C3717178   2.421   5.255   9.432 -0.6934  0.6716  0.0829
  154SAPE   H7X17179   2.365   5.168   9.394 -1.6327  1.2815  0.0446
  154SAPE   H7Y17180   2.526   5.219   9.432 -1.2073 -0.8849  0.7471
  154SAPE   C3817181   2.414   5.360   9.316  0.0476  0.2029  0.4329
  154SAPE   H8X17182   2.468   5.324   9.225  1.5733  1.3563  0.8500
  154SAPE   H8Y17183   2.485   5.438   9.350  3.2845 -2.4353  0.3007
  154SAPE   C3917184   2.274   5.422   9.284 -0.2986  0.1540 -0.1922
  154SAPE   H9X17185   2.270   5.501   9.362  1.9224 -0.0316  0.1581
  154SAPE   H9Y17186   2.187   5.353   9.290  0.4418 -0.8354 -0.5298
  154SAPE  C31017187   2.244   5.499   9.149 -0.0290  0.2299  0.9731
  154SAPE  H10X17188   2.147   5.552   9.157 -0.4214  0.0032 -1.4414
  154SAPE  H10Y17189   2.233   5.437   9.057  1.6495  1.8996 -0.4107
  154SAPE  C31117190   2.354   5.598   9.119 -0.3604  0.5349 -0.5464
  154SAPE  H11X17191   2.447   5.543   9.094 -0.0898 -0.0534  1.5945
  154SAPE  H11Y17192   2.384   5.651   9.212 -0.8438 -0.5884  0.2669
  154SAPE  C31217193   2.323   5.695   9.008 -0.0782  0.0576  0.5981
  154SAPE  H12X17194   2.393   5.781   9.005 -1.6938  1.5619  2.7602
  154SAPE  H12Y17195   2.226   5.747   9.023  0.5571  1.2335  0.6989
  154SAPE  C31317196   2.319   5.623   8.871  0.5181  0.1262  0.0025
  154SAPE  H13X17197   2.232   5.555   8.873 -0.3259  1.1841  0.6875
  154SAPE  H13Y17198   2.415   5.575   8.843  0.6763  1.1258 -1.2855
  154SAPE  C31417199   2.294   5.730   8.762  0.1385 -0.3449  0.6111
  154SAPE  H14X17200   2.386   5.791   8.753  0.8842 -1.4919  0.2920
  154SAPE  H14Y17201   2.206   5.795   8.784  0.2382  0.7164 -1.8027
  154SAPE  C31517202   2.281   5.663   8.625  0.6952  0.1231 -0.3101
  154SAPE  H15X17203   2.365   5.591   8.613  0.2525 -0.3974 -0.3525
  154SAPE  H15Y17204   2.309   5.736   8.547  2.3957  0.8051  0.8851
  154SAPE  C31617205   2.142   5.600   8.588  0.3723  0.0936  0.0879
  154SAPE  H16X17206   2.064   5.679   8.591  0.1949 -0.1159  2.1593
  154SAPE  H16Y17207   2.117   5.522   8.663 -1.7428  0.5513 -0.0917
  154SAPE  C31717208   2.136   5.540   8.450  0.2941 -0.3908 -0.4642
  154SAPE  H17X17209   2.227   5.480   8.432  0.4975 -0.1661 -0.1963
  154SAPE  H17Y17210   2.148   5.628   8.383 -1.1133  1.2460  1.3129
  154SAPE  C31817211   2.014   5.456   8.416  0.5450  0.2624  0.2644
  154SAPE  H18X17212   2.014   5.423   8.310 -0.1598 -0.7500  0.5598
  154SAPE  H18Y17213   1.914   5.492   8.446  0.8840  0.1690  1.5788
  154SAPE  H18Z17214   2.019   5.362   8.476  0.5726 -0.1666 -0.4017
  155SAPE     N17215   2.057   0.611  10.922 -0.0138  0.4986  0.4093
  155SAPE   HN117216   1.961   0.579  10.942  0.7879 -1.7615  0.8724
  155SAPE   HN217217   2.120   0.580  10.998  2.1344 -1.1429 -1.8481
  155SAPE   HN317218   2.051   0.714  10.907  0.0662  0.9744  3.2439
  155SAPE   C1217219   2.105   0.548  10.794  0.2323  0.4291  0.9639
  155SAPE  H12A17220   2.203   0.593  10.767 -0.3631  1.2452  0.0860
  155SAPE  H12B17221   2.031   0.572  10.714  0.5551  2.8910  1.3281
  155SAPE   C1117222   2.111   0.398  10.806 -0.0363  0.3255 -0.0041
  155SAPE  H11A17223   2.128   0.344  10.710  2.4268 -1.9424  1.5844
  155SAPE  H11B17224   2.010   0.368  10.841 -0.0873  1.3635  0.7750
  155SAPE     P17225   2.350   0.318  10.838  0.1024  0.3601 -0.4620
  155SAPE   O1317226   2.449   0.305  10.949 -0.5003  0.3910 -0.2559
  155SAPE   O1417227   2.335   0.207  10.743  0.5132 -0.1108  0.4328
  155SAPE   O1217228   2.214   0.360  10.898  0.1876 -0.0153  0.0791
  155SAPE   O1117229   2.381   0.452  10.774 -0.0147  0.6379 -0.5324
  155SAPE    C117230   2.478   0.476  10.671 -0.1681  0.2529  0.0861
  155SAPE    HA17231   2.535   0.569  10.693  3.9945 -2.1648  0.5313
  155SAPE    HB17232   2.554   0.395  10.659  1.5776  1.7648  0.4189
  155SAPE    C217233   2.411   0.472  10.530  0.6166 -0.1366 -0.0279
  155SAPE    HS17234   2.309   0.510  10.548  0.5373 -0.4646  0.2269
  155SAPE   O2117235   2.411   0.346  10.465 -0.1216  0.1446 -0.2967
  155SAPE   C2117236   2.287   0.296  10.441  0.4174 -0.4666  0.5526
  155SAPE   O2217237   2.179   0.351  10.448  0.1901 -0.2205 -0.0273
  155SAPE   C2217238   2.297   0.146  10.421 -0.1754  0.1496  0.5666
  155SAPE   H2R17239   2.386   0.121  10.361 -1.1545  1.4552 -1.5493
  155SAPE   H2S17240   2.288   0.091  10.517 -3.1242 -0.5948 -0.0321
  155SAPE    C317241   2.485   0.571  10.443 -0.2644 -0.2488  0.5741
  155SAPE    HX17242   2.591   0.538  10.453 -0.4138 -0.1556  3.3179
  155SAPE    HY17243   2.476   0.674  10.485  0.3100 -0.4188  1.1350
  155SAPE   O3117244   2.435   0.565  10.306  0.3419 -0.9886  0.1276
  155SAPE   C3117245   2.501   0.494  10.225 -0.2740  0.1262 -0.2539
  155SAPE   O3217246   2.598   0.419  10.253  0.1786 -0.0008  0.5389
  155SAPE   C3217247   2.445   0.520  10.084 -0.0718 -0.3307 -0.2858
  155SAPE   H2X17248   2.412   0.626  10.086 -0.2054 -0.3764  0.2949
  155SAPE   H2Y17249   2.346   0.472  10.069 -0.7818  0.2411  2.1051
  155SAPE   C2317250   2.170   0.088  10.348  0.0103 -0.0749  0.4311
  155SAPE   H3R17251   2.082   0.130  10.402 -0.4072 -1.3005  0.7331
  155SAPE   H3S17252   2.181  -0.022  10.350 -2.3737 -0.3837 -0.2786
  155SAPE   C2417253   2.157   0.146  10.207  0.0745  0.1398  0.1468
  155SAPE   H4R17254   2.140   0.255  10.223  1.8057  0.7151 -1.4935
  155SAPE   H4S17255   2.066   0.093  10.173 -0.4716 -0.4383  2.3974
  155SAPE   C2517256   2.267   0.116  10.105 -0.6706 -0.1082  0.5318
  155SAPE   H5R17257   2.357   0.064  10.138  0.5354  2.4407  1.5540
  155SAPE   C2617258   2.255   0.138   9.974 -0.0973 -0.4501 -0.0780
  155SAPE   H6R17259   2.340   0.110   9.909  0.5546  1.7784 -0.2773
  155SAPE   C2717260   2.135   0.197   9.906  0.0728 -0.0412 -0.3632
  155SAPE   H7R17261   2.148   0.306   9.922  0.5446  0.1933 -2.1393
  155SAPE   H7S17262   2.046   0.166   9.965  1.1717  0.0909  1.4471
  155SAPE   C2817263   2.101   0.165   9.764  0.2949  0.0059 -0.0534
  155SAPE   H8R17264   2.036   0.076   9.763  1.5221 -0.9269 -2.4585
  155SAPE   C2917265   2.134   0.219   9.647 -1.2036  0.5374  0.3670
  155SAPE   H9R17266   2.084   0.177   9.558 -2.2823 -1.8689  2.0112
  155SAPE  C21017267   2.234   0.331   9.620 -1.0441 -0.7782  1.0572
  155SAPE  H10R17268   2.230   0.402   9.706  1.8806  1.6921 -0.6514
  155SAPE  H10S17269   2.207   0.384   9.527  1.2664 -0.1702  0.6832
  155SAPE  C21117270   2.375   0.279   9.622 -0.1399 -0.2571 -0.4259
  155SAPE  H11R17271   2.407   0.255   9.725  0.3252  0.2181 -0.4541
  155SAPE  C21217272   2.464   0.272   9.519 -0.2560 -0.1756 -0.3058
  155SAPE  H12R17273   2.557   0.218   9.540 -0.3119 -0.8755 -1.7875
  155SAPE  C21317274   2.444   0.317   9.376  0.1893  0.1726  0.2784
  155SAPE  H13R17275   2.530   0.273   9.322 -0.0179 -0.6115  0.5668
  155SAPE  H13S17276   2.465   0.425   9.369 -1.5803  0.5090 -0.2184
  155SAPE  C21417277   2.323   0.280   9.288  0.5429 -0.5350  0.2113
  155SAPE  H14R17278   2.260   0.195   9.319 -0.2905 -0.1741 -0.4756
  155SAPE  C21517279   2.287   0.333   9.170  0.9966 -1.0409  0.2756
  155SAPE  H15R17280   2.181   0.315   9.148  0.2776  1.2191  1.5170
  155SAPE  C21617281   2.365   0.444   9.094 -0.1233 -0.9821  0.3220
  155SAPE  H16R17282   2.463   0.454   9.146  0.0574  0.6529 -0.2564
  155SAPE  H16S17283   2.313   0.541   9.108 -1.3842 -2.0385  4.2028
  155SAPE  C21717284   2.389   0.402   8.950 -0.3725 -0.2462 -0.7461
  155SAPE  H17R17285   2.295   0.370   8.899 -0.0775 -1.1994 -0.7221
  155SAPE  H17S17286   2.457   0.315   8.962  2.0628  1.8118  1.7698
  155SAPE  C21817287   2.462   0.513   8.875 -0.2311  1.1697  0.5987
  155SAPE  H18R17288   2.548   0.556   8.930 -0.0680  0.6285  0.7700
  155SAPE  H18S17289   2.388   0.595   8.879 -1.1569  0.5313 -1.7404
  155SAPE  C21917290   2.504   0.475   8.731  0.0925  0.2172  0.2799
  155SAPE  H19R17291   2.425   0.411   8.687  0.4429 -1.7108  2.2912
  155SAPE  H19S17292   2.595   0.411   8.723  1.2551  1.9917 -1.9246
  155SAPE  C22017293   2.514   0.600   8.648 -0.7746 -0.3467 -0.6263
  155SAPE  H20R17294   2.535   0.574   8.542 -1.4462  0.8761 -1.0826
  155SAPE  H20S17295   2.584   0.678   8.683  0.4814 -1.1924 -1.1894
  155SAPE  H20T17296   2.410   0.640   8.655 -0.8484 -0.8270  1.6551
  155SAPE   C3317297   2.563   0.512   9.980  0.0463  0.6790  0.1128
  155SAPE   H3X17298   2.618   0.415   9.979 -1.0597  0.0281  0.4096
  155SAPE   H3Y17299   2.632   0.597  10.001 -1.5121  1.9240  0.3498
  155SAPE   C3417300   2.526   0.514   9.829 -0.1756  0.4302 -0.4593
  155SAPE   H4X17301   2.429   0.462   9.820  0.0077 -0.3016  1.4511
  155SAPE   H4Y17302   2.605   0.459   9.773  1.2894  1.6983  0.2642
  155SAPE   C3517303   2.503   0.657   9.775 -0.2194  0.7713 -0.0442
  155SAPE   H5X17304   2.577   0.722   9.826  0.4785 -1.5984  2.1784
  155SAPE   H5Y17305   2.408   0.702   9.811  0.6308  3.1091 -0.5410
  155SAPE   C3617306   2.511   0.653   9.622 -0.3438 -0.1114  0.2265
  155SAPE   H6X17307   2.434   0.580   9.586 -2.8647  3.3677 -2.1562
  155SAPE   H6Y17308   2.612   0.626   9.585  0.0323  1.6104 -0.0867
  155SAPE   C3717309   2.472   0.787   9.556 -0.6172  0.7150 -0.5037
  155SAPE   H7X17310   2.544   0.868   9.582  2.6732 -1.8045 -1.1273
  155SAPE   H7Y17311   2.372   0.815   9.595 -0.5500 -1.3015  1.2621
  155SAPE   C3817312   2.463   0.779   9.403 -0.2662 -0.2897  0.0683
  155SAPE   H8X17313   2.388   0.703   9.372 -0.5648 -0.2419  0.6680
  155SAPE   H8Y17314   2.559   0.739   9.364 -0.9353 -1.1702 -0.7179
  155SAPE   C3917315   2.430   0.915   9.343 -0.4717 -0.4313  0.4476
  155SAPE   H9X17316   2.507   0.991   9.365 -0.2391 -0.2772 -0.8325
  155SAPE   H9Y17317   2.333   0.948   9.385  0.3275  2.0700  0.4584
  155SAPE  C31017318   2.425   0.929   9.186 -0.5913  0.8780  0.5759
  155SAPE  H10X17319   2.380   0.832   9.156  0.8244 -0.8239  3.4795
  155SAPE  H10Y17320   2.531   0.937   9.153 -0.3467 -2.5728  0.1658
  155SAPE  C31117321   2.356   1.058   9.136 -0.6861  0.2289 -0.1126
  155SAPE  H11X17322   2.391   1.136   9.207 -0.4583 -0.0486  0.0756
  155SAPE  H11Y17323   2.247   1.040   9.148 -0.6335 -0.4756 -0.6554
  155SAPE  C31217324   2.380   1.093   8.991  0.1784 -0.7771 -0.1447
  155SAPE  H12X17325   2.485   1.127   8.978  0.0191 -0.2405 -0.0347
  155SAPE  H12Y17326   2.306   1.171   8.963  0.8140 -0.2812 -0.4691
  155SAPE  C31317327   2.358   0.975   8.887 -0.7020 -0.6158 -0.7380
  155SAPE  H13X17328   2.436   0.900   8.910  0.7235  1.7875  3.5411
  155SAPE  H13Y17329   2.368   1.034   8.794  2.9088  0.4351  0.1412
  155SAPE  C31417330   2.225   0.899   8.889 -0.6554  0.3003 -0.3345
  155SAPE  H14X17331   2.210   0.850   8.988  0.3236 -2.9676 -1.6614
  155SAPE  H14Y17332   2.226   0.821   8.810 -1.5728 -0.6046  0.5177
  155SAPE  C31517333   2.100   0.988   8.882  0.7143  0.2036  0.8087
  155SAPE  H15X17334   2.092   1.050   8.974  0.7651  0.4266  0.6635
  155SAPE  H15Y17335   2.006   0.928   8.881  1.3071 -0.7930 -1.0758
  155SAPE  C31617336   2.107   1.091   8.767 -0.0777 -0.5441  0.2530
  155SAPE  H16X17337   2.114   1.024   8.679 -0.5422 -1.8942  1.1972
  155SAPE  H16Y17338   2.201   1.149   8.773  0.1923 -0.9233 -0.2717
  155SAPE  C31717339   1.989   1.186   8.754  0.5652 -0.3736  0.6145
  155SAPE  H17X17340   1.978   1.242   8.849  0.5161  0.0916  0.3433
  155SAPE  H17Y17341   1.896   1.126   8.746  0.6428 -0.4731  0.4502
  155SAPE  C31817342   1.991   1.292   8.643  0.0490  0.5849  0.2688
  155SAPE  H18X17343   2.079   1.360   8.646  1.5934 -1.0921 -2.6185
  155SAPE  H18Y17344   1.897   1.348   8.662  0.5505  1.4511  0.2887
  155SAPE  H18Z17345   1.990   1.245   8.542  1.8688  0.2487  0.3685
  156SAPE     N17346   6.482   5.981  10.504  0.1147 -0.4646  0.2362
  156SAPE   HN117347   6.571   5.943  10.544  0.4948  2.1114  2.0726
  156SAPE   HN217348   6.508   6.064  10.448 -0.0789 -0.5669 -0.0039
  156SAPE   HN317349   6.423   6.013  10.584  0.0652 -1.6407  0.7059
  156SAPE   C1217350   6.405   5.875  10.424  0.1907  1.0280  0.1570
  156SAPE  H12A17351   6.372   5.799  10.498  3.8725 -0.5764  0.3675
  156SAPE  H12B17352   6.481   5.828  10.359 -1.8850 -0.0841 -1.6018
  156SAPE   C1117353   6.311   5.954  10.327 -0.3119  0.8103  0.3353
  156SAPE  H11A17354   6.255   5.882  10.264 -0.3332  1.4329 -0.3698
  156SAPE  H11B17355   6.371   6.021  10.262 -1.1836  2.1251  0.8448
  156SAPE     P17356   6.187   6.186  10.341 -0.6887  0.2329 -0.1292
  156SAPE   O1317357   6.074   6.240  10.427  0.1026  0.5825 -0.0635
  156SAPE   O1417358   6.318   6.250  10.344 -0.0616  0.1932 -0.3055
  156SAPE   O1217359   6.216   6.036  10.396 -0.4825  0.4012 -0.0760
  156SAPE   O1117360   6.145   6.153  10.195 -0.5126 -0.2301 -0.1160
  156SAPE    C117361   6.131   6.247  10.087  0.2808 -0.1653  0.1104
  156SAPE    HA17362   6.073   6.339  10.106  2.1171  1.0311  0.2082
  156SAPE    HB17363   6.231   6.285  10.056 -0.4212  2.1385  0.4979
  156SAPE    C217364   6.081   6.170   9.965  0.2060 -0.2770  0.0332
  156SAPE    HS17365   6.093   6.232   9.874 -0.0145  0.8869  0.7710
  156SAPE   O2117366   5.941   6.148   9.992  0.3761 -0.0970  0.1074
  156SAPE   C2117367   5.874   6.126   9.880  0.2824 -0.2776  0.3019
  156SAPE   O2217368   5.908   6.147   9.766 -0.1913 -0.1739 -0.3336
  156SAPE   C2217369   5.741   6.049   9.909  0.0601 -0.5004  0.4546
  156SAPE   H2R17370   5.712   6.002   9.812 -1.7017  0.2500  0.5782
  156SAPE   H2S17371   5.768   5.974   9.986  1.0560 -0.1146  0.5036
  156SAPE    C317372   6.157   6.036   9.950  0.6581 -0.0678 -1.0061
  156SAPE    HX17373   6.136   5.990  10.049 -0.9935  1.2567 -0.6841
  156SAPE    HY17374   6.265   6.051   9.931  0.9058 -3.3018 -2.8515
  156SAPE   O3117375   6.118   5.958   9.837  0.0747  0.1315 -0.3531
  156SAPE   C3117376   6.163   6.000   9.723 -0.3140 -0.1832  0.7630
  156SAPE   O3217377   6.233   6.097   9.706 -0.2202  0.1084  0.1727
  156SAPE   C3217378   6.113   5.927   9.601  1.2873 -0.1292 -0.9849
  156SAPE   H2X17379   6.018   5.871   9.618  0.7598  0.6796 -1.2017
  156SAPE   H2Y17380   6.197   5.856   9.585  1.8797  0.5597 -0.9672
  156SAPE   C2317381   5.628   6.138   9.963 -0.2019 -0.2474  0.0280
  156SAPE   H3R17382   5.651   6.190  10.059  2.1152 -0.6747 -0.2534
  156SAPE   H3S17383   5.529   6.088   9.974 -0.0157 -0.5837  0.1810
  156SAPE   C2417384   5.574   6.248   9.861 -0.7491 -0.6069  0.7838
  156SAPE   H4R17385   5.478   6.286   9.904 -0.6713 -1.8134  2.1334
  156SAPE   H4S17386   5.550   6.201   9.763 -0.2591 -1.0701  0.8796
  156SAPE   C2517387   5.664   6.367   9.838 -0.0732 -0.2896 -0.0245
  156SAPE   H5R17388   5.712   6.412   9.926 -0.7208  1.7927 -0.6745
  156SAPE   C2617389   5.683   6.425   9.712  0.0589  0.6894  0.4593
  156SAPE   H6R17390   5.757   6.506   9.707  0.6444  0.0818 -1.2918
  156SAPE   C2717391   5.630   6.392   9.575 -0.5133 -0.9382 -0.4627
  156SAPE   H7R17392   5.649   6.484   9.515 -0.4094 -0.8246 -0.2563
  156SAPE   H7S17393   5.520   6.379   9.578 -0.6105 -0.0272  1.8337
  156SAPE   C2817394   5.698   6.278   9.506  0.4599  0.2582  0.1362
  156SAPE   H8R17395   5.767   6.232   9.577 -0.1150  0.9695  1.1751
  156SAPE   C2917396   5.689   6.229   9.384  0.6027  0.3379  0.1301
  156SAPE   H9R17397   5.744   6.135   9.368  0.0663 -0.1173  0.8763
  156SAPE  C21017398   5.601   6.278   9.269  0.3696 -0.5231  0.0168
  156SAPE  H10R17399   5.535   6.364   9.294  1.0446 -0.0189  0.0708
  156SAPE  H10S17400   5.530   6.197   9.239  0.4865 -1.6798  2.5738
  156SAPE  C21117401   5.690   6.321   9.160  0.2565 -0.9889  0.2209
  156SAPE  H11R17402   5.739   6.418   9.180 -0.0425 -1.2165  2.2969
  156SAPE  C21217403   5.695   6.277   9.032 -0.0090  0.7460  0.6473
  156SAPE  H12R17404   5.760   6.325   8.958 -2.6419  4.4951  0.5103
  156SAPE  C21317405   5.604   6.163   8.972 -0.4270  0.0323  0.0719
  156SAPE  H13R17406   5.586   6.177   8.864 -0.2113 -2.9639 -0.4458
  156SAPE  H13S17407   5.505   6.149   9.020 -0.6626 -0.3924 -0.5192
  156SAPE  C21417408   5.669   6.028   8.982 -0.1221 -0.2023  0.0475
  156SAPE  H14R17409   5.704   5.996   9.081 -1.0738  0.6958  0.6917
  156SAPE  C21517410   5.680   5.942   8.874  0.6796  0.1826 -0.7777
  156SAPE  H15R17411   5.741   5.851   8.886 -0.9649 -0.7825  0.8449
  156SAPE  C21617412   5.634   5.952   8.730 -0.2065 -0.1921 -0.0214
  156SAPE  H16R17413   5.720   5.914   8.669 -1.2084 -2.4975 -0.0968
  156SAPE  H16S17414   5.608   6.054   8.697  2.4917  1.5534  2.7456
  156SAPE  C21717415   5.513   5.864   8.675 -0.5244 -1.1093 -0.1432
  156SAPE  H17R17416   5.531   5.761   8.711  1.5207 -0.3395  1.2344
  156SAPE  H17S17417   5.511   5.860   8.564 -1.8414 -2.2706 -0.1016
  156SAPE  C21817418   5.381   5.919   8.727 -0.1273  0.4256  0.5351
  156SAPE  H18R17419   5.383   6.030   8.718  0.2501  0.3622 -0.2537
  156SAPE  H18S17420   5.363   5.905   8.836 -3.8457 -0.1955 -0.0204
  156SAPE  C21917421   5.255   5.869   8.660 -0.2619 -0.4046 -0.5069
  156SAPE  H19R17422   5.257   5.758   8.666 -0.4278 -0.3594  0.7308
  156SAPE  H19S17423   5.240   5.892   8.553 -2.0919  2.1735  0.2127
  156SAPE  C22017424   5.129   5.933   8.728  0.2886  0.3527 -0.2106
  156SAPE  H20R17425   5.137   6.043   8.740 -0.5855  0.3229  0.8335
  156SAPE  H20S17426   5.133   5.896   8.833  1.2984  0.1761 -0.3067
  156SAPE  H20T17427   5.036   5.906   8.674  0.4372  0.4177 -0.5028
  156SAPE   C3317428   6.103   6.028   9.485  0.1394 -0.1649  0.4083
  156SAPE   H3X17429   6.196   6.081   9.458 -0.1757 -0.8490 -2.3810
  156SAPE   H3Y17430   6.029   6.107   9.511 -0.3862 -0.4347 -0.2412
  156SAPE   C3417431   6.044   5.965   9.352  0.3031 -0.0148  0.0453
  156SAPE   H4X17432   5.950   5.911   9.377  0.7881 -0.6619  0.5347
  156SAPE   H4Y17433   6.108   5.885   9.309 -1.6202 -0.7167 -1.6466
  156SAPE   C3517434   6.019   6.066   9.245 -0.4889 -0.0660  0.1064
  156SAPE   H5X17435   5.948   6.133   9.297 -3.2903 -2.0226 -0.9336
  156SAPE   H5Y17436   5.972   6.023   9.153  1.5055  0.3169 -1.1555
  156SAPE   C3617437   6.130   6.157   9.196 -0.1079  0.1231 -0.4655
  156SAPE   H6X17438   6.188   6.205   9.279  0.6765 -1.8699  0.1958
  156SAPE   H6Y17439   6.091   6.250   9.148  4.0233  2.1621 -0.3515
  156SAPE   C3717440   6.222   6.091   9.096  0.6012 -0.0068 -1.1251
  156SAPE   H7X17441   6.156   6.070   9.010  1.1158 -0.0232 -1.5179
  156SAPE   H7Y17442   6.268   6.001   9.144 -0.4391  1.2488  2.5364
  156SAPE   C3817443   6.324   6.189   9.046  0.0326 -0.4924 -0.1340
  156SAPE   H8X17444   6.394   6.137   8.978  0.4649 -0.0156 -0.0535
  156SAPE   H8Y17445   6.390   6.240   9.119  0.3215 -0.5160 -0.3778
  156SAPE   C3917446   6.262   6.293   8.949 -0.6240  0.3988 -0.3842
  156SAPE   H9X17447   6.221   6.375   9.013 -0.6290  0.8100 -0.9035
  156SAPE   H9Y17448   6.175   6.250   8.895 -0.6981  0.1186 -0.0454
  156SAPE  C31017449   6.369   6.362   8.858  0.2054  0.3783  0.1433
  156SAPE  H10X17450   6.441   6.411   8.926 -0.3481  3.2717 -1.2229
  156SAPE  H10Y17451   6.326   6.445   8.799  0.6537  0.9662  0.6264
  156SAPE  C31117452   6.449   6.276   8.763  0.7614 -0.2887  0.6573
  156SAPE  H11X17453   6.518   6.206   8.813  1.6128  0.3143  0.3487
  156SAPE  H11Y17454   6.513   6.345   8.704  2.9653 -2.5076  0.3243
  156SAPE  C31217455   6.355   6.199   8.664  0.0313 -0.2621  0.1026
  156SAPE  H12X17456   6.327   6.261   8.576  0.8452 -0.7073 -0.4878
  156SAPE  H12Y17457   6.261   6.164   8.712 -0.4981  0.9437 -0.0189
  156SAPE  C31317458   6.424   6.078   8.607  0.1627  0.9760  0.3618
  156SAPE  H13X17459   6.517   6.096   8.549 -0.7623 -0.3060 -1.6379
  156SAPE  H13Y17460   6.344   6.037   8.542 -1.0558  3.8005 -0.0734
  156SAPE  C31417461   6.445   5.962   8.711  0.8106  0.5121 -0.1112
  156SAPE  H14X17462   6.491   6.009   8.800  0.7019  0.7870 -0.2006
  156SAPE  H14Y17463   6.521   5.893   8.667  2.5133  0.1769  3.0650
  156SAPE  C31517464   6.322   5.878   8.753 -0.1963 -0.3747  0.1501
  156SAPE  H15X17465   6.236   5.939   8.789 -1.6447 -1.4614 -1.3267
  156SAPE  H15Y17466   6.347   5.831   8.851  0.1030 -1.9646 -0.6565
  156SAPE  C31617467   6.282   5.767   8.663  0.1739 -0.2422  0.5319
  156SAPE  H16X17468   6.245   5.688   8.732 -1.1149  0.3725  0.5719
  156SAPE  H16Y17469   6.365   5.726   8.602  1.5733 -0.5165  2.5080
  156SAPE  C31717470   6.162   5.809   8.563 -1.0938 -0.5788 -0.1176
  156SAPE  H17X17471   6.194   5.898   8.504 -0.2909 -2.3854 -2.5890
  156SAPE  H17Y17472   6.078   5.831   8.633 -2.1183 -1.5134 -1.0164
  156SAPE  C31817473   6.117   5.711   8.457  0.1330  0.5287 -0.2483
  156SAPE  H18X17474   6.188   5.703   8.372 -0.3696  0.8768 -0.7030
  156SAPE  H18Y17475   6.016   5.727   8.414 -1.5557 -0.1816  3.0825
  156SAPE  H18Z17476   6.113   5.610   8.504  1.4459  0.5543 -0.0411
  157SAPE     N17477   0.214   4.696  10.874  0.1585 -0.6605 -0.0106
  157SAPE   HN117478   0.113   4.677  10.861 -1.1596  4.8228 -0.5321
  157SAPE   HN217479   0.267   4.647  10.799  0.3873  2.8995 -2.4310
  157SAPE   HN317480   0.262   4.671  10.963  0.6278 -1.9227 -0.5991
  157SAPE   C1217481   0.221   4.841  10.831  0.7354  0.2781 -0.3694
  157SAPE  H12A17482   0.326   4.874  10.849  0.0058  2.1381  0.8581
  157SAPE  H12B17483   0.159   4.900  10.902 -0.7600 -0.2775 -1.1872
  157SAPE   C1117484   0.193   4.845  10.677 -1.0180  0.5356 -0.5873
  157SAPE  H11A17485   0.184   4.949  10.640 -2.7730  0.7140  0.2425
  157SAPE  H11B17486   0.102   4.787  10.650 -1.3020  0.3243  0.7385
  157SAPE     P17487   0.401   4.854  10.528 -0.1813  0.0405  0.1488
  157SAPE   O1317488   0.440   4.980  10.593 -0.3755  0.5471 -0.1452
  157SAPE   O1417489   0.507   4.753  10.494 -0.1993  0.1547  0.2265
  157SAPE   O1217490   0.292   4.773  10.606  0.4234 -0.0124 -0.2658
  157SAPE   O1117491   0.340   4.893  10.391  0.7705 -1.3343 -0.5423
  157SAPE    C117492   0.207   4.850  10.349  0.5418  0.0002  0.0270
  157SAPE    HA17493   0.165   4.767  10.410  0.3537 -1.1923 -1.6444
  157SAPE    HB17494   0.138   4.936  10.367  1.8571  0.7670  1.5834
  157SAPE    C217495   0.209   4.802  10.201  0.3042  0.1716 -0.8999
  157SAPE    HS17496   0.119   4.747  10.166  1.1352 -1.1132 -1.0795
  157SAPE   O2117497   0.317   4.707  10.187 -0.3867  0.5975 -0.0143
  157SAPE   C2117498   0.306   4.595  10.252  0.5758 -0.2607 -0.7956
  157SAPE   O2217499   0.198   4.548  10.285  0.1353  0.1600  0.2037
  157SAPE   C2217500   0.439   4.510  10.263  0.5477  0.0594  0.9084
  157SAPE   H2R17501   0.516   4.589  10.251  1.2671 -0.6175  0.9960
  157SAPE   H2S17502   0.441   4.456  10.360 -1.1167 -3.0649 -0.6186
  157SAPE    C317503   0.238   4.925  10.105  0.5724  0.2247  0.1862
  157SAPE    HX17504   0.310   4.993  10.155  2.6093 -0.9444 -1.0618
  157SAPE    HY17505   0.136   4.969  10.100  0.7911  0.6808 -0.2498
  157SAPE   O3117506   0.268   4.894   9.963 -0.2686  0.1160 -0.3733
  157SAPE   C3117507   0.397   4.900   9.946  0.1817  0.2861  0.3707
  157SAPE   O3217508   0.479   4.931  10.027 -0.3556 -0.3041  0.0482
  157SAPE   C3217509   0.426   4.858   9.797  0.1807  0.8746 -0.1101
  157SAPE   H2X17510   0.326   4.841   9.751  0.8002 -0.6942 -0.9397
  157SAPE   H2Y17511   0.488   4.767   9.804  0.5686  1.1989  0.7723
  157SAPE   C2317512   0.457   4.398  10.151 -0.0070 -0.0434  0.7115
  157SAPE   H3R17513   0.385   4.315  10.168  0.6589 -0.7983 -0.0655
  157SAPE   H3S17514   0.560   4.357  10.157 -0.0023 -0.0802  0.3693
  157SAPE   C2417515   0.424   4.452  10.011 -0.1079  0.7839  0.3145
  157SAPE   H4R17516   0.493   4.392   9.947 -0.4501  2.5182 -1.8355
  157SAPE   H4S17517   0.452   4.559   9.997  0.7099  0.6033  0.4806
  157SAPE   C2517518   0.283   4.420   9.965 -0.2670  1.0201 -0.1167
  157SAPE   H5R17519   0.225   4.380  10.049 -3.2972 -0.0794 -2.5214
  157SAPE   C2617520   0.214   4.441   9.852  0.2282  0.4466 -0.1056
  157SAPE   H6R17521   0.115   4.396   9.836  0.5936 -1.0125  1.4466
  157SAPE   C2717522   0.283   4.492   9.728 -0.0757 -0.5556 -0.5616
  157SAPE   H7R17523   0.304   4.399   9.670  0.5820 -0.9886  0.3424
  157SAPE   H7S17524   0.383   4.535   9.749  1.7359 -4.5915  0.0983
  157SAPE   C2817525   0.199   4.592   9.644 -0.7212 -0.9124  0.4941
  157SAPE   H8R17526   0.113   4.639   9.696 -0.6208 -1.1351  0.8668
  157SAPE   C2917527   0.220   4.617   9.512  0.2573 -0.1183 -0.3497
  157SAPE   H9R17528   0.153   4.688   9.463 -2.0285 -1.6411  0.3499
  157SAPE  C21017529   0.325   4.560   9.416 -0.1871  0.1713 -0.3615
  157SAPE  H10R17530   0.257   4.500   9.352 -2.6852  2.7751 -0.3925
  157SAPE  H10S17531   0.395   4.491   9.468 -0.2745  0.9432  0.8264
  157SAPE  C21117532   0.401   4.663   9.338  1.0640  0.5612 -0.8086
  157SAPE  H11R17533   0.430   4.754   9.392  0.0083  2.1103 -2.7212
  157SAPE  C21217534   0.431   4.657   9.211 -0.2067  0.8488  0.8051
  157SAPE  H12R17535   0.459   4.753   9.165 -0.8368  0.2809 -0.8387
  157SAPE  C21317536   0.410   4.555   9.107  0.1868  0.1630 -0.1646
  157SAPE  H13R17537   0.336   4.483   9.147 -1.5964  0.4899 -2.6302
  157SAPE  H13S17538   0.506   4.500   9.090  0.3865  0.6892 -0.7856
  157SAPE  C21417539   0.349   4.606   8.976 -0.3090 -0.0535 -0.5258
  157SAPE  H14R17540   0.293   4.701   8.979  0.1746  0.2402  2.2480
  157SAPE  C21517541   0.383   4.558   8.854 -0.2671 -0.2028 -0.1905
  157SAPE  H15R17542   0.347   4.610   8.764 -1.1626 -0.3981  0.0467
  157SAPE  C21617543   0.480   4.446   8.822 -0.0278 -0.8212  0.2208
  157SAPE  H16R17544   0.551   4.438   8.907  1.5673 -0.7769 -1.0492
  157SAPE  H16S17545   0.548   4.472   8.738  1.6796 -1.3100  1.3888
  157SAPE  C21717546   0.406   4.321   8.785 -0.6852 -0.3722 -0.1276
  157SAPE  H17R17547   0.323   4.337   8.713  0.0107 -2.4716 -1.4895
  157SAPE  H17S17548   0.366   4.275   8.877  0.6661 -3.3040 -0.8753
  157SAPE  C21817549   0.499   4.210   8.725 -0.8542 -0.2122  0.0872
  157SAPE  H18R17550   0.574   4.175   8.799 -0.9955 -1.4808 -0.3431
  157SAPE  H18S17551   0.552   4.245   8.634  2.1082 -1.1271  1.3417
  157SAPE  C21917552   0.426   4.083   8.692 -0.0711  0.3022 -0.0941
  157SAPE  H19R17553   0.353   4.040   8.764  0.8905  0.5151  1.0340
  157SAPE  H19S17554   0.513   4.015   8.679 -0.3619 -0.3704  1.2400
  157SAPE  C22017555   0.357   4.096   8.560  0.4295  0.5741 -0.2585
  157SAPE  H20R17556   0.286   4.181   8.558  2.8822  2.8570  1.5531
  157SAPE  H20S17557   0.313   4.003   8.519  1.7027  0.2397 -0.9228
  157SAPE  H20T17558   0.428   4.126   8.480  0.0382 -1.5289 -1.4616
  157SAPE   C3317559   0.511   4.961   9.723  0.1195  0.3001 -0.2762
  157SAPE   H3X17560   0.536   4.917   9.624  0.2043  0.4308 -0.3143
  157SAPE   H3Y17561   0.609   4.983   9.772 -0.8353  0.7331  1.5359
  157SAPE   C3417562   0.439   5.091   9.696  0.6147 -0.0828 -0.9701
  157SAPE   H4X17563   0.500   5.148   9.623  0.6258  2.5745  0.9492
  157SAPE   H4Y17564   0.435   5.151   9.789  0.4780 -0.3660 -0.7904
  157SAPE   C3517565   0.290   5.076   9.638  0.7225  0.4545  0.1522
  157SAPE   H5X17566   0.252   5.177   9.615 -2.0353 -0.1447  1.5934
  157SAPE   H5Y17567   0.225   5.036   9.720  0.5457 -1.1052 -0.7073
  157SAPE   C3617568   0.284   5.000   9.504 -0.3504 -0.2061 -0.1299
  157SAPE   H6X17569   0.311   4.897   9.536  0.6875  0.4779  1.2734
  157SAPE   H6Y17570   0.354   5.037   9.426 -0.1448 -0.0744  0.1128
  157SAPE   C3717571   0.146   4.994   9.442  0.6208 -0.1214  0.6451
  157SAPE   H7X17572   0.099   5.094   9.450 -0.9422 -0.6601 -1.0209
  157SAPE   H7Y17573   0.089   4.920   9.502  0.1453  2.1455  3.1197
  157SAPE   C3817574   0.147   4.949   9.291  0.5757 -0.3641  1.0846
  157SAPE   H8X17575   0.056   4.891   9.265  0.0940  0.6855  0.3473
  157SAPE   H8Y17576   0.238   4.889   9.272  0.3285 -0.7868  1.2074
  157SAPE   C3917577   0.142   5.073   9.200 -0.4344  0.6003 -0.1100
  157SAPE   H9X17578   0.243   5.117   9.207 -1.3098  2.7607 -0.2519
  157SAPE   H9Y17579   0.069   5.152   9.231 -1.1666 -0.2810  0.4620
  157SAPE  C31017580   0.114   5.036   9.058 -0.4035 -0.7870  0.5402
  157SAPE  H10X17581   0.007   5.041   9.025  0.1771  0.6361 -1.3629
  157SAPE  H10Y17582   0.140   4.929   9.064 -2.4124 -1.2709  1.4450
  157SAPE  C31117583   0.218   5.105   8.964  0.4583 -0.2427  0.2542
  157SAPE  H11X17584   0.321   5.109   9.007  0.9836  2.3376 -1.0208
  157SAPE  H11Y17585   0.190   5.212   8.956 -1.4543 -0.8562 -2.6335
  157SAPE  C31217586   0.236   5.051   8.825  0.4579  0.1340  0.5108
  157SAPE  H12X17587   0.292   4.955   8.826  0.1590 -0.1531 -2.2592
  157SAPE  H12Y17588   0.293   5.120   8.759 -0.8259 -0.6792 -1.5498
  157SAPE  C31317589   0.105   5.023   8.748 -0.2206 -0.7011 -1.5917
  157SAPE  H13X17590   0.044   4.947   8.802 -0.1597  0.0290 -0.4615
  157SAPE  H13Y17591   0.125   4.979   8.648 -0.3651 -3.0591 -0.6562
  157SAPE  C31417592   0.028   5.152   8.723  0.4262 -0.5126  0.0318
  157SAPE  H14X17593   0.102   5.228   8.690 -0.5736  1.2224  1.6003
  157SAPE  H14Y17594  -0.018   5.185   8.819 -2.2971  2.0571 -1.9883
  157SAPE  C31517595  -0.076   5.145   8.609  0.1249  0.2403 -0.1045
  157SAPE  H15X17596  -0.160   5.099   8.665  1.1481 -0.8196  0.6258
  157SAPE  H15Y17597  -0.052   5.083   8.520  0.1629 -0.4193  0.3494
  157SAPE  C31617598  -0.120   5.285   8.547 -0.0943  0.3411 -0.1676
  157SAPE  H16X17599  -0.208   5.259   8.485 -0.3798  0.1946  0.2963
  157SAPE  H16Y17600  -0.032   5.314   8.484  1.1875  0.0477  1.4180
  157SAPE  C31717601  -0.168   5.397   8.649 -0.3654  0.2260  0.2150
  157SAPE  H17X17602  -0.093   5.388   8.730 -1.1086 -1.6991  0.7501
  157SAPE  H17Y17603  -0.264   5.375   8.700  0.3147 -2.2656  0.5444
  157SAPE  C31817604  -0.169   5.543   8.594 -1.2058 -0.7336  0.2830
  157SAPE  H18X17605  -0.175   5.615   8.678  1.0844 -0.6862  0.4678
  157SAPE  H18Y17606  -0.247   5.568   8.519 -0.4674 -0.2061 -0.3263
  157SAPE  H18Z17607  -0.069   5.555   8.546 -1.7640 -0.2791 -0.8082
  158SAPE     N17608   1.389   5.610  10.611  0.9028 -0.2190  0.3416
  158SAPE   HN117609   1.317   5.555  10.559 -0.5542  0.8267  1.1884
  158SAPE   HN217610   1.417   5.545  10.687  1.0999 -2.2975 -1.4145
  158SAPE   HN317611   1.348   5.696  10.651  2.5724  0.3815  0.8566
  158SAPE   C1217612   1.495   5.640  10.516  0.2251  0.6505  0.1519
  158SAPE  H12A17613   1.450   5.704  10.437  0.4119 -0.4609 -0.8882
  158SAPE  H12B17614   1.527   5.539  10.482  0.5336 -0.1949  2.7429
  158SAPE   C1117615   1.610   5.706  10.588  0.8241 -0.0073 -0.5774
  158SAPE  H11A17616   1.562   5.790  10.643 -1.0650 -2.7568  2.3378
  158SAPE  H11B17617   1.688   5.735  10.514  1.5734  0.3160  0.3121
  158SAPE     P17618   1.782   5.533  10.677 -0.3500 -0.0915 -0.2127
  158SAPE   O1317619   1.909   5.606  10.675 -0.4317 -0.4144  0.2282
  158SAPE   O1417620   1.772   5.433  10.784  0.4338  0.0732  0.1322
  158SAPE   O1217621   1.661   5.631  10.694 -0.2975  0.1606 -0.7971
  158SAPE   O1117622   1.751   5.465  10.529 -0.4052  0.3019 -0.5749
  158SAPE    C117623   1.852   5.428  10.451  0.2691 -0.5406  0.6409
  158SAPE    HA17624   1.952   5.465  10.484  0.4184  1.6282 -1.9071
  158SAPE    HB17625   1.854   5.317  10.443  1.4286 -0.4120 -1.6027
  158SAPE    C217626   1.824   5.494  10.307  1.0197  0.4085 -0.0673
  158SAPE    HS17627   1.812   5.603  10.322  1.5182  0.3140  1.1569
  158SAPE   O2117628   1.713   5.426  10.249 -0.1695 -0.2104  0.3649
  158SAPE   C2117629   1.631   5.515  10.180  0.0447 -0.3358 -0.3978
  158SAPE   O2217630   1.653   5.638  10.178 -0.0951 -0.3778 -0.3138
  158SAPE   C2217631   1.508   5.451  10.112  0.3061 -0.3048 -0.3331
  158SAPE   H2R17632   1.522   5.353  10.062  0.6320 -0.3665 -0.1252
  158SAPE   H2S17633   1.438   5.411  10.189 -0.1623 -2.4905 -1.8145
  158SAPE    C317634   1.950   5.479  10.211 -0.1509 -0.9009  0.4270
  158SAPE    HX17635   1.974   5.371  10.218  0.7366 -0.7348  0.0598
  158SAPE    HY17636   2.038   5.535  10.249  0.1730  0.6213 -2.3482
  158SAPE   O3117637   1.913   5.519  10.074  0.3002 -0.7029  0.5353
  158SAPE   C3117638   1.962   5.452   9.975  0.0404 -0.1547  1.0962
  158SAPE   O3217639   2.039   5.357   9.987 -0.2346 -0.5423  0.2257
  158SAPE   C3217640   1.925   5.514   9.841  0.2282 -0.1080 -0.2339
  158SAPE   H2X17641   1.916   5.623   9.858 -0.3631 -0.1887 -0.0275
  158SAPE   H2Y17642   1.828   5.476   9.803 -0.5590  0.1439  1.4289
  158SAPE   C2317643   1.429   5.548  10.017  0.4314 -0.4100  0.1394
  158SAPE   H3R17644   1.408   5.636  10.081  0.1770 -0.6573  0.4003
  158SAPE   H3S17645   1.330   5.504   9.991  0.0224 -0.7185  2.0976
  158SAPE   C2417646   1.488   5.584   9.881 -0.4384  0.4660  0.4511
  158SAPE   H4R17647   1.400   5.635   9.836 -0.4710  1.0675  1.1727
  158SAPE   H4S17648   1.507   5.491   9.823  1.0283  0.8081  0.3684
  158SAPE   C2517649   1.611   5.668   9.859 -0.2528 -0.3432 -0.0133
  158SAPE   H5R17650   1.669   5.671   9.952 -0.7963 -0.9757  0.3591
  158SAPE   C2617651   1.660   5.722   9.740  0.1571 -0.2553 -0.1958
  158SAPE   H6R17652   1.758   5.773   9.740  1.1007 -1.9821  0.9379
  158SAPE   C2717653   1.592   5.702   9.600 -0.3374  0.1570 -0.7918
  158SAPE   H7R17654   1.518   5.620   9.605 -0.3111  0.2068  1.3398
  158SAPE   H7S17655   1.669   5.667   9.527 -1.3271 -2.3792 -0.6946
  158SAPE   C2817656   1.510   5.819   9.557  0.8430  0.5826  0.7802
  158SAPE   H8R17657   1.434   5.863   9.623  0.1482  0.8319 -0.1620
  158SAPE   C2917658   1.515   5.874   9.436 -0.5907  0.2923  0.0858
  158SAPE   H9R17659   1.464   5.970   9.421  1.2209  1.0895 -1.1770
  158SAPE  C21017660   1.613   5.839   9.326  1.2390 -0.1390  0.1454
  158SAPE  H10R17661   1.710   5.804   9.366 -0.1101 -2.2346  1.7692
  158SAPE  H10S17662   1.632   5.926   9.259 -4.2257  0.8638 -0.6042
  158SAPE  C21117663   1.558   5.730   9.233 -0.1309 -0.3330 -0.7695
  158SAPE  H11R17664   1.452   5.703   9.246 -0.9862  2.6632 -0.7295
  158SAPE  C21217665   1.630   5.638   9.158 -0.7717  0.1753 -0.3981
  158SAPE  H12R17666   1.569   5.559   9.113 -1.0792  1.0376 -1.5563
  158SAPE  C21317667   1.781   5.629   9.146  0.1431  0.4771  0.4980
  158SAPE  H13R17668   1.832   5.702   9.213 -1.3309  1.3547  0.7092
  158SAPE  H13S17669   1.806   5.650   9.040  1.2942  0.1506  0.6895
  158SAPE  C21417670   1.827   5.489   9.190 -0.1339  0.1364 -0.8635
  158SAPE  H14R17671   1.849   5.477   9.297 -1.5380  1.0160 -0.4422
  158SAPE  C21517672   1.854   5.389   9.105  0.0069  0.5725 -0.1080
  158SAPE  H15R17673   1.887   5.293   9.148 -1.5027  0.3668  0.6572
  158SAPE  C21617674   1.852   5.394   8.952  0.7385  0.6249  0.0473
  158SAPE  H16R17675   1.951   5.419   8.908  0.6524  0.0850 -0.4690
  158SAPE  H16S17676   1.782   5.472   8.916  2.1264  2.2692  0.7853
  158SAPE  C21717677   1.810   5.258   8.889  0.3514  0.4056  0.2521
  158SAPE  H17R17678   1.727   5.213   8.947  1.5760 -2.2374  0.0769
  158SAPE  H17S17679   1.890   5.182   8.895 -0.8293 -1.0070 -1.1027
  158SAPE  C21817680   1.783   5.261   8.736  0.0739  0.2970  0.1747
  158SAPE  H18R17681   1.875   5.272   8.674  0.6496 -1.3827  0.6668
  158SAPE  H18S17682   1.719   5.351   8.721 -0.8141 -0.3851 -0.2001
  158SAPE  C21917683   1.702   5.142   8.682 -0.9128 -0.0385  0.0937
  158SAPE  H19R17684   1.616   5.105   8.742 -1.0899  0.3828  0.0988
  158SAPE  H19S17685   1.760   5.048   8.668 -0.2989  0.4740 -0.9006
  158SAPE  C22017686   1.642   5.194   8.551  0.4595 -0.0667  0.7623
  158SAPE  H20R17687   1.552   5.258   8.565 -0.2494 -0.7222 -0.6041
  158SAPE  H20S17688   1.611   5.109   8.487 -1.6515 -0.1286  1.7768
  158SAPE  H20T17689   1.717   5.260   8.503  1.5021 -0.5000  1.7731
  158SAPE   C3317690   2.039   5.482   9.739  0.0625 -0.4551  0.3872
  158SAPE   H3X17691   2.051   5.372   9.730  0.9020 -0.1756 -4.3880
  158SAPE   H3Y17692   2.129   5.521   9.789  0.1932 -0.3189  0.0498
  158SAPE   C3417693   2.015   5.538   9.596  0.0232 -0.5234 -0.4249
  158SAPE   H4X17694   1.919   5.497   9.560 -1.5888  1.8543  0.9176
  158SAPE   H4Y17695   2.094   5.523   9.519  1.4178  3.1237  0.0851
  158SAPE   C3517696   1.999   5.696   9.599 -0.2752  0.2089 -0.1175
  158SAPE   H5X17697   2.065   5.734   9.680 -0.9309  1.2702 -0.0579
  158SAPE   H5Y17698   1.894   5.722   9.624 -1.1120  0.2815 -3.3122
  158SAPE   C3617699   2.029   5.774   9.469 -0.0480  0.5765  0.6949
  158SAPE   H6X17700   1.972   5.731   9.383  0.6489  0.9910  0.0094
  158SAPE   H6Y17701   2.138   5.753   9.455 -0.6043 -2.7063  0.4419
  158SAPE   C3717702   1.993   5.918   9.484  0.2988  0.4893  0.0823
  158SAPE   H7X17703   2.045   5.956   9.575 -0.6426 -1.5378  1.5546
  158SAPE   H7Y17704   1.888   5.935   9.517  0.2811  0.3374  0.1044
  158SAPE   C3817705   2.033   6.009   9.370  0.1843 -0.2395 -0.1698
  158SAPE   H8X17706   2.144   6.009   9.362  0.4261  2.2349  1.8320
  158SAPE   H8Y17707   2.011   6.115   9.392 -2.7350 -0.7549 -0.2358
  158SAPE   C3917708   1.975   5.979   9.234  0.4556 -0.2360  0.0712
  158SAPE   H9X17709   1.865   5.974   9.247  0.6182 -0.7747  1.4354
  158SAPE   H9Y17710   2.001   5.873   9.209  0.7590 -1.3177  4.1835
  158SAPE  C31017711   2.009   6.082   9.123  0.7652  1.2395  0.4371
  158SAPE  H10X17712   2.119   6.078   9.110  1.2358  1.3801  3.5739
  158SAPE  H10Y17713   1.980   6.182   9.163 -1.4351  0.7027  0.3369
  158SAPE  C31117714   1.921   6.056   8.990 -0.0518  0.2830 -0.6894
  158SAPE  H11X17715   1.951   6.144   8.929 -2.2276  1.9876  0.5143
  158SAPE  H11Y17716   1.814   6.065   9.018 -0.0247 -0.4029 -0.3434
  158SAPE  C31217717   1.950   5.925   8.931  0.5387 -0.4498 -0.2775
  158SAPE  H12X17718   1.924   5.840   8.997 -0.8943  1.0114  1.1304
  158SAPE  H12Y17719   2.051   5.910   8.888 -0.2919 -1.5094 -1.9755
  158SAPE  C31317720   1.846   5.912   8.816 -0.3725  0.2699 -0.1161
  158SAPE  H13X17721   1.878   5.822   8.758  0.3061 -0.8899  1.9555
  158SAPE  H13Y17722   1.861   6.004   8.756  0.0952  0.5194  0.3761
  158SAPE  C31417723   1.696   5.900   8.848  0.1219 -0.4678 -0.4513
  158SAPE  H14X17724   1.662   5.983   8.914  1.0474  0.5539 -1.2301
  158SAPE  H14Y17725   1.680   5.807   8.906  0.4305  0.7399  1.6981
  158SAPE  C31517726   1.612   5.904   8.715  0.0464 -0.4457 -0.0153
  158SAPE  H15X17727   1.656   5.994   8.667  1.5218 -1.2835 -0.2896
  158SAPE  H15Y17728   1.509   5.927   8.750  0.7928  0.6242  1.5909
  158SAPE  C31617729   1.602   5.779   8.627 -0.3905  0.2100 -0.2942
  158SAPE  H16X17730   1.699   5.786   8.573  0.0703 -0.3133  0.4520
  158SAPE  H16Y17731   1.511   5.779   8.564 -0.7517 -0.9725  0.2076
  158SAPE  C31717732   1.611   5.642   8.694  0.1902 -0.6228 -0.0972
  158SAPE  H17X17733   1.704   5.629   8.753 -0.9155  0.4453  1.9970
  158SAPE  H17Y17734   1.598   5.572   8.608 -1.5606  0.0460 -0.4324
  158SAPE  C31817735   1.496   5.610   8.783 -0.4548 -0.0034 -0.1237
  158SAPE  H18X17736   1.483   5.694   8.855  0.7127  1.6589 -1.7610
  158SAPE  H18Y17737   1.519   5.519   8.842 -1.1538  0.2791  0.6024
  158SAPE  H18Z17738   1.402   5.587   8.729  0.4644 -0.2027 -1.7070
  159SAPE     N17739   3.980   3.735   6.268 -0.4834  0.4475  0.1998
  159SAPE   HN117740   3.928   3.819   6.300 -1.4041  0.7589 -1.9558
  159SAPE   HN217741   4.015   3.771   6.177  0.6257  0.5658  0.6510
  159SAPE   HN317742   3.916   3.658   6.243  0.7755  0.1156 -2.3001
  159SAPE   C1217743   4.097   3.700   6.360  0.5623 -0.0579  0.7203
  159SAPE  H12A17744   4.178   3.771   6.336 -0.4265  0.6848 -0.5436
  159SAPE  H12B17745   4.134   3.597   6.338  0.3964  0.3078 -1.5546
  159SAPE   C1117746   4.050   3.707   6.507 -0.2653 -0.3127  0.1688
  159SAPE  H11A17747   4.027   3.814   6.523  0.6890 -0.2464  1.2159
  159SAPE  H11B17748   4.139   3.680   6.568  2.1851  1.0970 -2.5288
  159SAPE     P17749   3.948   3.466   6.561  0.2402  0.0906  0.3554
  159SAPE   O1317750   3.818   3.418   6.612  0.0648  0.0033 -0.1422
  159SAPE   O1417751   4.000   3.411   6.428 -0.3187  0.7729 -0.5394
  159SAPE   O1217752   3.938   3.624   6.545 -0.0923 -0.0552 -0.5688
  159SAPE   O1117753   4.051   3.440   6.675 -0.3939 -0.4874 -0.4988
  159SAPE    C117754   4.001   3.468   6.807 -0.2923 -0.0678 -0.5186
  159SAPE    HA17755   3.946   3.565   6.815 -0.0046  0.1324 -0.9880
  159SAPE    HB17756   3.935   3.384   6.838 -0.9973  0.2539 -1.1060
  159SAPE    C217757   4.121   3.462   6.914 -0.1527  0.2636  1.3224
  159SAPE    HS17758   4.148   3.354   6.906 -1.1589  0.1557 -2.6421
  159SAPE   O2117759   4.056   3.490   7.041 -0.2427  0.2543 -0.6605
  159SAPE   C2117760   4.137   3.465   7.145  0.5213 -0.2224  0.6349
  159SAPE   O2217761   4.254   3.422   7.145 -0.3197 -0.2273 -0.1966
  159SAPE   C2217762   4.060   3.517   7.272  0.3437  0.6966 -0.2572
  159SAPE   H2R17763   4.061   3.628   7.280 -1.7801  0.6228  2.7211
  159SAPE   H2S17764   3.967   3.456   7.272  0.8933 -0.3058 -3.3058
  159SAPE    C317765   4.240   3.548   6.876 -1.5009  0.4412  0.5908
  159SAPE    HX17766   4.265   3.518   6.772  1.2461  1.4096  0.8904
  159SAPE    HY17767   4.323   3.519   6.945 -1.0318  1.3123  0.4054
  159SAPE   O3117768   4.223   3.689   6.888  0.3394 -0.1120 -0.0847
  159SAPE   C3117769   4.288   3.772   6.805  0.0032 -0.1950  0.9190
  159SAPE   O3217770   4.368   3.742   6.720  0.0423 -0.0038 -0.0148
  159SAPE   C3217771   4.256   3.922   6.840 -0.3582  0.1471  0.3118
  159SAPE   H2X17772   4.154   3.944   6.800  0.7411  0.3088 -2.6499
  159SAPE   H2Y17773   4.323   3.984   6.777 -0.6051 -0.3525 -0.4665
  159SAPE   C2317774   4.137   3.475   7.408  0.1774 -0.6483 -0.3851
  159SAPE   H3R17775   4.230   3.534   7.417 -0.3265  0.0551  0.3355
  159SAPE   H3S17776   4.158   3.366   7.411 -0.1969 -0.9745 -4.2426
  159SAPE   C2417777   4.051   3.529   7.528 -0.1670 -0.0310 -0.2230
  159SAPE   H4R17778   3.944   3.502   7.525  0.1565 -1.5268  0.8372
  159SAPE   H4S17779   4.056   3.640   7.527 -0.3793 -0.0130  0.3214
  159SAPE   C2517780   4.113   3.479   7.657 -0.0405 -0.0972  0.1015
  159SAPE   H5R17781   4.215   3.440   7.652 -0.6754 -1.6921 -1.7381
  159SAPE   C2617782   4.041   3.485   7.776  0.1398  0.2636  0.2765
  159SAPE   H6R17783   4.089   3.439   7.864 -1.5907 -2.0304  0.1027
  159SAPE   C2717784   3.908   3.550   7.793 -0.2820  0.1192  0.0351
  159SAPE   H7R17785   3.843   3.489   7.727  0.7867 -1.1325  0.0951
  159SAPE   H7S17786   3.926   3.655   7.763 -1.2216 -0.1019 -1.3655
  159SAPE   C2817787   3.861   3.557   7.933 -0.0479 -0.5134 -0.6189
  159SAPE   H8R17788   3.931   3.602   8.005 -0.5856 -1.6913  0.6834
  159SAPE   C2917789   3.748   3.498   7.980 -0.1232 -0.3883  0.1991
  159SAPE   H9R17790   3.705   3.525   8.078 -1.9661 -0.4603 -0.5471
  159SAPE  C21017791   3.645   3.431   7.890 -0.2329 -0.8156  0.5115
  159SAPE  H10R17792   3.680   3.328   7.865  1.6106  0.0094 -0.5403
  159SAPE  H10S17793   3.657   3.468   7.786  0.5582  0.3872  1.0130
  159SAPE  C21117794   3.508   3.445   7.943 -0.0651 -0.1945  0.1598
  159SAPE  H11R17795   3.454   3.535   7.910 -0.7025 -0.2860  0.9223
  159SAPE  C21217796   3.437   3.364   8.022 -0.4318  0.2807  0.0535
  159SAPE  H12R17797   3.339   3.401   8.054 -1.0777 -1.3714  0.1123
  159SAPE  C21317798   3.475   3.232   8.079 -0.2142  0.0121  0.2420
  159SAPE  H13R17799   3.557   3.177   8.029 -0.1053 -1.0133  1.4848
  159SAPE  H13S17800   3.393   3.158   8.072  1.9565 -2.5657  0.6087
  159SAPE  C21417801   3.509   3.247   8.222 -0.5121  0.0115 -0.2727
  159SAPE  H14R17802   3.613   3.281   8.234  0.8023 -3.7857  0.6303
  159SAPE  C21517803   3.445   3.214   8.337 -1.1749 -0.3063 -1.2220
  159SAPE  H15R17804   3.486   3.257   8.430 -1.2192 -3.4950  0.4511
  159SAPE  C21617805   3.307   3.151   8.355  0.4640 -0.2748 -0.1298
  159SAPE  H16R17806   3.262   3.130   8.256  1.6339  0.0878 -0.7545
  159SAPE  H16S17807   3.237   3.216   8.411  0.1445 -1.4764  0.9223
  159SAPE  C21717808   3.325   3.014   8.419  0.5956 -0.3674 -1.0745
  159SAPE  H17R17809   3.226   2.981   8.457  0.1139  0.2936 -1.7174
  159SAPE  H17S17810   3.392   3.027   8.507  0.5328 -1.3732 -0.8637
  159SAPE  C21817811   3.382   2.908   8.334 -0.5742  0.4603  0.4035
  159SAPE  H18R17812   3.493   2.913   8.326 -0.3690 -3.7598 -2.4606
  159SAPE  H18S17813   3.328   2.902   8.237  1.4279  1.4089 -0.8619
  159SAPE  C21917814   3.364   2.769   8.407 -0.3638  0.4590 -0.1273
  159SAPE  H19R17815   3.260   2.738   8.385 -0.2918  0.1977 -0.1098
  159SAPE  H19S17816   3.375   2.791   8.515  5.1519  0.2410 -0.3394
  159SAPE  C22017817   3.463   2.657   8.356 -0.1424  0.0484  0.5933
  159SAPE  H20R17818   3.417   2.565   8.399 -3.1240  1.4318  0.6392
  159SAPE  H20S17819   3.566   2.659   8.397 -0.6201  1.0434  1.7957
  159SAPE  H20T17820   3.455   2.657   8.245  1.0188  1.4253  0.4878
  159SAPE   C3317821   4.270   3.947   6.992 -0.2948  0.3954 -0.3258
  159SAPE   H3X17822   4.360   3.893   7.028  0.5419  0.3376 -2.3722
  159SAPE   H3Y17823   4.190   3.897   7.050 -0.4573  1.2244  0.1888
  159SAPE   C3417824   4.289   4.093   7.025  0.1268  0.2954  0.2959
  159SAPE   H4X17825   4.191   4.139   7.001  0.4519  1.6079  1.3562
  159SAPE   H4Y17826   4.359   4.137   6.951 -1.5800  0.8326 -1.0523
  159SAPE   C3517827   4.314   4.115   7.175 -0.1811 -0.3222  0.1284
  159SAPE   H5X17828   4.313   4.226   7.181 -0.7707 -0.3687  0.8759
  159SAPE   H5Y17829   4.416   4.080   7.201 -0.4374 -0.6130  0.7542
  159SAPE   C3617830   4.214   4.061   7.264  0.0891 -0.3731  0.0940
  159SAPE   H6X17831   4.205   3.950   7.258  0.9318 -0.3633 -2.2625
  159SAPE   H6Y17832   4.122   4.103   7.219 -0.1016  1.9461  2.4129
  159SAPE   C3717833   4.236   4.111   7.406 -0.0548  0.0089 -0.1103
  159SAPE   H7X17834   4.198   4.215   7.419  0.4031 -0.0911  2.8374
  159SAPE   H7Y17835   4.343   4.097   7.433  0.0761 -3.1825 -1.8488
  159SAPE   C3817836   4.142   4.035   7.503 -0.6003  0.1710  0.1252
  159SAPE   H8X17837   4.155   3.925   7.494 -1.2389  0.1674 -0.8446
  159SAPE   H8Y17838   4.040   4.056   7.464 -0.6670 -2.4032 -1.3168
  159SAPE   C3917839   4.166   4.084   7.641  0.1513  0.2060 -0.0212
  159SAPE   H9X17840   4.128   4.188   7.644 -1.1000 -0.2301 -0.2424
  159SAPE   H9Y17841   4.275   4.079   7.662  0.3138 -0.6855 -0.9703
  159SAPE  C31017842   4.110   3.992   7.749  0.2661 -0.0527  0.0934
  159SAPE  H10X17843   4.162   3.896   7.766  2.6206  1.4380  1.9982
  159SAPE  H10Y17844   4.007   3.960   7.721  1.1293 -1.8695 -1.1817
  159SAPE  C31117845   4.116   4.042   7.897 -0.2146  0.1324 -0.3471
  159SAPE  H11X17846   4.074   4.145   7.897 -0.5817  0.0013  0.9598
  159SAPE  H11Y17847   4.225   4.050   7.917 -0.1203 -1.7568  0.0398
  159SAPE  C31217848   4.031   3.961   8.000 -0.9718 -0.5232  0.4286
  159SAPE  H12X17849   4.084   3.865   8.018  2.8201  1.1424 -0.8629
  159SAPE  H12Y17850   3.927   3.944   7.963 -0.9782  0.1599  0.1331
  159SAPE  C31317851   4.001   4.032   8.126  0.3264  0.3929 -0.9354
  159SAPE  H13X17852   4.092   4.070   8.175  0.5270 -2.4723  1.1942
  159SAPE  H13Y17853   3.961   3.955   8.195 -2.6293  1.6724 -1.0673
  159SAPE  C31417854   3.893   4.145   8.108  0.8487 -0.6883  0.2680
  159SAPE  H14X17855   3.797   4.101   8.071  0.0410  1.9686 -1.0217
  159SAPE  H14Y17856   3.924   4.213   8.026 -1.9431  0.9299  0.4182
  159SAPE  C31517857   3.880   4.229   8.231  0.0397  1.0907 -0.3053
  159SAPE  H15X17858   3.983   4.268   8.249  0.8374 -0.1961 -1.8275
  159SAPE  H15Y17859   3.845   4.159   8.310 -0.5286 -0.0359 -1.5246
  159SAPE  C31617860   3.779   4.345   8.214 -0.2587 -0.0954  0.4707
  159SAPE  H16X17861   3.684   4.301   8.175 -0.7512 -0.8236  2.3570
  159SAPE  H16Y17862   3.817   4.415   8.137 -1.3421  1.1315  1.0056
  159SAPE  C31717863   3.746   4.412   8.344  0.6450 -0.4189 -0.3615
  159SAPE  H17X17864   3.836   4.453   8.395  0.8584 -3.0545  1.5736
  159SAPE  H17Y17865   3.714   4.329   8.411  0.9913  1.5891  2.4946
  159SAPE  C31817866   3.635   4.519   8.337 -0.4944 -0.5935  0.0516
  159SAPE  H18X17867   3.624   4.574   8.433 -2.0136 -0.5677 -0.1099
  159SAPE  H18Y17868   3.536   4.481   8.306 -2.4103  2.1475  2.2270
  159SAPE  H18Z17869   3.664   4.607   8.275  3.0486  0.5233  2.9232
  160SAPE     N17870   3.660   4.985   6.472 -0.1886 -0.4866  0.4487
  160SAPE   HN117871   3.603   5.071   6.459  1.5232  0.8474  1.3145
  160SAPE   HN217872   3.707   4.977   6.379 -0.4698 -1.3299  0.3653
  160SAPE   HN317873   3.598   4.902   6.486  1.9331 -1.7524  3.4549
  160SAPE   C1217874   3.761   4.994   6.581  0.5271 -0.1943  0.4872
  160SAPE  H12A17875   3.702   5.033   6.667  1.3977 -1.0127  1.4827
  160SAPE  H12B17876   3.849   5.054   6.551  0.0844 -0.1733 -0.8459
  160SAPE   C1117877   3.808   4.852   6.611  0.0142 -0.2643  0.0286
  160SAPE  H11A17878   3.726   4.789   6.651  1.2144 -1.7987  0.1785
  160SAPE  H11B17879   3.879   4.842   6.696  1.3112 -0.1430 -0.9935
  160SAPE     P17880   3.940   4.647   6.515 -0.2118  0.2413  0.1511
  160SAPE   O1317881   3.940   4.569   6.388  0.8119  0.0836 -0.6529
  160SAPE   O1417882   4.071   4.661   6.590 -0.1500 -0.2715 -0.0237
  160SAPE   O1217883   3.868   4.788   6.494 -0.4036  0.5265  0.1902
  160SAPE   O1117884   3.845   4.579   6.620  0.3207 -0.2217 -0.0213
  160SAPE    C117885   3.883   4.450   6.679  0.3941  0.3281 -0.4189
  160SAPE    HA17886   3.816   4.368   6.645  0.8747 -0.3441  0.2215
  160SAPE    HB17887   3.985   4.411   6.659 -0.3275 -1.1051 -1.5002
  160SAPE    C217888   3.861   4.456   6.834 -0.5589  0.0194  0.1956
  160SAPE    HS17889   3.756   4.486   6.849 -0.8327 -0.1146 -1.2701
  160SAPE   O2117890   3.954   4.546   6.892 -0.2959  0.1317 -0.0203
  160SAPE   C2117891   3.909   4.663   6.939 -0.5363 -0.2217  0.5207
  160SAPE   O2217892   3.796   4.705   6.948  0.0133  0.1555  0.1818
  160SAPE   C2217893   4.033   4.756   6.974  0.3235  0.1246 -0.6177
  160SAPE   H2R17894   4.104   4.755   6.889 -0.7291 -1.7327 -1.5300
  160SAPE   H2S17895   3.990   4.856   6.997 -0.3297 -0.4356  0.7767
  160SAPE    C317896   3.866   4.316   6.910  1.0359 -0.3134  1.3024
  160SAPE    HX17897   3.944   4.257   6.856  0.0403  0.3205 -0.9269
  160SAPE    HY17898   3.768   4.264   6.902  1.2204 -0.4909 -0.1759
  160SAPE   O3117899   3.911   4.317   7.046 -0.1606 -0.6490 -0.4693
  160SAPE   C3117900   3.818   4.330   7.134  0.2252 -0.2032 -0.8188
  160SAPE   O3217901   3.699   4.348   7.116  0.3941  0.5899  0.4523
  160SAPE   C3217902   3.873   4.311   7.280  0.2543  0.5584  0.7623
  160SAPE   H2X17903   3.948   4.388   7.306 -0.1270  0.2282  3.0077
  160SAPE   H2Y17904   3.918   4.209   7.278 -0.8268 -0.0195 -2.9963
  160SAPE   C2317905   4.103   4.713   7.111  0.4587  0.8197 -0.2225
  160SAPE   H3R17906   4.025   4.676   7.181 -0.5102 -0.2991 -1.8294
  160SAPE   H3S17907   4.153   4.803   7.152  1.8360  0.4955 -1.1020
  160SAPE   C2417908   4.207   4.601   7.088 -0.4244 -0.1584  0.2870
  160SAPE   H4R17909   4.281   4.659   7.028 -0.8623 -2.3349 -2.5207
  160SAPE   H4S17910   4.160   4.525   7.023  0.2212 -0.6682  0.4063
  160SAPE   C2517911   4.257   4.516   7.200  0.2106 -0.0589 -0.5188
  160SAPE   H5R17912   4.186   4.435   7.221  2.5651 -2.2109 -0.4245
  160SAPE   C2617913   4.376   4.508   7.265  1.1236 -0.2714  0.6495
  160SAPE   H6R17914   4.388   4.427   7.338 -2.2182 -1.6826 -0.1415
  160SAPE   C2717915   4.495   4.587   7.229  0.1820  0.1012 -0.1667
  160SAPE   H7R17916   4.503   4.681   7.289 -2.2346 -0.0975  0.5442
  160SAPE   H7S17917   4.493   4.621   7.123 -1.6680  0.8855  0.0859
  160SAPE   C2817918   4.626   4.517   7.249 -0.5959  0.2084 -0.1011
  160SAPE   H8R17919   4.651   4.446   7.169 -4.1751 -1.2464 -0.1238
  160SAPE   C2917920   4.693   4.516   7.367  0.2751  0.2343 -0.0799
  160SAPE   H9R17921   4.785   4.456   7.373 -0.3361 -1.0244 -2.1777
  160SAPE  C21017922   4.662   4.594   7.492  0.2333 -0.1370 -0.0731
  160SAPE  H10R17923   4.552   4.607   7.485  0.3172  0.7513  0.1509
  160SAPE  H10S17924   4.725   4.684   7.473  1.0065 -1.2366 -3.4281
  160SAPE  C21117925   4.707   4.506   7.612 -0.1384  0.0955  0.5284
  160SAPE  H11R17926   4.802   4.451   7.605 -0.2008 -0.1145  1.2491
  160SAPE  C21217927   4.634   4.486   7.723 -0.3314  0.5626  0.0079
  160SAPE  H12R17928   4.681   4.418   7.796  0.8800  0.6949 -0.6252
  160SAPE  C21317929   4.498   4.533   7.759  0.5307  0.2168  0.4085
  160SAPE  H13R17930   4.450   4.592   7.677 -0.8878 -0.9144  0.3879
  160SAPE  H13S17931   4.510   4.601   7.846  0.3983 -0.0354  0.6243
  160SAPE  C21417932   4.394   4.435   7.791 -0.9476 -0.1269  0.6372
  160SAPE  H14R17933   4.336   4.413   7.699  0.4190 -1.0017 -0.0576
  160SAPE  C21517934   4.350   4.390   7.910 -0.5591 -0.3735  0.1786
  160SAPE  H15R17935   4.267   4.318   7.906 -0.2254 -0.7316 -0.4401
  160SAPE  C21617936   4.411   4.420   8.046 -0.5081  0.2890  0.3700
  160SAPE  H16R17937   4.503   4.482   8.040  0.4481 -1.1972 -1.4543
  160SAPE  H16S17938   4.457   4.326   8.084 -1.2422  0.0854  0.7649
  160SAPE  C21717939   4.294   4.462   8.140 -0.3789 -0.0367  0.1518
  160SAPE  H17R17940   4.202   4.405   8.115 -0.1156 -2.3531  3.6362
  160SAPE  H17S17941   4.284   4.571   8.124  0.5222  0.1080  0.4938
  160SAPE  C21817942   4.318   4.445   8.292 -0.4763  0.4340 -0.0473
  160SAPE  H18R17943   4.403   4.509   8.324  1.6957 -2.5117  0.5697
  160SAPE  H18S17944   4.354   4.342   8.314  0.6718 -0.1366 -3.8872
  160SAPE  C21917945   4.192   4.468   8.377 -0.3104  0.3173 -0.4399
  160SAPE  H19R17946   4.107   4.495   8.311 -1.4385 -1.3594  0.2592
  160SAPE  H19S17947   4.218   4.550   8.447  2.1495  0.5266 -1.4868
  160SAPE  C22017948   4.145   4.341   8.451 -0.6333 -0.0214  0.0704
  160SAPE  H20R17949   4.044   4.358   8.496  0.0306  1.0137  1.2625
  160SAPE  H20S17950   4.217   4.302   8.526 -0.7910 -0.7497 -0.1483
  160SAPE  H20T17951   4.143   4.258   8.378  0.2925  0.9224 -1.0849
  160SAPE   C3317952   3.766   4.309   7.387  1.1373 -0.2290  0.2209
  160SAPE   H3X17953   3.677   4.246   7.365 -0.9670  2.4505  0.4690
  160SAPE   H3Y17954   3.724   4.411   7.401  1.1041 -0.3009  0.6789
  160SAPE   C3417955   3.818   4.270   7.530 -0.1144 -0.6009  0.5658
  160SAPE   H4X17956   3.891   4.348   7.563 -0.0774 -1.5244  2.8605
  160SAPE   H4Y17957   3.884   4.185   7.501  0.4179  0.3028 -0.9903
  160SAPE   C3517958   3.709   4.262   7.637 -0.2448 -0.3263  0.4485
  160SAPE   H5X17959   3.756   4.228   7.732 -2.3635 -0.5405  1.4832
  160SAPE   H5Y17960   3.626   4.195   7.608 -2.6038  3.3359 -2.2114
  160SAPE   C3617961   3.645   4.397   7.672  0.4541 -0.8011 -0.1387
  160SAPE   H6X17962   3.585   4.435   7.586 -0.6445 -0.9868  0.5272
  160SAPE   H6Y17963   3.719   4.477   7.690  0.9285 -0.9718 -1.2414
  160SAPE   C3717964   3.560   4.398   7.795  0.0330  0.6756 -0.6255
  160SAPE   H7X17965   3.624   4.414   7.884 -0.6888 -1.6239  0.4012
  160SAPE   H7Y17966   3.497   4.307   7.809  0.9867  0.1618  0.5306
  160SAPE   C3817967   3.468   4.525   7.797  0.4141 -0.1667 -0.1072
  160SAPE   H8X17968   3.433   4.540   7.693 -0.3907  0.8034  0.2889
  160SAPE   H8Y17969   3.525   4.611   7.838 -0.4850 -0.4023  1.7282
  160SAPE   C3917970   3.343   4.499   7.886  0.0259  0.6550  0.2998
  160SAPE   H9X17971   3.280   4.423   7.836 -0.4893 -0.5385  2.6245
  160SAPE   H9Y17972   3.289   4.596   7.890 -1.2955 -0.1046  2.2170
  160SAPE  C31017973   3.384   4.450   8.029  0.4980 -0.1844 -0.4892
  160SAPE  H10X17974   3.447   4.523   8.084  0.1320  0.2030 -0.5763
  160SAPE  H10Y17975   3.436   4.352   8.021 -0.4420 -0.6309 -1.3917
  160SAPE  C31117976   3.255   4.424   8.112 -0.3461 -0.2319  0.8990
  160SAPE  H11X17977   3.192   4.364   8.043 -0.3235 -0.0121  0.6841
  160SAPE  H11Y17978   3.215   4.523   8.140  0.4496  0.0265  1.1568
  160SAPE  C31217979   3.282   4.334   8.242  0.0788 -0.5937  0.0510
  160SAPE  H12X17980   3.324   4.394   8.325  1.4779  1.7598 -2.1874
  160SAPE  H12Y17981   3.360   4.258   8.219 -0.1304 -0.6036 -0.6532
  160SAPE  C31317982   3.148   4.282   8.281  0.1375 -0.6138  0.5388
  160SAPE  H13X17983   3.105   4.216   8.203  1.7312 -2.3871  1.0433
  160SAPE  H13Y17984   3.090   4.373   8.304 -0.4475 -1.0266  0.7336
  160SAPE  C31417985   3.140   4.198   8.411 -0.5501 -0.4815 -0.2365
  160SAPE  H14X17986   3.189   4.257   8.491  0.1449  0.0386 -1.0376
  160SAPE  H14Y17987   3.204   4.110   8.388  2.7807  1.3059  1.4284
  160SAPE  C31517988   3.002   4.162   8.438  0.1909  0.3404  0.6782
  160SAPE  H15X17989   2.951   4.137   8.343 -1.2449  1.0836  1.2266
  160SAPE  H15Y17990   2.939   4.243   8.482  0.4218  1.3264 -0.7350
  160SAPE  C31617991   2.986   4.045   8.537 -0.0177  0.4253  0.8469
  160SAPE  H16X17992   3.063   3.972   8.503  2.4607  2.8551  0.8457
  160SAPE  H16Y17993   2.880   4.013   8.526  0.5439 -1.0443 -0.8231
  160SAPE  C31717994   3.018   4.086   8.681  0.0504  0.0137  0.0194
  160SAPE  H17X17995   2.968   4.181   8.710 -0.1362 -0.0192 -0.1922
  160SAPE  H17Y17996   3.126   4.102   8.700 -0.1344  2.2952 -0.5570
  160SAPE  C31817997   2.968   3.983   8.779  0.5854  0.0235 -0.4815
  160SAPE  H18X17998   3.025   3.888   8.787 -0.9328 -1.4354 -4.4593
  160SAPE  H18Y17999   2.862   3.952   8.769  0.9446 -1.8344  1.0129
  160SAPE  H18Z18000   2.964   4.035   8.877  0.7272 -1.3605  0.2785
  161SAPE     N18001   6.455   3.217   6.442 -0.5007 -0.3144 -0.6850
  161SAPE   HN118002   6.537   3.253   6.389 -0.6602  1.3978  0.1632
  161SAPE   HN218003   6.481   3.169   6.531  0.1645  0.9535 -0.1806
  161SAPE   HN318004   6.403   3.141   6.393  1.3822 -2.2958  0.1809
  161SAPE   C1218005   6.362   3.329   6.473  0.1078  0.5502 -0.1733
  161SAPE  H12A18006   6.417   3.409   6.527 -0.2672  0.3220  0.5594
  161SAPE  H12B18007   6.283   3.285   6.538  2.1990  0.0877  2.1721
  161SAPE   C1118008   6.307   3.386   6.339  0.1664 -0.0949 -0.4003
  161SAPE  H11A18009   6.385   3.442   6.284 -0.6236  0.1947 -1.2551
  161SAPE  H11B18010   6.234   3.464   6.371 -3.1152 -2.5514 -1.3204
  161SAPE     P18011   6.101   3.237   6.266  0.3758 -0.2776 -0.4827
  161SAPE   O1318012   6.012   3.311   6.180  0.9025 -0.0952 -0.6458
  161SAPE   O1418013   6.097   3.089   6.242  0.1854  0.2768 -0.1721
  161SAPE   O1218014   6.254   3.284   6.257 -0.2706  0.6323  0.5706
  161SAPE   O1118015   6.064   3.271   6.425 -0.4122 -0.0988 -0.1408
  161SAPE    C118016   5.927   3.307   6.452  0.0269 -0.7604 -0.2052
  161SAPE    HA18017   5.893   3.390   6.387 -0.6919 -0.4892  0.4972
  161SAPE    HB18018   5.848   3.229   6.448 -1.2709  0.4642  0.3896
  161SAPE    C218019   5.910   3.368   6.600 -0.1204  0.2754  0.4054
  161SAPE    HS18020   5.998   3.435   6.613  1.1168 -1.4140  1.0798
  161SAPE   O2118021   5.900   3.264   6.700  0.2103 -0.3952  0.0923
  161SAPE   C2118022   6.022   3.243   6.755  0.2840  0.0688 -0.1544
  161SAPE   O2218023   6.124   3.299   6.730 -0.4006 -0.1265 -0.4989
  161SAPE   C2218024   6.012   3.122   6.849  0.4072 -0.2781  0.3853
  161SAPE   H2R18025   5.910   3.081   6.866  0.2801  0.2673  0.9968
  161SAPE   H2S18026   6.071   3.038   6.808  1.5666  1.0665 -0.8372
  161SAPE    C318027   5.777   3.439   6.610 -0.2472  0.3533 -0.4547
  161SAPE    HX18028   5.705   3.368   6.564 -0.3263  1.0710 -1.4810
  161SAPE    HY18029   5.776   3.537   6.557  1.2237  1.7272  1.8840
  161SAPE   O3118030   5.728   3.468   6.743  0.3196  0.5698  0.2206
  161SAPE   C3118031   5.785   3.569   6.809 -0.1306  0.3104  0.2044
  161SAPE   O3218032   5.895   3.617   6.786 -0.2769 -0.7036 -0.2955
  161SAPE   C3218033   5.691   3.621   6.920  0.5698 -0.0564 -0.8013
  161SAPE   H2X18034   5.653   3.717   6.880 -2.4024 -0.6138  0.3654
  161SAPE   H2Y18035   5.745   3.627   7.017  0.0628 -1.8860 -0.3515
  161SAPE   C2318036   6.085   3.151   6.977 -0.3217  0.2887 -0.3471
  161SAPE   H3R18037   6.194   3.156   6.954 -0.1672  0.3508  0.3585
  161SAPE   H3S18038   6.079   3.063   7.045  1.7676 -0.9350 -1.6174
  161SAPE   C2418039   6.049   3.271   7.066  0.0726  0.0379  0.5057
  161SAPE   H4R18040   6.066   3.362   7.004 -1.0954  0.9649  1.4871
  161SAPE   H4S18041   6.112   3.275   7.157  0.2998 -1.5583  0.4338
  161SAPE   C2518042   5.899   3.273   7.094 -0.3729 -0.3388 -0.0115
  161SAPE   H5R18043   5.828   3.240   7.017  3.5050 -0.4952 -3.8898
  161SAPE   C2618044   5.853   3.318   7.215  0.4927  0.6931 -0.3467
  161SAPE   H6R18045   5.746   3.307   7.236  0.1681  1.3681 -1.5249
  161SAPE   C2718046   5.934   3.377   7.324  0.0518 -0.0844 -1.2364
  161SAPE   H7R18047   6.006   3.454   7.288  0.6716 -1.7396 -3.7388
  161SAPE   H7S18048   5.990   3.292   7.368 -1.0140 -1.0467 -1.6857
  161SAPE   C2818049   5.850   3.441   7.431  0.0198 -0.6971  0.5233
  161SAPE   H8R18050   5.787   3.524   7.396  1.3279 -0.5601 -1.6652
  161SAPE   C2918051   5.828   3.400   7.555  0.1787 -0.6214  0.2477
  161SAPE   H9R18052   5.773   3.464   7.626 -0.6661 -0.9885 -0.0722
  161SAPE  C21018053   5.884   3.276   7.612  0.2109  0.3684 -0.3401
  161SAPE  H10R18054   5.974   3.299   7.674 -0.7796  0.1591  1.2403
  161SAPE  H10S18055   5.926   3.208   7.534  0.2285  2.8369 -2.6156
  161SAPE  C21118056   5.779   3.211   7.697  0.0126  0.4080  0.2189
  161SAPE  H11R18057   5.685   3.197   7.641  0.5762  0.8724 -0.8588
  161SAPE  C21218058   5.806   3.145   7.808  0.3563 -0.7784 -0.2578
  161SAPE  H12R18059   5.715   3.114   7.863  1.1210 -0.9929  0.9088
  161SAPE  C21318060   5.934   3.143   7.886  0.8165 -0.2426  0.3030
  161SAPE  H13R18061   5.987   3.241   7.882 -1.5400  1.2522  2.4584
  161SAPE  H13S18062   5.998   3.075   7.826  0.8009  0.7374 -0.8735
  161SAPE  C21418063   5.928   3.095   8.028  0.0215 -0.3057 -0.0580
  161SAPE  H14R18064   5.932   3.167   8.112 -1.9951 -0.7516  0.4584
  161SAPE  C21518065   5.902   2.968   8.072  0.2598  0.7782 -0.4783
  161SAPE  H15R18066   5.889   2.942   8.177 -1.4174 -1.0303 -1.0715
  161SAPE  C21618067   5.874   2.849   7.983  0.1904 -0.1847 -0.4060
  161SAPE  H16R18068   5.936   2.760   8.007  0.0656 -0.0325  0.5417
  161SAPE  H16S18069   5.883   2.875   7.876 -2.5752 -0.2747 -0.7332
  161SAPE  C21718070   5.727   2.810   8.015 -0.3172  0.1816  0.0381
  161SAPE  H17R18071   5.694   2.743   7.933 -0.8129 -1.9857  1.9234
  161SAPE  H17S18072   5.663   2.901   8.015 -0.9997 -0.2887  0.8420
  161SAPE  C21818073   5.715   2.730   8.144  0.3118  0.0884  0.7172
  161SAPE  H18R18074   5.798   2.763   8.211  2.0392 -1.9105 -0.3166
  161SAPE  H18S18075   5.734   2.622   8.127  2.5438  0.4018  0.8917
  161SAPE  C21918076   5.579   2.761   8.208  1.1914  0.7503 -0.7680
  161SAPE  H19R18077   5.540   2.861   8.179 -0.3986 -0.5412 -3.5868
  161SAPE  H19S18078   5.572   2.746   8.317 -0.0798  0.2621 -0.8908
  161SAPE  C22018079   5.475   2.675   8.136  0.0419  0.1487  0.1561
  161SAPE  H20R18080   5.377   2.724   8.159  0.0353  0.6867 -0.9484
  161SAPE  H20S18081   5.480   2.569   8.166 -0.3969 -0.3330 -1.3623
  161SAPE  H20T18082   5.481   2.680   8.025 -2.2560 -3.4038 -0.2942
  161SAPE   C3318083   5.571   3.523   6.942 -0.4288 -0.3642  0.3964
  161SAPE   H3X18084   5.624   3.435   6.984 -1.0641 -2.1458 -2.2349
  161SAPE   H3Y18085   5.519   3.500   6.846 -1.1402  0.1157  0.6600
  161SAPE   C3418086   5.467   3.575   7.046  0.0847  0.8916 -0.8517
  161SAPE   H4X18087   5.401   3.486   7.055  1.8382 -0.4045 -0.3892
  161SAPE   H4Y18088   5.405   3.657   7.003 -3.0417 -0.0734  1.4015
  161SAPE   C3518089   5.520   3.612   7.181 -0.6993 -0.1109  0.6376
  161SAPE   H5X18090   5.574   3.709   7.181 -3.0326  1.2717  2.1628
  161SAPE   H5Y18091   5.590   3.529   7.206 -1.2258 -0.7218  0.1208
  161SAPE   C3618092   5.426   3.627   7.297 -0.2155  0.1158  0.1630
  161SAPE   H6X18093   5.364   3.535   7.309 -0.8710  0.7211  1.6987
  161SAPE   H6Y18094   5.361   3.713   7.270 -0.2860  0.1732  0.5028
  161SAPE   C3718095   5.510   3.657   7.428 -0.0036 -0.0741  0.1217
  161SAPE   H7X18096   5.563   3.754   7.420 -1.3833  0.5778 -1.6836
  161SAPE   H7Y18097   5.585   3.576   7.443  0.0336 -0.1034 -0.2179
  161SAPE   C3818098   5.424   3.658   7.553 -0.0664 -0.0022 -0.0756
  161SAPE   H8X18099   5.363   3.566   7.563 -0.1077 -0.0395 -0.6471
  161SAPE   H8Y18100   5.351   3.742   7.550  1.6443  1.5420 -1.5220
  161SAPE   C3918101   5.518   3.678   7.675  0.6866 -0.1742  0.8484
  161SAPE   H9X18102   5.586   3.760   7.648 -1.1854  1.1998  0.0863
  161SAPE   H9Y18103   5.575   3.586   7.700 -1.0022 -1.4216  0.3503
  161SAPE  C31018104   5.436   3.712   7.794  0.4229  0.0098 -0.4849
  161SAPE  H10X18105   5.336   3.666   7.779  0.7992 -0.6964 -0.8676
  161SAPE  H10Y18106   5.426   3.823   7.798  0.1970 -0.0213 -0.0980
  161SAPE  C31118107   5.490   3.649   7.931  0.7457 -0.2556  0.0701
  161SAPE  H11X18108   5.597   3.669   7.953  0.6531  1.3492 -0.8186
  161SAPE  H11Y18109   5.470   3.539   7.929 -0.0704 -0.1103 -2.3041
  161SAPE  C31218110   5.435   3.713   8.067 -0.1762  0.5803  0.3865
  161SAPE  H12X18111   5.337   3.670   8.100 -0.0313 -1.5823 -1.7232
  161SAPE  H12Y18112   5.424   3.822   8.048 -1.6692  0.2200 -1.0518
  161SAPE  C31318113   5.539   3.692   8.180 -0.1120  0.4078 -0.1683
  161SAPE  H13X18114   5.624   3.751   8.140 -0.0075 -0.5284 -1.3778
  161SAPE  H13Y18115   5.560   3.584   8.193 -3.2515 -0.0888  1.6522
  161SAPE  C31418116   5.498   3.751   8.318  0.6151  0.2662 -1.0015
  161SAPE  H14X18117   5.406   3.708   8.364  2.5394  0.4151  3.4926
  161SAPE  H14Y18118   5.484   3.860   8.306  0.3951  0.2990 -0.4822
  161SAPE  C31518119   5.611   3.746   8.422 -0.3457 -0.0524 -0.2583
  161SAPE  H15X18120   5.689   3.673   8.392 -0.8141  0.0956 -1.9369
  161SAPE  H15Y18121   5.564   3.708   8.515 -0.1926  2.2176  0.8111
  161SAPE  C31618122   5.678   3.879   8.454 -0.1268  0.2802 -0.0862
  161SAPE  H16X18123   5.695   3.920   8.352 -1.8324  1.7389  0.1541
  161SAPE  H16Y18124   5.777   3.868   8.503  0.8109 -1.2571 -2.2075
  161SAPE  C31718125   5.585   3.987   8.517 -0.0885 -0.8152  0.1224
  161SAPE  H17X18126   5.491   3.986   8.458  1.1217  1.1623 -2.0202
  161SAPE  H17Y18127   5.630   4.087   8.504 -0.4605 -0.7885 -1.0027
  161SAPE  C31818128   5.574   3.976   8.672 -0.3166 -0.1946 -0.4552
  161SAPE  H18X18129   5.670   3.994   8.726  0.3452 -1.3873 -1.1732
  161SAPE  H18Y18130   5.548   3.870   8.694  1.2225 -0.0390  2.7836
  161SAPE  H18Z18131   5.495   4.034   8.724  0.6951  0.8594 -0.0428
  162SAPE     N18132   6.570   4.822   6.319 -0.2056  0.1951  0.5143
  162SAPE   HN118133   6.614   4.905   6.274 -1.8381  1.1260  0.5433
  162SAPE   HN218134   6.641   4.758   6.360 -1.8885 -2.2755 -0.2616
  162SAPE   HN318135   6.521   4.769   6.245 -1.2036  1.5836  0.1311
  162SAPE   C1218136   6.456   4.864   6.411  0.1602 -0.3409  0.0864
  162SAPE  H12A18137   6.505   4.897   6.505  0.5668 -0.7558  0.0232
  162SAPE  H12B18138   6.378   4.786   6.428 -0.4815  0.6632  2.1232
  162SAPE   C1118139   6.382   4.984   6.348 -0.0060  0.4630  0.1868
  162SAPE  H11A18140   6.294   5.009   6.410 -1.4817  0.4672 -1.8057
  162SAPE  H11B18141   6.345   4.954   6.248  1.2076  0.1872 -0.2009
  162SAPE     P18142   6.425   5.222   6.250 -0.4176  0.2832  0.2730
  162SAPE   O1318143   6.541   5.292   6.196 -1.2494  0.9141 -0.3464
  162SAPE   O1418144   6.313   5.181   6.160  0.0377  0.2598 -0.0722
  162SAPE   O1218145   6.474   5.093   6.326 -0.2742  0.5142 -0.2926
  162SAPE   O1118146   6.363   5.311   6.359 -0.0980 -0.7342  0.1985
  162SAPE    C118147   6.417   5.334   6.489 -1.0451 -0.0002 -0.3980
  162SAPE    HA18148   6.370   5.271   6.567  1.2462  0.5899  1.5897
  162SAPE    HB18149   6.525   5.307   6.488 -0.5092  1.7907  1.2084
  162SAPE    C218150   6.413   5.486   6.531 -0.3295 -0.0203 -0.1133
  162SAPE    HS18151   6.435   5.548   6.441  0.9678  0.1568  0.2996
  162SAPE   O2118152   6.527   5.504   6.624  0.3328  0.1985  0.3404
  162SAPE   C2118153   6.573   5.625   6.625 -0.6565 -0.0876  0.5126
  162SAPE   O2218154   6.539   5.715   6.550 -0.0314 -0.4052 -0.0015
  162SAPE   C2218155   6.687   5.638   6.730  0.5039 -0.5708 -0.0966
  162SAPE   H2R18156   6.639   5.622   6.830  0.1502 -1.1321 -0.3500
  162SAPE   H2S18157   6.745   5.545   6.715 -0.8249 -1.8566  2.0442
  162SAPE    C318158   6.279   5.528   6.591  0.2507  0.3391 -0.3702
  162SAPE    HX18159   6.209   5.508   6.507 -0.2074  0.2716  0.0228
  162SAPE    HY18160   6.285   5.637   6.613  0.0652 -0.3266  3.7366
  162SAPE   O3118161   6.245   5.455   6.709 -0.1485 -0.7458 -0.3393
  162SAPE   C3118162   6.125   5.393   6.715  0.1278  0.5747 -0.0413
  162SAPE   O3218163   6.029   5.402   6.638 -0.3023 -0.0823  0.1185
  162SAPE   C3218164   6.137   5.283   6.816 -0.1552 -0.2828  0.2330
  162SAPE   H2X18165   6.239   5.244   6.833 -0.5153 -0.3922  2.4764
  162SAPE   H2Y18166   6.082   5.197   6.772 -1.1977  0.9459 -0.9954
  162SAPE   C2318167   6.762   5.766   6.720 -0.5576 -0.1195 -0.0720
  162SAPE   H3R18168   6.705   5.856   6.688  0.2067  0.6694  0.7156
  162SAPE   H3S18169   6.850   5.750   6.654  1.4879 -0.3691  2.5418
  162SAPE   C2418170   6.818   5.808   6.860 -0.0557 -0.1125 -0.1766
  162SAPE   H4R18171   6.870   5.721   6.905  0.1552 -1.0702 -2.1757
  162SAPE   H4S18172   6.724   5.828   6.915 -0.0022  0.9751 -0.4591
  162SAPE   C2518173   6.906   5.936   6.874 -0.1201  0.3942  0.1729
  162SAPE   H5R18174   6.922   5.985   6.777  2.6466 -0.3269  0.1969
  162SAPE   C2618175   6.938   6.003   6.981 -0.5363  0.4120 -0.6328
  162SAPE   H6R18176   7.002   6.093   6.976  1.6952 -0.6973  3.4482
  162SAPE   C2718177   6.910   5.960   7.120  0.2602 -0.5072  0.1267
  162SAPE   H7R18178   6.992   5.895   7.155  3.6734  1.7276 -2.9441
  162SAPE   H7S18179   6.817   5.900   7.123  0.1682 -0.3383  1.1136
  162SAPE   C2818180   6.882   6.074   7.225  0.0544 -0.3999  0.7071
  162SAPE   H8R18181   6.811   6.149   7.187 -0.0777 -0.1135  1.5024
  162SAPE   C2918182   6.919   6.078   7.353  0.4712  0.6231 -0.8365
  162SAPE   H9R18183   6.896   6.172   7.405 -0.3512  0.1251 -0.2768
  162SAPE  C21018184   7.013   5.981   7.428  0.5080 -0.2234  0.4558
  162SAPE  H10R18185   7.101   5.964   7.362  0.1304  1.0362 -0.4187
  162SAPE  H10S18186   6.959   5.889   7.458 -0.5856  0.2636  0.0360
  162SAPE  C21118187   7.067   6.043   7.553  0.9129 -0.7003 -0.3063
  162SAPE  H11R18188   7.136   6.123   7.525  1.4168 -0.8390  0.5021
  162SAPE  C21218189   7.032   6.017   7.682 -0.9641 -0.5369  0.6951
  162SAPE  H12R18190   7.072   6.073   7.768  0.0186  0.9139 -0.6650
  162SAPE  C21318191   6.940   5.914   7.730 -0.5749 -0.3879 -0.8066
  162SAPE  H13R18192   6.999   5.851   7.801 -0.5033 -0.4626 -0.9311
  162SAPE  H13S18193   6.923   5.836   7.653  2.6414 -0.0870 -1.9462
  162SAPE  C21418194   6.816   5.977   7.779 -0.0404  0.0745  1.0664
  162SAPE  H14R18195   6.736   5.992   7.704  2.3748 -0.8360 -1.8804
  162SAPE  C21518196   6.796   6.016   7.905 -0.0697 -0.3944 -0.7086
  162SAPE  H15R18197   6.704   6.073   7.925 -0.2570 -0.7793 -0.4778
  162SAPE  C21618198   6.895   6.002   8.017 -0.2029 -0.6324  0.2422
  162SAPE  H16R18199   6.910   6.102   8.063  0.5707 -0.3826 -0.5238
  162SAPE  H16S18200   6.993   5.963   7.983 -0.2111 -1.0567  0.6948
  162SAPE  C21718201   6.847   5.910   8.133  1.2712 -0.5249 -0.8401
  162SAPE  H17R18202   6.747   5.945   8.163  2.0559  1.3689 -0.3091
  162SAPE  H17S18203   6.928   5.911   8.209  0.6016 -0.1806 -0.1175
  162SAPE  C21818204   6.829   5.759   8.092 -0.3402  0.1611 -0.4380
  162SAPE  H18R18205   6.928   5.724   8.055  0.9156  3.6109 -0.6751
  162SAPE  H18S18206   6.757   5.760   8.007 -1.1448  1.2854  0.2369
  162SAPE  C21918207   6.794   5.675   8.210 -0.2807  0.4547 -0.1484
  162SAPE  H19R18208   6.689   5.684   8.247  0.5465 -1.7554  3.1929
  162SAPE  H19S18209   6.861   5.695   8.296 -0.4891 -1.8714  0.6356
  162SAPE  C22018210   6.813   5.525   8.167  0.1919 -0.3711  1.2759
  162SAPE  H20R18211   6.919   5.516   8.135  0.3479  0.5381  1.5164
  162SAPE  H20S18212   6.744   5.499   8.084  0.4742 -1.1564  1.2790
  162SAPE  H20T18213   6.797   5.454   8.251  1.6617  0.1317  2.0151
  162SAPE   C3318214   6.072   5.312   6.953  0.3939  0.2217  0.0307
  162SAPE   H3X18215   6.069   5.207   6.989 -0.6177  0.9569  2.2559
  162SAPE   H3Y18216   5.972   5.348   6.920  0.7838  0.7511 -0.5926
  162SAPE   C3418217   6.159   5.401   7.040 -0.2537 -0.0535  0.0442
  162SAPE   H4X18218   6.145   5.509   7.018 -0.5522  0.3826  2.1269
  162SAPE   H4Y18219   6.268   5.382   7.034  0.1967  2.2515 -0.1024
  162SAPE   C3518220   6.119   5.389   7.186  0.1179 -0.2380  0.5515
  162SAPE   H5X18221   6.165   5.295   7.225 -1.2588 -1.2598 -0.2054
  162SAPE   H5Y18222   6.009   5.379   7.182  0.2815 -5.3721  1.6645
  162SAPE   C3618223   6.160   5.507   7.270 -0.3997 -0.0001  0.1286
  162SAPE   H6X18224   6.113   5.599   7.229 -0.4245 -0.4515 -0.8874
  162SAPE   H6Y18225   6.269   5.521   7.259 -0.2193 -1.6392 -0.3454
  162SAPE   C3718226   6.128   5.510   7.420  0.0846 -0.0300  0.1439
  162SAPE   H7X18227   6.163   5.416   7.468 -0.4850  0.5956  1.8495
  162SAPE   H7Y18228   6.017   5.513   7.427  0.0247 -0.2943 -0.5719
  162SAPE   C3818229   6.189   5.626   7.494 -0.2626  0.1702  0.1126
  162SAPE   H8X18230   6.152   5.727   7.466 -0.5714  0.7642  2.4610
  162SAPE   H8Y18231   6.299   5.622   7.476 -0.0894 -0.0217  1.1667
  162SAPE   C3918232   6.175   5.627   7.647 -0.5157 -0.6891  0.3035
  162SAPE   H9X18233   6.066   5.636   7.667 -0.4906  0.4048 -0.0135
  162SAPE   H9Y18234   6.217   5.727   7.668  1.4289 -0.8856 -2.2620
  162SAPE  C31018235   6.245   5.525   7.729  0.3341  0.6696  0.3394
  162SAPE  H10X18236   6.349   5.505   7.696 -0.1437  2.1283 -2.3594
  162SAPE  H10Y18237   6.187   5.431   7.716  1.3896  0.0841 -0.2344
  162SAPE  C31118238   6.249   5.561   7.877 -0.3435 -0.8614 -0.0062
  162SAPE  H11X18239   6.168   5.629   7.909  0.8016  0.2098  0.7072
  162SAPE  H11Y18240   6.345   5.608   7.908 -0.9614 -0.2693  1.0512
  162SAPE  C31218241   6.236   5.443   7.978  0.6359 -1.0138  0.1267
  162SAPE  H12X18242   6.316   5.370   7.955 -2.1019 -3.6690 -1.7478
  162SAPE  H12Y18243   6.147   5.380   7.957 -0.8011  1.5257 -2.0743
  162SAPE  C31318244   6.245   5.487   8.129 -0.5048  0.3821  0.0028
  162SAPE  H13X18245   6.139   5.510   8.152 -0.7921 -0.6508 -0.2222
  162SAPE  H13Y18246   6.312   5.575   8.140 -0.6076  0.4087  0.4163
  162SAPE  C31418247   6.275   5.357   8.204 -0.3353 -0.1738 -0.5855
  162SAPE  H14X18248   6.385   5.351   8.208 -0.4518 -2.4389  1.0570
  162SAPE  H14Y18249   6.229   5.270   8.151  0.9614 -0.9655 -0.4447
  162SAPE  C31518250   6.209   5.362   8.346 -0.2147  0.8462 -0.8464
  162SAPE  H15X18251   6.098   5.362   8.339 -0.2756  1.6050 -0.0428
  162SAPE  H15Y18252   6.231   5.458   8.396  1.1459  0.2856 -0.3380
  162SAPE  C31618253   6.252   5.240   8.435  0.1801  0.3524 -0.6665
  162SAPE  H16X18254   6.362   5.243   8.420  0.2794  1.6360  0.2247
  162SAPE  H16Y18255   6.196   5.150   8.400 -0.8318  1.0479 -0.8890
  162SAPE  C31718256   6.226   5.260   8.584 -0.3096  0.0778 -0.4403
  162SAPE  H17X18257   6.117   5.260   8.604 -0.1834 -0.7182  0.3206
  162SAPE  H17Y18258   6.253   5.362   8.619  0.1730  0.4065 -1.7047
  162SAPE  C31818259   6.291   5.153   8.672  0.1062  0.3670 -0.1286
  162SAPE  H18X18260   6.258   5.168   8.777 -0.1571 -0.9941 -0.0025
  162SAPE  H18Y18261   6.400   5.133   8.672  0.3457  1.5584 -0.7093
  162SAPE  H18Z18262   6.257   5.058   8.626 -1.6253  1.7798 -1.9669
  163SAPE     N18263   4.447   3.117   6.784 -0.0062  0.4080 -0.8507
  163SAPE   HN118264   4.381   3.167   6.721 -0.2312 -0.8722 -1.6796
  163SAPE   HN218265   4.455   3.168   6.874 -0.8154  1.2775 -1.2543
  163SAPE   HN318266   4.543   3.122   6.743 -1.3052  0.3495 -4.2487
  163SAPE   C1218267   4.401   2.977   6.811  0.0399  0.0716 -0.0535
  163SAPE  H12A18268   4.293   2.988   6.830  0.2039 -1.6130  2.2311
  163SAPE  H12B18269   4.456   2.945   6.903  1.1041  1.5538 -0.1225
  163SAPE   C1118270   4.417   2.875   6.694  0.3309  0.0165 -0.5982
  163SAPE  H11A18271   4.359   2.787   6.732 -0.1180  0.4066 -0.3672
  163SAPE  H11B18272   4.522   2.840   6.688 -0.2407 -1.6092 -1.8097
  163SAPE     P18273   4.215   2.930   6.525  0.6201 -0.2038 -0.2134
  163SAPE   O1318274   4.187   3.073   6.508  0.0451  0.2893 -0.3095
  163SAPE   O1418275   4.188   2.839   6.411 -0.8872  0.4393 -0.3583
  163SAPE   O1218276   4.369   2.925   6.565 -0.6350 -0.1174  0.5447
  163SAPE   O1118277   4.152   2.864   6.652  0.2772  0.0179  0.2609
  163SAPE    C118278   4.016   2.876   6.687 -1.0556  0.5055  0.5511
  163SAPE    HA18279   3.952   2.919   6.607 -0.1792  1.1081  0.1571
  163SAPE    HB18280   3.977   2.774   6.703 -0.7115 -0.2140 -2.5914
  163SAPE    C218281   3.988   2.962   6.820  0.5451  0.1726 -0.4948
  163SAPE    HS18282   4.030   3.063   6.802 -0.3032  0.5001 -0.6579
  163SAPE   O2118283   4.050   2.889   6.927  0.1750  0.6487  0.0018
  163SAPE   C2118284   4.104   2.966   7.021 -0.6210 -0.0441  0.4561
  163SAPE   O2218285   4.104   3.089   7.020 -0.3228  0.0032  0.6519
  163SAPE   C2218286   4.153   2.883   7.133 -0.3720  0.4769 -0.2464
  163SAPE   H2R18287   4.080   2.880   7.216  0.6505  3.9473  0.9404
  163SAPE   H2S18288   4.170   2.777   7.106 -0.9428 -0.1468  1.6971
  163SAPE    C318289   3.835   2.974   6.849  0.4042  0.1027 -0.1440
  163SAPE    HX18290   3.806   2.867   6.846 -0.6031  0.3870 -0.8478
  163SAPE    HY18291   3.792   3.026   6.761 -2.0303 -0.8484  0.4148
  163SAPE   O3118292   3.808   3.046   6.975  0.3225 -0.1923  0.6176
  163SAPE   C3118293   3.685   3.043   7.005  0.2765  0.4543 -0.2031
  163SAPE   O3218294   3.602   2.979   6.946 -0.5484 -0.0585 -0.3245
  163SAPE   C3218295   3.660   3.133   7.132 -0.2049  0.1215 -0.4608
  163SAPE   H2X18296   3.555   3.110   7.159  0.4830 -2.0481  0.5802
  163SAPE   H2Y18297   3.683   3.239   7.110 -0.2189  0.3006  0.3370
  163SAPE   C2318298   4.295   2.933   7.180  0.8193  0.1937 -0.0109
  163SAPE   H3R18299   4.309   3.042   7.163 -0.0112  0.1025 -1.3674
  163SAPE   H3S18300   4.376   2.882   7.123  1.0870  0.6991 -0.0886
  163SAPE   C2418301   4.320   2.901   7.331  0.7326 -0.7697  0.0143
  163SAPE   H4R18302   4.429   2.903   7.352  0.3470 -0.1060  2.1566
  163SAPE   H4S18303   4.298   2.792   7.338  1.7080 -0.9127  1.2364
  163SAPE   C2518304   4.247   2.988   7.426  0.0806  0.4302  0.5754
  163SAPE   H5R18305   4.139   2.970   7.428 -0.4754  2.9947 -1.6286
  163SAPE   C2618306   4.299   3.076   7.513 -0.7486  0.2400  0.2420
  163SAPE   H6R18307   4.228   3.136   7.572  1.3396  1.2753  1.8339
  163SAPE   C2718308   4.446   3.111   7.534 -0.5389 -0.8481  0.1567
  163SAPE   H7R18309   4.524   3.037   7.508  0.6871  0.0218  1.2727
  163SAPE   H7S18310   4.461   3.133   7.642  1.3859 -1.0463 -0.0461
  163SAPE   C2818311   4.484   3.239   7.455 -0.3438 -0.6756  0.2880
  163SAPE   H8R18312   4.476   3.235   7.345  1.9203  1.0467 -0.0001
  163SAPE   C2918313   4.523   3.357   7.508 -0.0156 -0.2882  0.6198
  163SAPE   H9R18314   4.542   3.449   7.450 -2.0061 -0.2394 -0.0186
  163SAPE  C21018315   4.537   3.375   7.657  0.0057 -0.5060  0.3576
  163SAPE  H10R18316   4.625   3.319   7.696  0.3130 -2.4041 -2.7155
  163SAPE  H10S18317   4.448   3.332   7.706 -0.2623 -2.3191 -1.5541
  163SAPE  C21118318   4.562   3.522   7.693 -0.0915  0.1142 -0.7117
  163SAPE  H11R18319   4.611   3.589   7.621 -0.6358  1.0406 -0.2274
  163SAPE  C21218320   4.521   3.574   7.807  0.4841  0.3261 -0.5607
  163SAPE  H12R18321   4.541   3.680   7.830  2.7822 -0.4986  1.7437
  163SAPE  C21318322   4.448   3.491   7.907  0.1205 -0.0503  0.2145
  163SAPE  H13R18323   4.466   3.382   7.914  0.1762 -0.0966 -0.5619
  163SAPE  H13S18324   4.346   3.497   7.864  1.0715  0.5050 -2.1173
  163SAPE  C21418325   4.466   3.555   8.043 -0.3757 -0.2194  0.0723
  163SAPE  H14R18326   4.566   3.594   8.071 -0.3851  1.3351 -1.8827
  163SAPE  C21518327   4.376   3.550   8.141  1.0104 -0.1039  0.3246
  163SAPE  H15R18328   4.405   3.599   8.235 -1.0891  1.8465  0.0337
  163SAPE  C21618329   4.231   3.491   8.145 -0.5542  0.3782 -0.6737
  163SAPE  H16R18330   4.205   3.444   8.048 -2.2316  1.6321 -0.8573
  163SAPE  H16S18331   4.162   3.570   8.179 -2.9108 -2.3580  1.3311
  163SAPE  C21718332   4.237   3.387   8.255  0.2466  0.4178  0.1168
  163SAPE  H17R18333   4.266   3.432   8.352  0.0077 -1.7684  1.2483
  163SAPE  H17S18334   4.328   3.323   8.247 -0.4690 -0.7713  1.1697
  163SAPE  C21818335   4.101   3.312   8.269  0.4965 -0.0299 -0.7575
  163SAPE  H18R18336   4.024   3.391   8.266  0.6827  0.1459 -0.9677
  163SAPE  H18S18337   4.080   3.258   8.363 -0.0978 -3.1954 -2.5650
  163SAPE  C21918338   4.088   3.202   8.164 -0.0958  0.1610  0.1890
  163SAPE  H19R18339   4.178   3.139   8.173  0.4861  0.9375 -0.0576
  163SAPE  H19S18340   4.107   3.243   8.062 -0.0481  0.4811  0.3240
  163SAPE  C22018341   3.951   3.135   8.155 -1.1982 -0.2796 -0.2735
  163SAPE  H20R18342   3.875   3.200   8.107 -1.7169  0.1519  1.0729
  163SAPE  H20S18343   3.918   3.109   8.258  0.0871 -0.7551  0.0369
  163SAPE  H20T18344   3.964   3.037   8.104 -0.4315 -0.1733 -0.2882
  163SAPE   C3318345   3.748   3.081   7.256  0.0003 -0.3541 -0.3971
  163SAPE   H3X18346   3.854   3.083   7.223  0.2137 -1.5244  0.1644
  163SAPE   H3Y18347   3.725   2.975   7.281 -0.3124 -0.1395  0.2637
  163SAPE   C3418348   3.732   3.162   7.387  0.0056 -0.0630 -0.6507
  163SAPE   H4X18349   3.638   3.132   7.438 -1.3830  4.0830 -0.4089
  163SAPE   H4Y18350   3.746   3.271   7.372  1.0064 -0.4762 -3.3311
  163SAPE   C3518351   3.847   3.139   7.493  0.3817  0.2544 -0.0483
  163SAPE   H5X18352   3.943   3.163   7.443 -0.8691  2.9565 -1.3844
  163SAPE   H5Y18353   3.849   3.030   7.510  2.0916  0.6169  2.8308
  163SAPE   C3618354   3.828   3.207   7.624  0.1448 -0.4557  0.0214
  163SAPE   H6X18355   3.728   3.182   7.665 -0.1781  0.1115 -0.4082
  163SAPE   H6Y18356   3.848   3.316   7.618  3.6230 -0.9858  0.3319
  163SAPE   C3718357   3.943   3.164   7.718 -0.5184 -0.4338 -0.1486
  163SAPE   H7X18358   3.944   3.224   7.812 -2.1293 -1.1122  0.3468
  163SAPE   H7Y18359   4.044   3.186   7.679  0.5224 -3.3834  0.5947
  163SAPE   C3818360   3.936   3.019   7.761  0.1108 -0.4433 -0.4378
  163SAPE   H8X18361   3.934   2.949   7.674  0.3293  0.2411 -0.9967
  163SAPE   H8Y18362   3.846   2.999   7.823  1.4888  2.0814  2.6449
  163SAPE   C3918363   4.053   2.978   7.843 -0.0083 -0.3805  0.3530
  163SAPE   H9X18364   4.066   3.053   7.924 -0.5942  0.2466 -0.1262
  163SAPE   H9Y18365   4.146   2.993   7.784 -1.6936 -0.4519 -2.5495
  163SAPE  C31018366   4.064   2.831   7.890  0.2709  1.1085  0.0016
  163SAPE  H10X18367   4.048   2.764   7.803 -0.8518 -1.3482  1.9631
  163SAPE  H10Y18368   3.976   2.814   7.956 -1.0568 -1.8812 -2.2709
  163SAPE  C31118369   4.200   2.805   7.946 -0.8088  0.2746 -1.1136
  163SAPE  H11X18370   4.232   2.876   8.024 -1.0241 -1.3690  0.5504
  163SAPE  H11Y18371   4.272   2.807   7.862 -1.0900 -0.1725 -1.3765
  163SAPE  C31218372   4.210   2.662   8.009 -0.0623  0.3667  0.6059
  163SAPE  H12X18373   4.210   2.599   7.918  0.8527  2.9102 -1.2663
  163SAPE  H12Y18374   4.126   2.638   8.079  0.4498  2.2386  1.9313
  163SAPE  C31318375   4.341   2.656   8.086  0.3527 -0.2091  0.4990
  163SAPE  H13X18376   4.328   2.712   8.181 -4.7728 -1.4287  0.8379
  163SAPE  H13Y18377   4.424   2.708   8.034  0.8949  1.2447  2.6746
  163SAPE  C31418378   4.382   2.512   8.115 -0.3371  0.1450  0.4416
  163SAPE  H14X18379   4.469   2.536   8.180  0.7841 -2.0083 -0.1880
  163SAPE  H14Y18380   4.427   2.465   8.026  0.5543  2.1287 -0.2163
  163SAPE  C31518381   4.268   2.435   8.182 -0.8623 -0.5039  0.2409
  163SAPE  H15X18382   4.222   2.380   8.096  1.1565  0.1742 -1.3529
  163SAPE  H15Y18383   4.199   2.499   8.241 -0.7213 -0.8623  0.8054
  163SAPE  C31618384   4.336   2.337   8.280  0.0147  1.0646  0.3755
  163SAPE  H16X18385   4.269   2.272   8.340 -0.8484  1.2285 -0.3878
  163SAPE  H16Y18386   4.391   2.400   8.352  0.9382 -0.2073  0.8167
  163SAPE  C31718387   4.444   2.245   8.227  0.0432  0.9863 -0.1465
  163SAPE  H17X18388   4.524   2.319   8.203  0.8155  1.3078  2.9617
  163SAPE  H17Y18389   4.414   2.187   8.136  0.5162 -0.6360  0.6836
  163SAPE  C31818390   4.490   2.148   8.337 -0.6483  0.1441  0.4494
  163SAPE  H18X18391   4.550   2.202   8.413 -0.3447  2.9147 -1.6290
  163SAPE  H18Y18392   4.556   2.071   8.292 -0.2310  0.8620 -0.1859
  163SAPE  H18Z18393   4.405   2.085   8.372 -0.3100 -0.2773  0.5258
  164SAPE     N18394   6.029   6.756   5.785  0.0535  0.0509 -0.1408
  164SAPE   HN118395   6.131   6.742   5.779  0.3631  1.8627  0.1327
  164SAPE   HN218396   5.985   6.703   5.862  1.7915 -0.0929  0.7828
  164SAPE   HN318397   5.987   6.711   5.701  1.4678  0.6005 -1.1778
  164SAPE   C1218398   5.980   6.897   5.775  0.1128 -0.0315  0.2549
  164SAPE  H12A18399   6.022   6.933   5.678 -0.0419 -1.6822 -0.4628
  164SAPE  H12B18400   6.021   6.963   5.854 -1.5819  0.3555  0.8459
  164SAPE   C1118401   5.829   6.902   5.778  0.1412  0.7165 -0.1069
  164SAPE  H11A18402   5.794   6.872   5.677  1.6534  3.3715 -1.5480
  164SAPE  H11B18403   5.800   7.009   5.780 -0.0072  0.6642  0.5732
  164SAPE     P18404   5.621   6.872   5.933  0.0738  0.0157 -0.3694
  164SAPE   O1318405   5.576   7.001   5.875  0.7342  0.2770 -0.1208
  164SAPE   O1418406   5.530   6.756   5.915 -0.1182 -0.0314  0.0708
  164SAPE   O1218407   5.767   6.827   5.881 -0.2000 -0.3401  0.0938
  164SAPE   O1118408   5.654   6.885   6.091  0.1706  0.1702  0.0991
  164SAPE    C118409   5.730   6.997   6.136 -0.1103 -0.2405  0.2644
  164SAPE    HA18410   5.840   6.999   6.123  0.1590  1.3040  2.2165
  164SAPE    HB18411   5.701   7.091   6.084 -1.4997 -0.4867  0.5490
  164SAPE    C218412   5.712   7.024   6.281 -1.0363 -0.3576 -0.1198
  164SAPE    HS18413   5.769   7.117   6.301  0.1518 -1.0716 -0.1008
  164SAPE   O2118414   5.764   6.921   6.369 -0.0394  0.1303  0.1092
  164SAPE   C2118415   5.899   6.933   6.389  0.0001  0.6853 -0.7762
  164SAPE   O2218416   5.971   7.017   6.334  0.0314  0.0264  0.3567
  164SAPE   C2218417   5.953   6.832   6.490  0.3551  0.5961 -0.3977
  164SAPE   H2R18418   5.876   6.761   6.530  1.4935 -3.0133 -3.9422
  164SAPE   H2S18419   6.024   6.764   6.438  0.3594 -0.9779  1.5104
  164SAPE    C318420   5.570   7.063   6.324 -0.1711 -0.2305 -0.4971
  164SAPE    HX18421   5.509   6.972   6.306 -1.2167  0.0454  1.4181
  164SAPE    HY18422   5.529   7.146   6.263  0.8377  1.2965  0.8280
  164SAPE   O3118423   5.565   7.107   6.465  0.2914 -0.1880 -0.0641
  164SAPE   C3118424   5.454   7.062   6.528 -0.1558  0.2780  0.1488
  164SAPE   O3218425   5.374   6.982   6.482  0.6654 -0.1006 -0.2731
  164SAPE   C3218426   5.451   7.127   6.669  0.2550  0.1928  0.5148
  164SAPE   H2X18427   5.435   7.235   6.648 -1.8568 -0.1212  0.2589
  164SAPE   H2Y18428   5.550   7.111   6.718 -0.0439 -0.6277  0.8615
  164SAPE   C2318429   6.008   6.908   6.608 -0.3105  0.4026 -0.6023
  164SAPE   H3R18430   5.925   6.963   6.657 -1.0560  0.6524 -2.1058
  164SAPE   H3S18431   6.080   6.987   6.577 -1.4477  1.1096 -1.5157
  164SAPE   C2418432   6.079   6.819   6.718 -0.3863  0.0666  0.1379
  164SAPE   H4R18433   6.164   6.770   6.667 -1.7616 -2.6527  0.2730
  164SAPE   H4S18434   6.002   6.744   6.745 -0.6608  0.0789 -0.5917
  164SAPE   C2518435   6.120   6.904   6.838  0.3888 -0.4075  0.4289
  164SAPE   H5R18436   6.142   7.008   6.810 -0.3879 -0.2478  0.3831
  164SAPE   C2618437   6.124   6.868   6.968 -0.5499  0.2088 -0.3552
  164SAPE   H6R18438   6.131   6.953   7.038  0.0263 -0.4082  0.3526
  164SAPE   C2718439   6.099   6.732   7.031  0.4020 -0.3916 -0.3214
  164SAPE   H7R18440   6.196   6.694   7.068  1.3604  1.2374 -1.0462
  164SAPE   H7S18441   6.074   6.659   6.951  0.5754 -0.8096  0.0078
  164SAPE   C2818442   5.998   6.721   7.141  0.0453  0.3869 -0.3739
  164SAPE   H8R18443   5.900   6.682   7.112  0.2760  0.3901 -1.1740
  164SAPE   C2918444   6.004   6.770   7.266 -0.2047  0.4465 -0.0191
  164SAPE   H9R18445   5.926   6.748   7.340 -0.0092 -0.6905 -0.1207
  164SAPE  C21018446   6.119   6.835   7.330 -0.0939  0.3134  0.0391
  164SAPE  H10R18447   6.090   6.928   7.383  0.4280 -0.0164  0.9379
  164SAPE  H10S18448   6.203   6.857   7.260  0.3005 -1.2976 -0.0267
  164SAPE  C21118449   6.182   6.737   7.425 -0.3062  0.1783  0.2640
  164SAPE  H11R18450   6.231   6.651   7.379 -0.0825 -0.1304  1.0628
  164SAPE  C21218451   6.190   6.733   7.563  0.4351  0.5448  0.0367
  164SAPE  H12R18452   6.237   6.649   7.616 -0.6969  0.0251  0.2526
  164SAPE  C21318453   6.124   6.833   7.655 -0.2627 -0.1834  0.0152
  164SAPE  H13R18454   6.121   6.931   7.603 -1.4381 -0.2668 -0.0968
  164SAPE  H13S18455   6.199   6.864   7.731 -0.0230  0.0044 -0.2933
  164SAPE  C21418456   5.989   6.807   7.713  0.7051 -1.1065  0.6543
  164SAPE  H14R18457   5.930   6.754   7.637  1.8340 -1.6775  0.1376
  164SAPE  C21518458   5.939   6.852   7.829 -0.8253  0.0483  0.5260
  164SAPE  H15R18459   5.835   6.829   7.857  0.5513 -2.0137  4.8400
  164SAPE  C21618460   6.013   6.918   7.940 -0.3704 -0.1082 -0.1457
  164SAPE  H16R18461   5.959   7.005   7.983  0.6331 -1.2501  3.8432
  164SAPE  H16S18462   6.112   6.957   7.908 -0.3355  1.2268  1.4465
  164SAPE  C21718463   6.028   6.842   8.071  0.1543 -0.1759 -0.1776
  164SAPE  H17R18464   6.067   6.739   8.059  1.8039 -0.2119  3.9493
  164SAPE  H17S18465   5.927   6.838   8.118  0.6371 -0.2077  0.8847
  164SAPE  C21818466   6.126   6.920   8.163  0.4726  0.4545 -0.0937
  164SAPE  H18R18467   6.087   7.024   8.162 -0.0295  0.2933 -2.5216
  164SAPE  H18S18468   6.232   6.913   8.132  0.8463 -0.5614  1.2937
  164SAPE  C21918469   6.115   6.875   8.318  0.5853  0.8753  0.0675
  164SAPE  H19R18470   6.197   6.924   8.375 -0.3006  1.1566  1.1280
  164SAPE  H19S18471   6.142   6.769   8.335  1.2672  1.1525  0.7524
  164SAPE  C22018472   5.981   6.895   8.382 -0.2692 -0.1841  0.0362
  164SAPE  H20R18473   5.907   6.853   8.310 -0.7323 -1.7653  1.3633
  164SAPE  H20S18474   5.966   7.001   8.412 -2.0665 -0.4258  0.1328
  164SAPE  H20T18475   5.977   6.844   8.481  0.3144 -0.3402 -0.0201
  164SAPE   C3318476   5.348   7.072   6.775 -0.7052 -0.6500 -0.0754
  164SAPE   H3X18477   5.333   6.962   6.764 -0.1384 -0.9262  1.5535
  164SAPE   H3Y18478   5.248   7.118   6.761 -1.6867 -2.6276  0.1220
  164SAPE   C3418479   5.383   7.104   6.920  0.5475  0.0678  0.1970
  164SAPE   H4X18480   5.465   7.049   6.972  1.4322  0.8199 -0.3791
  164SAPE   H4Y18481   5.290   7.084   6.977  0.4181 -0.8056 -0.2975
  164SAPE   C3518482   5.405   7.255   6.937 -0.0262 -0.3511 -0.4255
  164SAPE   H5X18483   5.327   7.302   6.874 -1.5874 -0.5888  1.2356
  164SAPE   H5Y18484   5.496   7.287   6.883  0.3664 -2.1058 -0.8438
  164SAPE   C3618485   5.421   7.306   7.080  0.5617 -0.5823 -0.1222
  164SAPE   H6X18486   5.523   7.297   7.122 -0.3818 -1.1010  2.1925
  164SAPE   H6Y18487   5.356   7.241   7.142  0.0506  0.4119  0.4039
  164SAPE   C3718488   5.369   7.451   7.087 -0.0587 -0.1740  0.0730
  164SAPE   H7X18489   5.278   7.469   7.026  0.4890  0.7124 -0.4940
  164SAPE   H7Y18490   5.449   7.518   7.050  2.2653 -2.9141 -0.2205
  164SAPE   C3818491   5.340   7.480   7.233  0.5313  0.3850  0.3476
  164SAPE   H8X18492   5.280   7.393   7.268  1.2359 -1.2468 -2.2149
  164SAPE   H8Y18493   5.283   7.572   7.258 -1.6135 -0.9047  0.4668
  164SAPE   C3918494   5.466   7.473   7.327 -0.2317 -0.1834  0.0133
  164SAPE   H9X18495   5.525   7.380   7.311  0.3171 -0.1450  1.6996
  164SAPE   H9Y18496   5.426   7.483   7.430 -1.3262 -0.1328 -0.3926
  164SAPE  C31018497   5.566   7.588   7.308 -0.3520  0.4477  0.2421
  164SAPE  H10X18498   5.600   7.575   7.203 -2.3277  2.1341 -0.6695
  164SAPE  H10Y18499   5.652   7.574   7.377 -0.9477 -0.8181  0.7485
  164SAPE  C31118500   5.512   7.729   7.303  0.8438 -0.4975  0.1158
  164SAPE  H11X18501   5.438   7.740   7.221  0.5090 -2.8833  0.0108
  164SAPE  H11Y18502   5.590   7.802   7.276 -1.3549  1.5723 -1.0527
  164SAPE  C31218503   5.442   7.770   7.441 -0.1837  0.0012  0.1786
  164SAPE  H12X18504   5.519   7.750   7.518 -0.2531  1.8803  0.7970
  164SAPE  H12Y18505   5.343   7.725   7.465  0.6377 -1.3293  1.1776
  164SAPE  C31318506   5.421   7.921   7.459 -0.2148 -0.0656 -0.4603
  164SAPE  H13X18507   5.513   7.977   7.430  0.2241 -1.2534 -1.4367
  164SAPE  H13Y18508   5.401   7.932   7.568 -1.6717 -0.4440 -0.6727
  164SAPE  C31418509   5.307   7.981   7.363 -0.2843  0.8772  0.2675
  164SAPE  H14X18510   5.217   7.916   7.358  0.9720 -1.0116  0.9862
  164SAPE  H14Y18511   5.351   7.984   7.261 -0.0950  0.5281  0.3385
  164SAPE  C31518512   5.252   8.121   7.397  0.0558 -0.2617  0.8859
  164SAPE  H15X18513   5.226   8.137   7.504 -0.2733 -1.4813  1.0138
  164SAPE  H15Y18514   5.163   8.140   7.333  0.8746  2.1910  0.4041
  164SAPE  C31618515   5.356   8.227   7.374  0.2633 -0.2183 -0.2265
  164SAPE  H16X18516   5.370   8.233   7.264 -0.8561 -1.2269 -0.4515
  164SAPE  H16Y18517   5.454   8.193   7.413  0.2495 -2.7076 -2.1382
  164SAPE  C31718518   5.317   8.365   7.424 -0.2607 -0.5558  0.2305
  164SAPE  H17X18519   5.291   8.362   7.532 -0.2112 -2.1422  0.2199
  164SAPE  H17Y18520   5.230   8.408   7.369  0.5636  0.1811 -0.5466
  164SAPE  C31818521   5.427   8.475   7.400 -0.1695 -0.7724  0.3064
  164SAPE  H18X18522   5.464   8.465   7.295 -0.3237 -0.0812  0.1797
  164SAPE  H18Y18523   5.508   8.455   7.472  1.0155 -0.5996 -0.9395
  164SAPE  H18Z18524   5.382   8.575   7.421 -1.6407 -0.7295 -2.4805
  165SAPE     N18525   6.096   5.333   6.184 -0.0346  0.4116  0.2323
  165SAPE   HN118526   6.017   5.305   6.122 -0.2864  1.4390  0.0626
  165SAPE   HN218527   6.128   5.429   6.159  2.4020 -0.4736 -0.3704
  165SAPE   HN318528   6.179   5.272   6.170  1.2730  2.3667 -1.0371
  165SAPE   C1218529   6.039   5.338   6.323 -0.0132 -0.0510  0.1584
  165SAPE  H12A18530   5.949   5.402   6.328  1.0545  1.4936  0.5330
  165SAPE  H12B18531   6.119   5.373   6.391 -1.5845  0.9884  1.5277
  165SAPE   C1118532   5.992   5.196   6.367  0.3497  0.4282  0.4679
  165SAPE  H11A18533   5.945   5.207   6.467 -0.7713  0.6004 -0.0631
  165SAPE  H11B18534   6.076   5.127   6.390  0.6837  0.8624  0.5694
  165SAPE     P18535   5.793   5.036   6.319  0.0601  0.3409 -0.0297
  165SAPE   O1318536   5.677   5.113   6.362  0.5154 -0.1715 -0.3017
  165SAPE   O1418537   5.773   4.919   6.229 -0.0393 -0.6625 -0.1066
  165SAPE   O1218538   5.906   5.137   6.270  0.3907 -0.0805  0.1753
  165SAPE   O1118539   5.864   4.977   6.450 -0.3465 -0.2068  0.6217
  165SAPE    C118540   5.798   4.876   6.523 -0.1825 -0.2857  0.0743
  165SAPE    HA18541   5.687   4.884   6.525 -0.2017 -0.5878  2.2416
  165SAPE    HB18542   5.826   4.780   6.476  1.2004 -0.0749  0.4241
  165SAPE    C218543   5.833   4.881   6.670 -0.0135 -0.3086  0.3845
  165SAPE    HS18544   5.762   4.811   6.719 -3.4803  1.3441 -1.8453
  165SAPE   O2118545   5.818   5.022   6.720 -0.2896  0.3849  0.6954
  165SAPE   C2118546   5.699   5.069   6.723  0.1003 -0.0485 -0.4594
  165SAPE   O2218547   5.600   5.000   6.718 -0.4017  0.0874 -0.3265
  165SAPE   C2218548   5.705   5.217   6.756  0.3094 -0.0223  0.0648
  165SAPE   H2R18549   5.807   5.235   6.796  0.0485  3.1706 -0.4631
  165SAPE   H2S18550   5.698   5.281   6.665 -0.6794 -0.1264  0.0597
  165SAPE    C318551   5.979   4.827   6.702  0.2432 -1.2247 -0.3392
  165SAPE    HX18552   6.048   4.897   6.650  1.1761 -0.7036  1.5084
  165SAPE    HY18553   5.987   4.728   6.653  2.0670 -2.0358  1.4420
  165SAPE   O3118554   6.010   4.839   6.841  0.6687  0.4074 -0.7343
  165SAPE   C3118555   5.963   4.737   6.922  0.1180 -0.6386  0.9067
  165SAPE   O3218556   5.898   4.643   6.880  0.2950 -0.5799  0.2096
  165SAPE   C3218557   6.013   4.747   7.061 -0.0215  0.2452  0.1196
  165SAPE   H2X18558   6.031   4.856   7.074  0.7219  0.4928 -2.3935
  165SAPE   H2Y18559   6.106   4.687   7.070 -0.1792  0.1150  0.9078
  165SAPE   C2318560   5.614   5.247   6.873  0.7352  0.5749  0.0767
  165SAPE   H3R18561   5.510   5.259   6.836  0.3279  1.9515  1.5510
  165SAPE   H3S18562   5.643   5.342   6.923  0.2190  0.2725  0.9723
  165SAPE   C2418563   5.632   5.152   7.002  0.2006 -0.3155  0.4414
  165SAPE   H4R18564   5.593   5.053   6.971  2.0359 -0.7920 -0.5263
  165SAPE   H4S18565   5.546   5.180   7.065  0.0367  1.9852 -0.6928
  165SAPE   C2518566   5.767   5.143   7.074 -0.2322 -0.1386  0.2472
  165SAPE   H5R18567   5.838   5.088   7.011 -0.8364 -0.3043 -0.2996
  165SAPE   C2618568   5.804   5.190   7.192 -0.3773  0.5768 -0.1075
  165SAPE   H6R18569   5.899   5.154   7.233 -0.9418  1.0174  1.6515
  165SAPE   C2718570   5.729   5.261   7.293 -0.4583 -0.3172  0.3252
  165SAPE   H7R18571   5.660   5.321   7.231 -1.9946 -2.1825  0.1188
  165SAPE   H7S18572   5.795   5.335   7.342  1.9004 -2.1937  0.1974
  165SAPE   C2818573   5.639   5.182   7.390  0.4325  0.1111  0.7213
  165SAPE   H8R18574   5.588   5.095   7.346 -0.2227  1.1371 -0.6391
  165SAPE   C2918575   5.621   5.224   7.519 -0.4535  0.0355 -0.2663
  165SAPE   H9R18576   5.578   5.161   7.598  0.8410  1.8908  2.0693
  165SAPE  C21018577   5.679   5.350   7.576  1.0395 -0.1756 -0.3983
  165SAPE  H10R18578   5.600   5.396   7.639 -0.4895 -2.8466 -0.2387
  165SAPE  H10S18579   5.696   5.426   7.496 -0.3474  1.0229  0.3994
  165SAPE  C21118580   5.812   5.325   7.649 -0.2330 -0.1429  0.1136
  165SAPE  H11R18581   5.895   5.299   7.581 -0.4137  0.0370 -0.1777
  165SAPE  C21218582   5.837   5.346   7.781 -0.3246 -0.1916  0.5776
  165SAPE  H12R18583   5.939   5.318   7.810 -0.5979 -1.5208  0.3269
  165SAPE  C21318584   5.734   5.402   7.887 -0.5471 -0.0494  0.5988
  165SAPE  H13R18585   5.627   5.399   7.856 -0.7656 -0.1165  1.3374
  165SAPE  H13S18586   5.769   5.506   7.900  0.2108  0.0160 -1.6080
  165SAPE  C21418587   5.741   5.328   8.016 -0.2389  0.3401 -0.3014
  165SAPE  H14R18588   5.763   5.221   8.004  0.4253  0.3353  0.7876
  165SAPE  C21518589   5.735   5.374   8.140 -0.6592  0.2099  0.2088
  165SAPE  H15R18590   5.765   5.317   8.229  1.3446 -0.3423 -0.7532
  165SAPE  C21618591   5.704   5.520   8.169  0.4141  0.3583  0.2058
  165SAPE  H16R18592   5.629   5.571   8.105 -1.1178  1.0143  2.3917
  165SAPE  H16S18593   5.797   5.580   8.161 -0.2642  1.3412 -0.5773
  165SAPE  C21718594   5.671   5.549   8.320 -0.6667 -0.1738  1.0086
  165SAPE  H17R18595   5.561   5.539   8.329 -0.4062 -3.3256  1.8543
  165SAPE  H17S18596   5.712   5.652   8.329  0.5648 -0.7858  3.0755
  165SAPE  C21818597   5.753   5.477   8.424  0.0268  0.2705 -0.3944
  165SAPE  H18R18598   5.861   5.479   8.397 -0.4712 -0.8143 -2.7058
  165SAPE  H18S18599   5.718   5.372   8.414 -0.6829  0.3112  1.3072
  165SAPE  C21918600   5.713   5.529   8.567 -0.2788  0.8693 -0.0728
  165SAPE  H19R18601   5.603   5.524   8.560 -0.2918 -0.7221  0.7785
  165SAPE  H19S18602   5.735   5.637   8.583  3.0023  0.6806 -2.2650
  165SAPE  C22018603   5.750   5.438   8.687 -0.0968 -0.2831 -0.0508
  165SAPE  H20R18604   5.811   5.351   8.653 -0.0657 -1.0295  1.8137
  165SAPE  H20S18605   5.664   5.397   8.743 -0.8958  2.8072  1.2194
  165SAPE  H20T18606   5.806   5.498   8.763 -0.5154 -0.3940  0.3481
  165SAPE   C3318607   5.915   4.687   7.166 -0.2301  0.5882 -0.6794
  165SAPE   H3X18608   5.929   4.578   7.155 -0.5700  0.4375  0.2716
  165SAPE   H3Y18609   5.805   4.701   7.154 -0.6897 -2.0386 -0.0853
  165SAPE   C3418610   5.963   4.734   7.311  0.2049 -0.0840  0.4083
  165SAPE   H4X18611   6.067   4.693   7.317  0.9792  0.7593 -3.6783
  165SAPE   H4Y18612   5.905   4.687   7.393  1.1061  1.1903  1.8337
  165SAPE   C3518613   5.945   4.884   7.337 -0.0208 -0.2058  0.7265
  165SAPE   H5X18614   5.839   4.904   7.313 -0.2504 -1.7756  0.3475
  165SAPE   H5Y18615   6.013   4.939   7.268 -0.5353 -0.5818 -0.0952
  165SAPE   C3618616   5.978   4.918   7.484  0.8143  0.0846  0.1515
  165SAPE   H6X18617   5.992   5.027   7.505 -0.6385  0.2046  0.5838
  165SAPE   H6Y18618   6.077   4.872   7.505  0.4767 -1.6128 -1.6317
  165SAPE   C3718619   5.869   4.879   7.584  0.0865 -0.7467  0.5156
  165SAPE   H7X18620   5.842   4.773   7.567 -1.5493 -0.2004 -0.6149
  165SAPE   H7Y18621   5.779   4.939   7.557  1.6227  2.4533  1.9275
  165SAPE   C3818622   5.896   4.885   7.741 -0.5539  0.1081 -0.3007
  165SAPE   H8X18623   5.975   4.811   7.761 -1.3737 -1.2376 -1.8001
  165SAPE   H8Y18624   5.805   4.849   7.795 -0.5894 -0.8953 -1.0036
  165SAPE   C3918625   5.925   5.022   7.812  0.4517 -0.1415 -0.1562
  165SAPE   H9X18626   5.838   5.090   7.803  0.3262 -0.3779 -0.7996
  165SAPE   H9Y18627   6.011   5.062   7.755 -1.0256 -0.3742 -2.6686
  165SAPE  C31018628   5.972   4.995   7.958 -0.0022  0.5697 -0.1452
  165SAPE  H10X18629   5.994   5.097   7.996  2.3928  0.2527 -0.5213
  165SAPE  H10Y18630   6.064   4.933   7.957 -0.6881 -0.4738 -0.7714
  165SAPE  C31118631   5.859   4.934   8.047 -0.3419 -0.2678 -0.1074
  165SAPE  H11X18632   5.845   4.834   8.001  0.1213 -0.1374 -0.5334
  165SAPE  H11Y18633   5.763   4.984   8.019 -0.0413  0.2378 -0.2407
  165SAPE  C31218634   5.884   4.949   8.199  0.4330 -0.1515  0.9473
  165SAPE  H12X18635   5.793   4.916   8.254 -1.4720  2.3201 -0.4781
  165SAPE  H12Y18636   5.883   5.057   8.227  0.7071 -0.1408  0.9173
  165SAPE  C31318637   6.004   4.871   8.254 -0.3231 -0.5390 -0.1120
  165SAPE  H13X18638   6.008   4.869   8.365  1.7430  1.1733 -0.0845
  165SAPE  H13Y18639   6.098   4.906   8.207 -0.2866  0.0017  0.3623
  165SAPE  C31418640   5.994   4.713   8.230  0.0157 -0.8528 -0.1904
  165SAPE  H14X18641   5.990   4.701   8.119 -0.1604 -0.6139 -0.2103
  165SAPE  H14Y18642   5.902   4.660   8.262 -1.5888 -0.1786 -3.3029
  165SAPE  C31518643   6.119   4.640   8.276  0.4676 -0.0396 -0.2549
  165SAPE  H15X18644   6.210   4.699   8.253  0.1965  0.5837  0.2575
  165SAPE  H15Y18645   6.130   4.545   8.219  1.6117 -0.7434  1.0498
  165SAPE  C31618646   6.122   4.617   8.429 -0.2946  0.2039 -0.3493
  165SAPE  H16X18647   6.034   4.558   8.463 -0.5658 -0.2912 -1.8356
  165SAPE  H16Y18648   6.121   4.714   8.483  0.1557 -0.1711  0.3441
  165SAPE  C31718649   6.254   4.556   8.470  0.2941  0.5053 -0.6199
  165SAPE  H17X18650   6.336   4.628   8.451  1.6584 -0.6171  0.8357
  165SAPE  H17Y18651   6.276   4.462   8.415  2.7437 -0.3354  1.6039
  165SAPE  C31818652   6.252   4.504   8.617 -0.3394 -0.1006 -0.2216
  165SAPE  H18X18653   6.355   4.468   8.638 -0.8128 -1.2489  0.2289
  165SAPE  H18Y18654   6.178   4.422   8.629 -0.7245  0.2566 -0.1372
  165SAPE  H18Z18655   6.239   4.584   8.692  0.6990  0.4610 -0.6247
  166SAPE     N18656   0.298   0.140   5.868 -0.0780 -0.0656  0.1244
  166SAPE   HN118657   0.370   0.093   5.927 -0.9791 -0.0735  1.2338
  166SAPE   HN218658   0.329   0.239   5.856  1.0571 -0.4667 -0.4685
  166SAPE   HN318659   0.205   0.129   5.911 -0.6571 -0.4037 -1.1681
  166SAPE   C1218660   0.300   0.087   5.731 -0.2203 -0.2649 -0.2484
  166SAPE  H12A18661   0.402   0.107   5.692 -0.0044  0.6852  0.7482
  166SAPE  H12B18662   0.230   0.147   5.669 -1.9151  0.4495  2.1909
  166SAPE   C1118663   0.290  -0.065   5.719  0.4135  1.3493  0.0066
  166SAPE  H11A18664   0.390  -0.105   5.745 -1.3520 -3.4836  0.2560
  166SAPE  H11B18665   0.270  -0.106   5.618 -0.9009  1.6707  0.1113
  166SAPE     P18666   0.051  -0.115   5.808  0.2555 -0.2656  0.6222
  166SAPE   O1318667   0.015  -0.053   5.680 -0.2352 -0.1113  0.5351
  166SAPE   O1418668  -0.011  -0.246   5.834 -0.0365  0.6349  0.2760
  166SAPE   O1218669   0.203  -0.121   5.821 -0.1621 -0.3743  0.5327
  166SAPE   O1118670   0.018  -0.020   5.918 -0.1252 -0.2709 -0.4767
  166SAPE    C118671   0.001  -0.049   6.058  0.2413  0.6894 -0.2124
  166SAPE    HA18672  -0.039  -0.149   6.083  0.0176  1.2433  1.8404
  166SAPE    HB18673   0.106  -0.046   6.094  0.7861 -0.4406 -1.5973
  166SAPE    C218674  -0.079   0.065   6.118 -0.4986  0.1151  0.9575
  166SAPE    HS18675  -0.085   0.148   6.045 -0.1291 -0.7387 -0.0583
  166SAPE   O2118676  -0.021   0.111   6.239  0.0219  0.1811 -0.7913
  166SAPE   C2118677   0.089   0.192   6.218  0.1002 -0.4357  0.5728
  166SAPE   O2218678   0.121   0.221   6.103 -0.9913  0.0681 -0.1293
  166SAPE   C2218679   0.157   0.239   6.351  0.1715  0.2739  0.1372
  166SAPE   H2R18680   0.116   0.176   6.433  1.3939  1.5313  1.7639
  166SAPE   H2S18681   0.267   0.225   6.347  0.3169  1.3680  0.0072
  166SAPE    C318682  -0.222   0.022   6.149  0.3791  0.3955  0.4328
  166SAPE    HX18683  -0.262  -0.030   6.059  2.8828  2.8383 -2.2941
  166SAPE    HY18684  -0.289   0.110   6.163 -0.2192  0.1983 -0.9915
  166SAPE   O3118685  -0.231  -0.055   6.267  0.1006 -0.1813 -0.1380
  166SAPE   C3118686  -0.349  -0.131   6.293 -0.4348 -0.6445  0.5180
  166SAPE   O3218687  -0.443  -0.125   6.218 -0.1810 -0.0773 -0.3321
  166SAPE   C3218688  -0.330  -0.208   6.420 -0.7723  0.0769  0.8158
  166SAPE   H2X18689  -0.244  -0.160   6.471  0.5495 -3.0246  1.7579
  166SAPE   H2Y18690  -0.297  -0.307   6.381  1.2312  1.6268 -1.6527
  166SAPE   C2318691   0.123   0.386   6.387 -1.0694 -0.4822  0.2652
  166SAPE   H3R18692   0.021   0.408   6.348  0.3695 -1.9341 -5.2382
  166SAPE   H3S18693   0.185   0.459   6.329 -0.0662 -1.1480  0.4788
  166SAPE   C2418694   0.141   0.404   6.540 -0.2059  0.4333 -0.1609
  166SAPE   H4R18695   0.123   0.310   6.595 -0.6592  1.4789  1.5787
  166SAPE   H4S18696   0.054   0.469   6.565  0.4042  2.3596 -2.5650
  166SAPE   C2518697   0.271   0.472   6.562 -0.0915 -0.0078 -0.0730
  166SAPE   H5R18698   0.290   0.574   6.527 -3.0824  0.3301 -1.0017
  166SAPE   C2618699   0.363   0.415   6.644 -0.5792 -0.5548  0.8973
  166SAPE   H6R18700   0.461   0.461   6.659  0.5753 -1.9658 -1.6759
  166SAPE   C2718701   0.352   0.280   6.711  0.0026 -0.1484  0.3928
  166SAPE   H7R18702   0.365   0.194   6.642  2.3392 -0.3547  0.9831
  166SAPE   H7S18703   0.248   0.266   6.746  0.5317 -0.5882  1.8862
  166SAPE   C2818704   0.445   0.259   6.826 -0.1686  0.2083 -0.0111
  166SAPE   H8R18705   0.547   0.229   6.796 -0.6575 -0.2484 -1.2895
  166SAPE   C2918706   0.419   0.269   6.951  0.7573  0.7844 -0.8652
  166SAPE   H9R18707   0.496   0.265   7.030 -0.9447  1.3193  0.9080
  166SAPE  C21018708   0.279   0.302   7.000 -0.2298 -0.2181  0.1774
  166SAPE  H10R18709   0.218   0.210   7.012 -2.5527  1.0727 -1.0192
  166SAPE  H10S18710   0.240   0.358   6.912  1.2371  0.1756 -0.2613
  166SAPE  C21118711   0.269   0.390   7.123  0.2314  0.2785  0.2823
  166SAPE  H11R18712   0.234   0.492   7.099 -1.1260 -0.2427  0.0133
  166SAPE  C21218713   0.292   0.348   7.250 -0.3412 -0.4438 -0.2805
  166SAPE  H12R18714   0.290   0.416   7.337  1.2114 -1.5657  0.6619
  166SAPE  C21318715   0.343   0.212   7.287  0.2375  0.5267  0.1093
  166SAPE  H13R18716   0.430   0.237   7.352 -0.3176  0.2860  0.9550
  166SAPE  H13S18717   0.376   0.158   7.196 -0.9423 -2.0197  1.0924
  166SAPE  C21418718   0.238   0.136   7.360 -0.0020 -0.0937 -0.4399
  166SAPE  H14R18719   0.148   0.118   7.299 -0.3884 -0.9688  0.3653
  166SAPE  C21518720   0.235   0.106   7.494 -0.2989 -0.3032 -0.2820
  166SAPE  H15R18721   0.152   0.059   7.547  1.1474 -0.2184  2.2152
  166SAPE  C21618722   0.360   0.135   7.583  0.3135  0.2328 -1.2545
  166SAPE  H16R18723   0.451   0.153   7.521  0.9096  1.0831 -0.1693
  166SAPE  H16S18724   0.381   0.041   7.639  0.8704  0.8707 -0.3599
  166SAPE  C21718725   0.337   0.251   7.686 -0.1673 -0.2711 -0.1190
  166SAPE  H17R18726   0.235   0.240   7.729 -0.0084  0.9971  0.6328
  166SAPE  H17S18727   0.318   0.345   7.629 -1.6101  0.6207  1.6877
  166SAPE  C21818728   0.438   0.265   7.803  0.4369  0.3648 -0.0405
  166SAPE  H18R18729   0.539   0.263   7.757 -0.2628 -1.1992 -1.6524
  166SAPE  H18S18730   0.438   0.167   7.856 -2.8271 -0.1657 -0.7998
  166SAPE  C21918731   0.415   0.378   7.903 -0.0434  0.2231 -0.0224
  166SAPE  H19R18732   0.460   0.461   7.846  0.7403  0.1199  0.4322
  166SAPE  H19S18733   0.472   0.347   7.994  1.5914  0.2826 -0.9914
  166SAPE  C22018734   0.267   0.417   7.943  0.3188  0.1822 -0.2592
  166SAPE  H20R18735   0.266   0.517   7.991  0.0028  0.3610 -0.6397
  166SAPE  H20S18736   0.220   0.359   8.026  0.3083  1.3817  0.6080
  166SAPE  H20T18737   0.200   0.411   7.854 -0.5607 -2.1430  0.4753
  166SAPE   C3318738  -0.454  -0.221   6.507  0.2928  0.1584 -0.7601
  166SAPE   H3X18739  -0.545  -0.256   6.455  0.8117  2.1605 -3.2360
  166SAPE   H3Y18740  -0.494  -0.123   6.542  1.7461  0.2789  0.6543
  166SAPE   C3418741  -0.427  -0.305   6.636 -0.1108  0.1201  0.1833
  166SAPE   H4X18742  -0.407  -0.413   6.619 -3.1704 -0.8416  1.8867
  166SAPE   H4Y18743  -0.512  -0.296   6.708 -0.4750  0.2831 -0.2606
  166SAPE   C3518744  -0.309  -0.248   6.721 -0.0866  0.1105  1.0863
  166SAPE   H5X18745  -0.326  -0.139   6.711  2.1828  0.5972  1.8842
  166SAPE   H5Y18746  -0.208  -0.252   6.674  0.5041  4.6156  1.5442
  166SAPE   C3618747  -0.313  -0.282   6.873  0.7099  0.5536  0.7846
  166SAPE   H6X18748  -0.417  -0.255   6.901  1.1099  0.8323  2.0728
  166SAPE   H6Y18749  -0.238  -0.208   6.906  1.3636  0.7251 -0.9814
  166SAPE   C3718750  -0.258  -0.419   6.924 -0.4051 -0.4128  0.2408
  166SAPE   H7X18751  -0.183  -0.451   6.849 -0.1346 -0.2337  0.4326
  166SAPE   H7Y18752  -0.342  -0.492   6.925  0.3985 -1.3931 -0.8600
  166SAPE   C3818753  -0.197  -0.404   7.061  0.5718  0.1528  0.7092
  166SAPE   H8X18754  -0.103  -0.344   7.057  1.3567 -1.1257 -0.7993
  166SAPE   H8Y18755  -0.158  -0.503   7.091 -0.9171 -0.4646  0.6497
  166SAPE   C3918756  -0.298  -0.347   7.164  0.1887  0.3655  0.0360
  166SAPE   H9X18757  -0.391  -0.406   7.156 -0.8271  2.0324 -0.9940
  166SAPE   H9Y18758  -0.333  -0.245   7.140  1.6052  1.0764  0.8483
  166SAPE  C31018759  -0.248  -0.352   7.311 -0.2398 -0.0313  0.4125
  166SAPE  H10X18760  -0.166  -0.280   7.328 -1.6486  1.1955  2.5361
  166SAPE  H10Y18761  -0.199  -0.452   7.310 -0.9753 -0.4269 -2.2238
  166SAPE  C31118762  -0.364  -0.353   7.412  0.4248 -0.4677  0.3426
  166SAPE  H11X18763  -0.443  -0.414   7.362  1.2176  0.8764 -2.8020
  166SAPE  H11Y18764  -0.403  -0.250   7.431 -1.9540 -1.3797  0.7124
  166SAPE  C31218765  -0.323  -0.428   7.543  1.0004  0.4797  0.2101
  166SAPE  H12X18766  -0.267  -0.519   7.510  1.0557  0.1184  1.2794
  166SAPE  H12Y18767  -0.420  -0.453   7.590  0.3097  0.3201 -1.2239
  166SAPE  C31318768  -0.241  -0.355   7.641  0.4151 -0.6934  0.4181
  166SAPE  H13X18769  -0.275  -0.251   7.658 -0.9638 -1.3394  1.8430
  166SAPE  H13Y18770  -0.137  -0.340   7.604  0.1685 -0.9910 -0.4091
  166SAPE  C31418771  -0.226  -0.430   7.768  0.2410 -0.4588  0.1405
  166SAPE  H14X18772  -0.188  -0.532   7.745 -2.2653 -1.0003 -2.1560
  166SAPE  H14Y18773  -0.330  -0.443   7.806  0.5722 -2.3069  0.4928
  166SAPE  C31518774  -0.150  -0.365   7.889  0.6076 -0.5440  0.3245
  166SAPE  H15X18775  -0.198  -0.268   7.916  2.2801 -0.1665  2.2422
  166SAPE  H15Y18776  -0.043  -0.348   7.861  0.3058 -0.7522 -0.9877
  166SAPE  C31618777  -0.158  -0.445   8.018  0.4042 -0.4996 -0.1687
  166SAPE  H16X18778  -0.068  -0.425   8.079  0.4384 -0.8749 -0.0930
  166SAPE  H16Y18779  -0.151  -0.550   7.981 -2.0404 -0.3720 -1.1712
  166SAPE  C31718780  -0.290  -0.431   8.097 -0.4826 -0.3539  0.4421
  166SAPE  H17X18781  -0.375  -0.476   8.042 -0.7932  2.5776 -1.6800
  166SAPE  H17Y18782  -0.309  -0.322   8.102  3.0954  0.3940  0.2824
  166SAPE  C31818783  -0.294  -0.491   8.236 -0.7411  0.5031  0.2447
  166SAPE  H18X18784  -0.398  -0.479   8.272 -0.8241  1.7828 -0.3662
  166SAPE  H18Y18785  -0.218  -0.454   8.308  2.1684  0.3533 -2.5144
  166SAPE  H18Z18786  -0.268  -0.597   8.216  1.0107  1.1800 -1.4442
  167SAPE     N18787   0.656   5.354   5.646 -0.1092 -0.0245 -0.0257
  167SAPE   HN118788   0.737   5.366   5.709  0.6088  1.3600 -1.1439
  167SAPE   HN218789   0.580   5.309   5.702  0.8608 -1.2442  0.3426
  167SAPE   HN318790   0.685   5.300   5.562 -0.8967 -0.5577  0.0284
  167SAPE   C1218791   0.629   5.503   5.618  0.1120 -0.1409 -0.3991
  167SAPE  H12A18792   0.554   5.543   5.689  1.1299  0.0053  0.6163
  167SAPE  H12B18793   0.597   5.510   5.512  0.0519 -1.3561 -0.4774
  167SAPE   C1118794   0.758   5.578   5.628 -0.7395 -0.2404  0.1060
  167SAPE  H11A18795   0.749   5.684   5.595 -1.3251 -0.6137 -0.9640
  167SAPE  H11B18796   0.823   5.531   5.552 -2.3249 -0.5851 -1.0774
  167SAPE     P18797   0.806   5.684   5.866 -0.4897 -0.0442  0.0858
  167SAPE   O1318798   0.772   5.607   5.990 -0.2710 -0.4060  0.7627
  167SAPE   O1418799   0.926   5.769   5.866 -0.1863  0.0671 -0.2642
  167SAPE   O1218800   0.829   5.572   5.752  0.3869  0.1229 -0.5737
  167SAPE   O1118801   0.687   5.768   5.823  0.1510 -0.0226 -0.0943
  167SAPE    C118802   0.623   5.870   5.904  0.6684 -0.3271 -0.9993
  167SAPE    HA18803   0.695   5.935   5.958  2.0666 -2.5224 -0.0853
  167SAPE    HB18804   0.577   5.934   5.826  1.4116 -1.3738 -2.3448
  167SAPE    C218805   0.508   5.815   6.002 -0.6200 -0.3477  0.2773
  167SAPE    HS18806   0.468   5.913   6.039 -1.7849  0.0664 -1.9226
  167SAPE   O2118807   0.557   5.733   6.109  0.2061  0.1687 -0.4414
  167SAPE   C2118808   0.622   5.800   6.204 -0.6542  0.1632 -0.0998
  167SAPE   O2218809   0.625   5.917   6.220 -0.4246  0.2664  0.2530
  167SAPE   C2218810   0.685   5.693   6.299  0.4773 -0.0781 -0.3961
  167SAPE   H2R18811   0.596   5.633   6.328  0.9243 -0.3471  0.4541
  167SAPE   H2S18812   0.764   5.640   6.243 -1.1214 -0.3744 -2.4851
  167SAPE    C318813   0.403   5.734   5.921 -0.0713  0.4761  0.4483
  167SAPE    HX18814   0.438   5.630   5.900 -3.7556 -0.7816 -0.3925
  167SAPE    HY18815   0.389   5.775   5.818 -1.1328  2.0644  1.1952
  167SAPE   O3118816   0.284   5.721   5.998 -0.4140 -0.6473  0.8918
  167SAPE   C3118817   0.205   5.827   5.997 -0.1210  0.1579 -0.1143
  167SAPE   O3218818   0.233   5.931   5.933  0.5857  0.3103  0.4791
  167SAPE   C3218819   0.084   5.800   6.084  0.2224 -0.3737 -0.1905
  167SAPE   H2X18820   0.074   5.690   6.099 -2.4090 -0.5731 -2.5574
  167SAPE   H2Y18821  -0.009   5.823   6.027 -0.0117 -0.6675  0.0649
  167SAPE   C2318822   0.761   5.747   6.423 -0.1381 -0.7855  0.3396
  167SAPE   H3R18823   0.849   5.806   6.390  0.1389  1.4606  4.4613
  167SAPE   H3S18824   0.799   5.665   6.487 -0.3399 -1.3997 -0.3129
  167SAPE   C2418825   0.670   5.830   6.522  0.4690  0.0354 -0.5120
  167SAPE   H4R18826   0.648   5.924   6.467  0.1691 -0.2178 -0.8342
  167SAPE   H4S18827   0.736   5.860   6.605  0.8706 -0.8322 -0.5016
  167SAPE   C2518828   0.541   5.767   6.575  0.0775 -0.5030 -0.5598
  167SAPE   H5R18829   0.454   5.750   6.510  0.1484 -1.2804 -0.4552
  167SAPE   C2618830   0.519   5.725   6.705 -0.1573  0.0761 -0.7299
  167SAPE   H6R18831   0.424   5.677   6.730  0.1477 -0.6465 -0.9311
  167SAPE   C2718832   0.614   5.726   6.822  0.2643 -0.2709  0.2555
  167SAPE   H7R18833   0.716   5.728   6.778  0.4504 -2.8123  0.4271
  167SAPE   H7S18834   0.601   5.628   6.872 -1.4726 -0.8386 -1.1792
  167SAPE   C2818835   0.604   5.831   6.931 -0.2519 -0.0423  0.6454
  167SAPE   H8R18836   0.577   5.927   6.884  0.1055 -0.0395  0.4381
  167SAPE   C2918837   0.581   5.821   7.055  0.1235  0.5525 -0.5755
  167SAPE   H9R18838   0.572   5.903   7.128 -1.6279  0.1148 -0.2495
  167SAPE  C21018839   0.580   5.688   7.128 -0.0235  0.0189  0.0478
  167SAPE  H10R18840   0.635   5.705   7.223  0.2806  2.0591 -0.4365
  167SAPE  H10S18841   0.651   5.625   7.070  2.9866  3.4766 -0.4053
  167SAPE  C21118842   0.444   5.630   7.145  0.0304  0.3176  0.0414
  167SAPE  H11R18843   0.407   5.582   7.053  1.5467 -0.3504 -0.2440
  167SAPE  C21218844   0.386   5.610   7.268 -0.8086 -0.1312  0.3799
  167SAPE  H12R18845   0.290   5.557   7.258 -1.4058  1.1375 -1.0676
  167SAPE  C21318846   0.446   5.639   7.402  0.1986 -0.2514  0.0390
  167SAPE  H13R18847   0.521   5.721   7.395  0.2013 -0.3990 -2.2586
  167SAPE  H13S18848   0.510   5.553   7.429  3.0113  0.7171 -2.8222
  167SAPE  C21418849   0.345   5.662   7.505 -0.3083  0.3288 -0.1041
  167SAPE  H14R18850   0.253   5.703   7.459  0.5283  1.4661 -0.8326
  167SAPE  C21518851   0.356   5.644   7.637 -0.1959  0.7390  0.1713
  167SAPE  H15R18852   0.268   5.642   7.703  1.0609 -0.7428  1.9305
  167SAPE  C21618853   0.478   5.591   7.713  0.1039  1.1430  0.0588
  167SAPE  H16R18854   0.560   5.552   7.649  1.5852  0.5585  2.1827
  167SAPE  H16S18855   0.439   5.501   7.764  0.7456 -0.0143 -1.4335
  167SAPE  C21718856   0.533   5.676   7.820 -0.1824  0.2816 -0.0989
  167SAPE  H17R18857   0.536   5.776   7.773 -1.5029 -0.8519 -2.7860
  167SAPE  H17S18858   0.634   5.635   7.843 -0.0895 -0.5248 -1.7829
  167SAPE  C21818859   0.457   5.689   7.956 -0.6497  0.4109  0.2234
  167SAPE  H18R18860   0.476   5.593   8.010  2.4037  0.1419 -1.1030
  167SAPE  H18S18861   0.349   5.700   7.935 -0.2863  1.8736 -1.1114
  167SAPE  C21918862   0.499   5.818   8.030  0.4566  0.5256  0.2075
  167SAPE  H19R18863   0.445   5.893   7.968  0.1338 -0.4402 -0.7170
  167SAPE  H19S18864   0.609   5.837   8.028  0.4489  0.5569 -0.0495
  167SAPE  C22018865   0.454   5.833   8.176  0.7406 -0.4884 -0.2053
  167SAPE  H20R18866   0.488   5.754   8.246  0.0978  0.9806  1.8484
  167SAPE  H20S18867   0.343   5.837   8.181  0.7902  0.7677  0.1941
  167SAPE  H20T18868   0.487   5.932   8.214 -2.6369  0.6156  0.2074
  167SAPE   C3318869   0.104   5.882   6.211  0.2960 -0.0170  0.1466
  167SAPE   H3X18870   0.009   5.873   6.268 -0.5530 -0.8625 -1.3552
  167SAPE   H3Y18871   0.094   5.985   6.170 -1.5727 -0.7469 -1.4118
  167SAPE   C3418872   0.223   5.859   6.295 -0.0248 -0.7805 -0.7480
  167SAPE   H4X18873   0.317   5.864   6.235  0.4605 -0.3139  0.0402
  167SAPE   H4Y18874   0.209   5.755   6.330 -0.1794 -0.9147 -1.1931
  167SAPE   C3518875   0.233   5.943   6.425 -0.1132  0.2682  0.0249
  167SAPE   H5X18876   0.315   5.896   6.483 -1.0227 -1.5367 -0.0997
  167SAPE   H5Y18877   0.141   5.933   6.486 -0.6006  4.4678  0.2589
  167SAPE   C3618878   0.255   6.089   6.407  0.1330 -0.6702  0.1535
  167SAPE   H6X18879   0.167   6.132   6.355 -0.5613 -0.3987  1.5082
  167SAPE   H6Y18880   0.334   6.110   6.332 -0.0207  0.6750  0.3502
  167SAPE   C3718881   0.257   6.164   6.543  0.6472  0.1268  0.6507
  167SAPE   H7X18882   0.293   6.094   6.622  1.0932 -0.5588 -0.1495
  167SAPE   H7Y18883   0.154   6.202   6.564  0.7003  0.6466  0.0090
  167SAPE   C3818884   0.359   6.279   6.535 -0.0344  0.1391 -0.4348
  167SAPE   H8X18885   0.329   6.363   6.469  1.3417  0.1007 -1.1468
  167SAPE   H8Y18886   0.456   6.244   6.496 -0.3271  0.5255 -1.5385
  167SAPE   C3918887   0.386   6.335   6.675 -0.2067 -0.4289  0.2538
  167SAPE   H9X18888   0.287   6.372   6.708 -0.2091  1.0971 -1.3098
  167SAPE   H9Y18889   0.462   6.415   6.661  0.0751 -0.6393  0.5801
  167SAPE  C31018890   0.449   6.247   6.779  0.2761 -0.3852 -0.1681
  167SAPE  H10X18891   0.546   6.211   6.739  0.7140  2.5199 -2.0000
  167SAPE  H10Y18892   0.373   6.170   6.804 -1.0864  1.5180  1.9070
  167SAPE  C31118893   0.471   6.312   6.924  0.2335  1.2305 -0.4825
  167SAPE  H11X18894   0.381   6.357   6.970  2.0631  3.3654  1.2382
  167SAPE  H11Y18895   0.541   6.398   6.922  2.7963 -0.6761  0.5434
  167SAPE  C31218896   0.523   6.213   7.026 -0.3409  0.2360  0.0458
  167SAPE  H12X18897   0.620   6.188   6.978  0.2925  2.8789 -0.1956
  167SAPE  H12Y18898   0.463   6.120   7.024  2.0020 -1.3750 -0.3659
  167SAPE  C31318899   0.539   6.264   7.169  0.3592 -0.4466 -0.0309
  167SAPE  H13X18900   0.456   6.332   7.198  0.6153 -0.6178  1.1762
  167SAPE  H13Y18901   0.623   6.336   7.167 -0.1174  0.0929 -1.3999
  167SAPE  C31418902   0.577   6.174   7.284 -0.6660  0.1329  0.2584
  167SAPE  H14X18903   0.662   6.105   7.267 -0.1109  0.1505  2.5461
  167SAPE  H14Y18904   0.488   6.117   7.319 -0.1827 -0.0283  1.2762
  167SAPE  C31518905   0.616   6.266   7.402 -0.3335  0.2447 -0.0693
  167SAPE  H15X18906   0.536   6.337   7.433 -1.2057 -2.1559  3.9915
  167SAPE  H15Y18907   0.716   6.313   7.388  0.4814 -1.4691 -0.2978
  167SAPE  C31618908   0.642   6.196   7.532  0.6751  0.0393  0.2146
  167SAPE  H16X18909   0.728   6.126   7.538  1.1937  0.7811  2.3447
  167SAPE  H16Y18910   0.559   6.128   7.563  0.4551 -0.0115 -0.4806
  167SAPE  C31718911   0.632   6.310   7.643  0.3210  0.0953 -0.4924
  167SAPE  H17X18912   0.528   6.334   7.672  0.1879 -1.5790  0.5062
  167SAPE  H17Y18913   0.667   6.401   7.590 -0.1533  1.0069  0.7408
  167SAPE  C31818914   0.714   6.279   7.769 -0.9862  0.1212  0.1386
  167SAPE  H18X18915   0.819   6.311   7.755 -1.5132  2.2510  0.6153
  167SAPE  H18Y18916   0.713   6.168   7.776  0.6672  0.1265  0.8386
  167SAPE  H18Z18917   0.684   6.326   7.865  0.8368  0.1417  0.7266
  168SAPE     N18918   1.232   0.039   6.179 -0.0559  0.0345 -0.0206
  168SAPE   HN118919   1.190   0.112   6.239  1.4417  2.3981 -1.6618
  168SAPE   HN218920   1.215   0.057   6.078  2.0357  1.4706 -0.1914
  168SAPE   HN318921   1.200  -0.053   6.215  0.4438  0.2664  1.0386
  168SAPE   C1218922   1.380   0.034   6.213  0.1766 -0.1152  0.3833
  168SAPE  H12A18923   1.427   0.134   6.224  0.3880  0.3212 -3.3929
  168SAPE  H12B18924   1.432  -0.012   6.126  3.5713  2.9821  0.5640
  168SAPE   C1118925   1.399  -0.050   6.341  0.1499  0.6837 -0.5992
  168SAPE  H11A18926   1.508  -0.067   6.357 -0.3118 -1.1804  0.9668
  168SAPE  H11B18927   1.372  -0.156   6.319  0.6531  0.8263 -2.0490
  168SAPE     P18928   1.415   0.059   6.576 -0.0916 -0.4247 -0.3189
  168SAPE   O1318929   1.545   0.127   6.536  0.4351 -0.1296 -0.2532
  168SAPE   O1418930   1.323   0.139   6.654  0.5933 -0.1684  0.0416
  168SAPE   O1218931   1.332   0.003   6.451  0.1346  0.0902 -0.2378
  168SAPE   O1118932   1.467  -0.072   6.650  0.2206  0.1975 -0.4584
  168SAPE    C118933   1.379  -0.173   6.695 -0.1489  0.9575  1.1196
  168SAPE    HA18934   1.273  -0.157   6.666  0.0935  1.4704  0.4797
  168SAPE    HB18935   1.411  -0.265   6.641 -2.0894 -0.1156  1.7305
  168SAPE    C218936   1.365  -0.186   6.848 -0.2670  0.2508 -0.0279
  168SAPE    HS18937   1.288  -0.265   6.861  1.6709 -2.0716 -1.7990
  168SAPE   O2118938   1.319  -0.060   6.905 -0.4839 -0.1934 -0.1551
  168SAPE   C2118939   1.195  -0.031   6.893  1.5132 -0.1055  0.4648
  168SAPE   O2218940   1.110  -0.097   6.840 -0.3048  0.4253 -0.5095
  168SAPE   C2218941   1.173   0.109   6.945 -0.5040 -0.0362  0.8198
  168SAPE   H2R18942   1.271   0.152   6.976 -0.2319  0.0814 -0.1625
  168SAPE   H2S18943   1.134   0.168   6.860 -0.3577 -0.5290  0.4014
  168SAPE    C318944   1.492  -0.234   6.907 -0.1148 -0.1769  0.2820
  168SAPE    HX18945   1.567  -0.155   6.885  1.4321 -1.1387  1.8288
  168SAPE    HY18946   1.520  -0.329   6.856  0.8087  0.9457 -1.4063
  168SAPE   O3118947   1.480  -0.258   7.045  0.0193  0.4496 -0.5781
  168SAPE   C3118948   1.581  -0.325   7.095  0.1148 -0.0369  0.0224
  168SAPE   O3218949   1.670  -0.378   7.033 -0.4396  0.7045 -0.2309
  168SAPE   C3218950   1.573  -0.339   7.246 -0.3098  0.5148  0.0059
  168SAPE   H2X18951   1.531  -0.244   7.284  0.2985  0.5859  0.5141
  168SAPE   H2Y18952   1.671  -0.346   7.297 -0.0506 -2.6107 -0.6997
  168SAPE   C2318953   1.049   0.106   7.042  0.4259 -0.3273 -0.4005
  168SAPE   H3R18954   0.950   0.081   6.999  1.3228 -5.5874 -0.0820
  168SAPE   H3S18955   1.048   0.214   7.071 -2.5249  0.4947 -2.9881
  168SAPE   C2418956   1.066   0.011   7.168  0.5172 -0.0380 -0.4663
  168SAPE   H4R18957   1.051  -0.098   7.151 -0.4903 -0.5143  2.6534
  168SAPE   H4S18958   0.987   0.044   7.238  0.1230  2.0288 -1.8070
  168SAPE   C2518959   1.191   0.035   7.247  0.1337 -0.1994  0.7488
  168SAPE   H5R18960   1.281  -0.007   7.200 -1.0038 -1.4863 -0.4064
  168SAPE   C2618961   1.210   0.075   7.376 -0.4938 -0.7316  0.5258
  168SAPE   H6R18962   1.314   0.085   7.410  0.9627  2.0727 -3.9489
  168SAPE   C2718963   1.104   0.118   7.479 -0.4737 -0.4893  0.3912
  168SAPE   H7R18964   1.144   0.095   7.580 -0.4797  2.4834  1.1607
  168SAPE   H7S18965   1.021   0.046   7.462 -0.6799  0.0052 -0.7360
  168SAPE   C2818966   1.062   0.260   7.475 -1.0584 -0.4976  0.2318
  168SAPE   H8R18967   1.061   0.294   7.371  1.5888 -1.2930 -0.1214
  168SAPE   C2918968   1.030   0.353   7.573 -0.5699 -0.7185  0.3847
  168SAPE   H9R18969   1.019   0.458   7.542  1.4952 -0.1867  1.3066
  168SAPE  C21018970   1.031   0.323   7.717  0.0424  0.0833  0.3982
  168SAPE  H10R18971   0.983   0.225   7.737  3.0824 -1.9091 -1.3269
  168SAPE  H10S18972   0.975   0.405   7.766  3.3985  1.8927  1.5069
  168SAPE  C21118973   1.162   0.333   7.791 -0.3894  0.7191  0.7436
  168SAPE  H11R18974   1.243   0.385   7.737 -0.0526 -1.1712 -0.6719
  168SAPE  C21218975   1.186   0.287   7.915 -0.5845 -0.4331  0.2594
  168SAPE  H12R18976   1.288   0.284   7.956 -0.5534 -2.0258  0.1241
  168SAPE  C21318977   1.072   0.222   7.999 -0.0969  0.2993  0.1437
  168SAPE  H13R18978   1.116   0.161   8.081 -2.3583 -0.5712  0.7761
  168SAPE  H13S18979   1.022   0.145   7.936 -3.4037  2.0851  0.3874
  168SAPE  C21418980   0.971   0.313   8.066 -0.3499 -0.2221  0.2976
  168SAPE  H14R18981   0.867   0.299   8.032  0.4845 -3.0760 -1.4502
  168SAPE  C21518982   0.999   0.406   8.156  0.1777  0.4676  0.0124
  168SAPE  H15R18983   0.915   0.461   8.201 -0.6639  0.7908 -1.8287
  168SAPE  C21618984   1.128   0.432   8.222 -0.0292  0.7563  0.7035
  168SAPE  H16R18985   1.120   0.537   8.257  0.3639  1.0532 -0.0621
  168SAPE  H16S18986   1.212   0.442   8.150  0.5607  0.2006  1.3084
  168SAPE  C21718987   1.177   0.326   8.323  0.1817 -0.0600 -0.1735
  168SAPE  H17R18988   1.224   0.249   8.258  0.0015 -0.0271 -0.3428
  168SAPE  H17S18989   1.094   0.284   8.383  0.5756  2.8964  2.7267
  168SAPE  C21818990   1.268   0.385   8.430  0.7371 -0.6383 -0.8575
  168SAPE  H18R18991   1.342   0.453   8.383  0.2609  0.7113  0.2759
  168SAPE  H18S18992   1.316   0.298   8.478  0.0188 -0.6711 -0.1865
  168SAPE  C21918993   1.183   0.471   8.530 -0.0916  0.0141 -0.7590
  168SAPE  H19R18994   1.116   0.407   8.591 -0.3285  0.3430 -0.6750
  168SAPE  H19S18995   1.120   0.540   8.471  0.9142  0.3143 -1.5184
  168SAPE  C22018996   1.275   0.554   8.614  0.4670  0.4157 -0.4117
  168SAPE  H20R18997   1.353   0.493   8.664  1.2019  1.0575 -0.7514
  168SAPE  H20S18998   1.220   0.615   8.689  0.4575 -2.4531  2.1012
  168SAPE  H20T18999   1.339   0.619   8.550  0.1256  0.9369 -0.2317
  168SAPE   C3319000   1.481  -0.454   7.295 -0.6015 -0.2175 -0.1339
  168SAPE   H3X19001   1.545  -0.544   7.311 -1.3183 -0.7251 -0.0644
  168SAPE   H3Y19002   1.401  -0.489   7.226 -0.2116 -2.0165  0.2787
  168SAPE   C3419003   1.419  -0.407   7.428  0.5786 -0.1232 -0.6320
  168SAPE   H4X19004   1.339  -0.481   7.449 -1.3402  1.4179 -2.1438
  168SAPE   H4Y19005   1.370  -0.312   7.397 -0.4755 -0.5143 -0.1913
  168SAPE   C3519006   1.515  -0.382   7.542  0.5701  0.0749  0.2220
  168SAPE   H5X19007   1.603  -0.320   7.517  0.2641  0.5825  0.3912
  168SAPE   H5Y19008   1.557  -0.480   7.574 -1.1611 -1.3888 -1.7351
  168SAPE   C3619009   1.447  -0.308   7.658 -0.3771 -0.4239  0.1161
  168SAPE   H6X19010   1.384  -0.391   7.699 -0.5905 -0.6043 -0.5685
  168SAPE   H6Y19011   1.393  -0.218   7.623  1.9086  0.5175 -1.1629
  168SAPE   C3719012   1.542  -0.270   7.765  0.1541  0.5327 -0.1284
  168SAPE   H7X19013   1.612  -0.192   7.729 -0.3764  1.5428  0.9730
  168SAPE   H7Y19014   1.607  -0.358   7.782 -0.6511 -0.5834 -2.3847
  168SAPE   C3819015   1.483  -0.218   7.890 -0.0409 -0.1182  0.0265
  168SAPE   H8X19016   1.401  -0.287   7.919 -0.3027  0.3688  0.4586
  168SAPE   H8Y19017   1.457  -0.110   7.886  1.1551  0.2588  1.5720
  168SAPE   C3919018   1.589  -0.227   8.006 -0.5240  0.0217  0.4468
  168SAPE   H9X19019   1.624  -0.332   8.012  0.2481  0.1381 -1.3830
  168SAPE   H9Y19020   1.538  -0.196   8.100  0.6363  1.7860  0.5541
  168SAPE  C31019021   1.723  -0.157   7.982  0.7683 -0.0313 -0.7394
  168SAPE  H10X19022   1.701  -0.057   7.938 -0.0651 -0.0346 -0.3537
  168SAPE  H10Y19023   1.788  -0.201   7.903  0.9311 -0.7746 -0.2042
  168SAPE  C31119024   1.799  -0.139   8.115 -0.2673 -0.1036 -0.1864
  168SAPE  H11X19025   1.726  -0.085   8.179 -1.6396 -0.0779 -1.7232
  168SAPE  H11Y19026   1.894  -0.083   8.100 -0.3264 -0.0436 -0.3320
  168SAPE  C31219027   1.839  -0.270   8.177 -0.4013 -0.1151 -0.0571
  168SAPE  H12X19028   1.913  -0.321   8.111  1.1401  1.0982  0.6468
  168SAPE  H12Y19029   1.743  -0.324   8.191 -0.8860  0.9685  1.0472
  168SAPE  C31319030   1.909  -0.260   8.317 -0.8062  0.4142 -0.0316
  168SAPE  H13X19031   1.902  -0.158   8.360 -0.3771  0.5678 -0.3161
  168SAPE  H13Y19032   2.017  -0.280   8.303 -0.8578 -0.7985  1.1775
  168SAPE  C31419033   1.864  -0.357   8.435 -0.4039 -0.5466 -0.2742
  168SAPE  H14X19034   1.923  -0.451   8.437  0.9231  0.2282  2.4195
  168SAPE  H14Y19035   1.754  -0.372   8.437 -0.5465  0.4765  0.2162
  168SAPE  C31519036   1.904  -0.288   8.569 -0.7376 -0.0691 -0.0669
  168SAPE  H15X19037   1.842  -0.198   8.588  2.2043  2.6390 -2.2683
  168SAPE  H15Y19038   2.005  -0.251   8.545 -0.3136 -1.0588  0.1288
  168SAPE  C31619039   1.907  -0.390   8.687  0.5692 -0.1281  0.2362
  168SAPE  H16X19040   1.951  -0.490   8.667 -0.1747 -0.4397  0.1206
  168SAPE  H16Y19041   1.803  -0.420   8.709  0.0258  0.6733 -1.1316
  168SAPE  C31719042   1.965  -0.327   8.805 -0.8386  0.4875 -0.4362
  168SAPE  H17X19043   1.932  -0.361   8.905 -0.1134  0.2744 -0.2651
  168SAPE  H17Y19044   1.954  -0.217   8.816 -1.2021  0.3828  0.3108
  168SAPE  C31819045   2.114  -0.355   8.811  0.7413 -0.3977  0.7993
  168SAPE  H18X19046   2.135  -0.433   8.887  1.7307 -1.1183 -0.1803
  168SAPE  H18Y19047   2.166  -0.267   8.855 -0.2121  0.3929  0.3812
  168SAPE  H18Z19048   2.148  -0.402   8.716 -1.0996 -2.2640  0.9921
  169SAPE     N19049   1.351   4.018   5.963 -0.1140 -0.1198 -0.4157
  169SAPE   HN119050   1.343   4.033   6.066 -0.8165 -0.2156 -0.4489
  169SAPE   HN219051   1.445   4.049   5.930 -0.6113  1.6620 -0.2783
  169SAPE   HN319052   1.276   4.061   5.904 -0.6739 -0.3319  0.1366
  169SAPE   C1219053   1.330   3.870   5.952  0.5364  0.3751 -0.3405
  169SAPE  H12A19054   1.394   3.832   6.034 -0.9008  0.4943  0.8936
  169SAPE  H12B19055   1.378   3.833   5.859  1.7385  0.9557  0.0390
  169SAPE   C1119056   1.180   3.827   5.977 -0.3938  0.1459 -0.0550
  169SAPE  H11A19057   1.190   3.719   6.002 -0.3331 -0.2053 -1.5183
  169SAPE  H11B19058   1.132   3.830   5.877  0.9634 -0.1852 -0.7298
  169SAPE     P19059   1.079   3.861   6.223  0.0534  0.4540  0.4008
  169SAPE   O1319060   1.032   3.979   6.294 -0.5270 -0.9163 -0.5426
  169SAPE   O1419061   0.972   3.757   6.200 -0.2611  0.2248  0.4634
  169SAPE   O1219062   1.122   3.907   6.080  0.1801  0.1749  0.1908
  169SAPE   O1119063   1.210   3.803   6.282  0.2607 -0.4458 -0.2352
  169SAPE    C119064   1.236   3.669   6.311  0.3899 -0.5924  0.0289
  169SAPE    HA19065   1.232   3.608   6.219  0.2095 -1.7323  0.7751
  169SAPE    HB19066   1.344   3.670   6.336  0.4282 -1.1475 -0.1166
  169SAPE    C219067   1.167   3.614   6.438  0.1082  0.7138  0.9517
  169SAPE    HS19068   1.061   3.607   6.405  0.4942 -0.0206 -0.1779
  169SAPE   O2119069   1.187   3.701   6.550 -0.0932 -0.1380  0.1832
  169SAPE   C2119070   1.080   3.731   6.621  0.5154 -0.5216  0.9413
  169SAPE   O2219071   0.967   3.684   6.608 -0.7346 -0.1442 -0.3907
  169SAPE   C2219072   1.120   3.848   6.710  0.3034 -0.0006  0.7019
  169SAPE   H2R19073   1.194   3.807   6.782 -0.3668 -1.6590  0.4990
  169SAPE   H2S19074   1.164   3.927   6.645 -1.3101  0.8756  0.6222
  169SAPE    C319075   1.210   3.469   6.470  0.0851  0.0973 -0.0467
  169SAPE    HX19076   1.314   3.462   6.509 -0.0235  1.9640  0.6564
  169SAPE    HY19077   1.215   3.407   6.378  1.0091 -1.0280  0.7332
  169SAPE   O3119078   1.124   3.412   6.567 -0.1896 -0.0352 -0.2361
  169SAPE   C3119079   1.019   3.350   6.516  1.3090 -0.9232  0.1547
  169SAPE   O3219080   0.990   3.356   6.398 -0.6634  0.7891 -0.7506
  169SAPE   C3219081   0.937   3.273   6.622 -0.1008  0.3746 -0.0549
  169SAPE   H2X19082   0.992   3.178   6.637 -0.7893  0.0391  0.4058
  169SAPE   H2Y19083   0.834   3.261   6.582 -0.1164  1.2830 -0.3128
  169SAPE   C2319084   1.002   3.930   6.771 -0.6008 -0.3233 -0.2017
  169SAPE   H3R19085   0.937   3.961   6.687  4.0663 -0.5607 -4.3609
  169SAPE   H3S19086   1.053   4.016   6.820 -0.1154  0.3870 -1.8915
  169SAPE   C2419087   0.923   3.852   6.878  0.1808  0.3227 -0.0598
  169SAPE   H4R19088   0.855   3.779   6.827 -2.9140  1.9665  1.4363
  169SAPE   H4S19089   0.849   3.916   6.930 -0.3522  0.8701 -1.4367
  169SAPE   C2519090   1.012   3.775   6.977  0.5001  0.1077 -0.3098
  169SAPE   H5R19091   1.014   3.667   6.959 -0.8235  0.1022 -0.5868
  169SAPE   C2619092   1.068   3.826   7.090  0.6013  0.1655  0.1636
  169SAPE   H6R19093   1.138   3.763   7.148  1.1911  1.0301  0.4232
  169SAPE   C2719094   1.059   3.970   7.136 -0.2020 -0.0505 -0.0459
  169SAPE   H7R19095   1.055   4.031   7.043 -2.9797  1.5399  0.9754
  169SAPE   H7S19096   1.155   3.999   7.185 -0.2559  1.4038 -0.7538
  169SAPE   C2819097   0.935   4.008   7.218 -0.2652 -1.0885  0.1883
  169SAPE   H8R19098   0.849   4.019   7.150  1.2551 -0.7843 -1.7847
  169SAPE   C2919099   0.914   4.007   7.346  0.2982 -0.3050 -0.1375
  169SAPE   H9R19100   0.813   4.026   7.387 -0.1681  1.2218 -1.8474
  169SAPE  C21019101   1.014   3.980   7.450 -0.2608 -0.4385 -0.2429
  169SAPE  H10R19102   0.988   4.048   7.535  0.0557 -1.2163  0.4958
  169SAPE  H10S19103   1.112   4.001   7.404 -1.1457  0.2182 -1.9226
  169SAPE  C21119104   1.022   3.835   7.495 -0.4109 -0.1047  0.5000
  169SAPE  H11R19105   1.037   3.756   7.420 -2.7816 -0.9915  0.8716
  169SAPE  C21219106   0.995   3.799   7.618  0.1666  0.0313 -0.0836
  169SAPE  H12R19107   1.010   3.693   7.643 -1.4443 -0.8504 -2.5020
  169SAPE  C21319108   0.955   3.902   7.729  0.0987  0.8532  0.2282
  169SAPE  H13R19109   0.873   3.969   7.695 -0.9298 -0.9801 -1.0783
  169SAPE  H13S19110   1.043   3.968   7.742 -0.0560  0.9610  0.7475
  169SAPE  C21419111   0.900   3.835   7.855 -0.0235  0.1298 -0.6406
  169SAPE  H14R19112   0.792   3.846   7.872  0.1203 -0.1264  0.5126
  169SAPE  C21519113   0.976   3.773   7.951 -0.0168 -0.3268 -0.2829
  169SAPE  H15R19114   0.927   3.747   8.046  1.7005 -0.2524  0.6513
  169SAPE  C21619115   1.127   3.755   7.951  0.3470 -0.7353  0.0467
  169SAPE  H16R19116   1.163   3.821   8.033  1.7078 -1.2600 -0.0994
  169SAPE  H16S19117   1.166   3.782   7.851  2.4001 -2.4774  0.3021
  169SAPE  C21719118   1.175   3.611   7.979 -0.3249 -0.2334 -0.2876
  169SAPE  H17R19119   1.283   3.613   7.954 -0.4915  4.7348 -1.7139
  169SAPE  H17S19120   1.119   3.543   7.913  0.7117  1.0558 -2.6170
  169SAPE  C21819121   1.154   3.576   8.124 -1.1583  0.2720 -1.1083
  169SAPE  H18R19122   1.050   3.596   8.159 -0.7153  1.9239 -0.6390
  169SAPE  H18S19123   1.214   3.644   8.189 -1.2131 -1.5773  1.0052
  169SAPE  C21919124   1.200   3.438   8.167 -0.7838 -0.4894  0.3348
  169SAPE  H19R19125   1.304   3.418   8.133 -1.2512 -0.3680 -1.2650
  169SAPE  H19S19126   1.136   3.358   8.124 -1.1857 -1.3317  2.3935
  169SAPE  C22019127   1.199   3.407   8.316 -0.4404 -0.8143  0.3162
  169SAPE  H20R19128   1.227   3.301   8.331  1.4096 -0.4660 -0.4214
  169SAPE  H20S19129   1.101   3.429   8.363  0.8533  3.7052  1.3915
  169SAPE  H20T19130   1.265   3.480   8.368 -0.5395 -0.7520  0.3574
  169SAPE   C3319131   0.926   3.339   6.768  0.1697  0.0572  0.9384
  169SAPE   H3X19132   0.830   3.395   6.770  0.1459  0.0137  1.0140
  169SAPE   H3Y19133   1.010   3.406   6.794  1.0889 -1.6227  2.5394
  169SAPE   C3419134   0.919   3.223   6.874  0.1651 -0.4028  0.0058
  169SAPE   H4X19135   1.012   3.164   6.862  0.0427 -0.3449 -1.4373
  169SAPE   H4Y19136   0.839   3.154   6.841 -1.0543 -0.3511  2.5957
  169SAPE   C3519137   0.898   3.278   7.011 -0.1738 -0.1123  0.4636
  169SAPE   H5X19138   0.844   3.204   7.074  0.3118  2.0396  3.6301
  169SAPE   H5Y19139   0.831   3.366   6.995 -1.3506 -0.6519  2.1029
  169SAPE   C3619140   1.022   3.329   7.090 -0.0077 -0.5504 -0.2392
  169SAPE   H6X19141   1.086   3.386   7.018 -0.9585 -0.3182 -0.9259
  169SAPE   H6Y19142   1.068   3.232   7.119  1.7255  0.7220  1.5432
  169SAPE   C3719143   0.986   3.412   7.215 -0.0519 -0.2054  0.4626
  169SAPE   H7X19144   0.909   3.489   7.192 -1.4307 -1.2114  1.5827
  169SAPE   H7Y19145   1.071   3.476   7.246 -0.5037  0.6509 -0.0174
  169SAPE   C3819146   0.926   3.334   7.331  0.1730  0.3655  0.5091
  169SAPE   H8X19147   0.991   3.246   7.349  1.0938  0.8792 -0.1736
  169SAPE   H8Y19148   0.824   3.308   7.296 -0.0313  0.7358  0.8205
  169SAPE   C3919149   0.918   3.417   7.456 -0.0603 -1.2136 -0.3769
  169SAPE   H9X19150   0.863   3.513   7.443 -0.1037 -1.3911 -1.6099
  169SAPE   H9Y19151   1.020   3.438   7.494  0.6287 -1.3127 -2.0808
  169SAPE  C31019152   0.845   3.334   7.568  0.1936 -0.5248  0.0290
  169SAPE  H10X19153   0.896   3.235   7.572  1.0281 -0.0780  2.7645
  169SAPE  H10Y19154   0.740   3.318   7.538 -0.6334  2.3054  1.1286
  169SAPE  C31119155   0.868   3.403   7.700 -0.4268  0.1256 -0.5701
  169SAPE  H11X19156   0.838   3.509   7.706  0.3047  0.3719 -1.1506
  169SAPE  H11Y19157   0.976   3.408   7.727 -0.2240 -0.4882 -1.2216
  169SAPE  C31219158   0.800   3.326   7.819 -0.7055  0.2126 -0.2099
  169SAPE  H12X19159   0.797   3.216   7.798  0.5365 -0.4159  2.5660
  169SAPE  H12Y19160   0.699   3.361   7.847 -0.5255  0.7635 -0.2448
  169SAPE  C31319161   0.879   3.349   7.958  0.4022  0.5538 -0.0469
  169SAPE  H13X19162   0.897   3.459   7.966 -4.1704  1.4238  1.3496
  169SAPE  H13Y19163   0.973   3.293   7.945 -0.2928 -0.4148 -1.1172
  169SAPE  C31419164   0.799   3.290   8.073 -0.4874 -0.6866 -0.0714
  169SAPE  H14X19165   0.781   3.185   8.040 -0.3596 -0.4936 -0.7515
  169SAPE  H14Y19166   0.696   3.329   8.089 -1.2418 -3.4455  2.8826
  169SAPE  C31519167   0.868   3.305   8.213 -0.0339 -0.5917  0.4948
  169SAPE  H15X19168   0.913   3.406   8.215 -0.8036 -0.2233 -0.0707
  169SAPE  H15Y19169   0.951   3.232   8.213 -1.5565 -2.4628  2.1266
  169SAPE  C31619170   0.771   3.282   8.330 -0.6328  0.3925  0.3395
  169SAPE  H16X19171   0.735   3.180   8.309 -1.3287  0.6093  0.4614
  169SAPE  H16Y19172   0.688   3.356   8.332  0.2211  1.3906 -0.1609
  169SAPE  C31719173   0.849   3.309   8.463 -0.4384 -0.0886 -0.4693
  169SAPE  H17X19174   0.781   3.336   8.546  1.0041 -0.3953  0.8414
  169SAPE  H17Y19175   0.906   3.402   8.442 -0.4379  0.5539  2.0677
  169SAPE  C31819176   0.952   3.202   8.487  0.0464 -0.4154 -0.0525
  169SAPE  H18X19177   1.021   3.186   8.401 -0.8745  0.4109 -0.9643
  169SAPE  H18Y19178   0.889   3.111   8.496  1.7694 -1.6477  0.1902
  169SAPE  H18Z19179   1.010   3.213   8.581 -0.0901  3.0611 -0.2440
  170SAPE     N19180   1.165   0.986   6.135  0.1755  0.7749 -0.2211
  170SAPE   HN119181   1.182   1.089   6.137 -1.1225  1.0066 -0.2249
  170SAPE   HN219182   1.250   0.930   6.114 -0.3905 -0.3940  0.5116
  170SAPE   HN319183   1.104   0.968   6.053  0.4662 -0.8670 -0.1075
  170SAPE   C1219184   1.115   0.941   6.270 -0.6097  0.4526  0.3203
  170SAPE  H12A19185   1.010   0.974   6.283 -0.7695  0.8988 -1.8164
  170SAPE  H12B19186   1.178   0.982   6.351 -0.2739 -1.5194  1.1308
  170SAPE   C1119187   1.141   0.791   6.261  0.1413 -1.1834  0.3209
  170SAPE  H11A19188   1.124   0.743   6.360  0.9616 -1.9926  0.0715
  170SAPE  H11B19189   1.250   0.777   6.250  0.4842  0.1906  1.5420
  170SAPE     P19190   0.916   0.660   6.209  0.0007  0.0418  0.2744
  170SAPE   O1319191   0.808   0.754   6.169  0.5307 -0.5476 -0.0175
  170SAPE   O1419192   0.922   0.520   6.148  0.4476 -0.0681  0.0083
  170SAPE   O1219193   1.051   0.731   6.164  0.3052  0.2290 -0.3887
  170SAPE   O1119194   0.933   0.657   6.371  0.5785 -0.4804 -0.1094
  170SAPE    C119195   0.851   0.749   6.445  0.1298 -0.0100  0.1828
  170SAPE    HA19196   0.890   0.852   6.434 -0.5399  0.3263  0.8299
  170SAPE    HB19197   0.748   0.759   6.405  0.0976 -2.5072 -0.5380
  170SAPE    C219198   0.849   0.709   6.598  0.2736  0.2727 -0.0158
  170SAPE    HS19199   0.799   0.791   6.654  2.1252  1.0689  0.5535
  170SAPE   O2119200   0.984   0.693   6.646 -0.0233  0.1174  0.6955
  170SAPE   C2119201   1.058   0.804   6.645  0.1312 -0.4071 -0.1779
  170SAPE   O2219202   1.016   0.917   6.622 -0.1060  0.0537  0.4652
  170SAPE   C2219203   1.200   0.768   6.685  0.3325  0.0386  0.1570
  170SAPE   H2R19204   1.219   0.660   6.668 -0.7262 -0.4164  1.6922
  170SAPE   H2S19205   1.266   0.831   6.621  0.0023 -0.1042 -0.3270
  170SAPE    C319206   0.761   0.579   6.630 -0.0983 -0.7978  0.0174
  170SAPE    HX19207   0.816   0.491   6.590  0.4466 -0.0159 -1.0081
  170SAPE    HY19208   0.663   0.596   6.582  0.7083  0.6676 -1.1965
  170SAPE   O3119209   0.741   0.575   6.777 -0.0302  0.2181  0.2922
  170SAPE   C3119210   0.789   0.468   6.835  0.3770  0.2768 -1.0094
  170SAPE   O3219211   0.819   0.363   6.779  0.1533 -0.2312 -0.5489
  170SAPE   C3219212   0.768   0.494   6.982 -0.2182  0.3588  0.9969
  170SAPE   H2X19213   0.659   0.511   6.997 -0.2111  1.7229 -0.2389
  170SAPE   H2Y19214   0.826   0.585   7.012  2.3784 -1.1900  0.9649
  170SAPE   C2319215   1.229   0.815   6.832  0.8249  0.0433 -0.1228
  170SAPE   H3R19216   1.231   0.925   6.838  0.8751 -0.0116  0.9183
  170SAPE   H3S19217   1.332   0.784   6.863 -0.5380 -2.3034  2.5574
  170SAPE   C2419218   1.138   0.767   6.947  0.2783 -0.0227 -0.1257
  170SAPE   H4R19219   1.030   0.792   6.933  0.4044  1.7457  1.6912
  170SAPE   H4S19220   1.172   0.836   7.027  3.3151  0.6578 -1.8548
  170SAPE   C2519221   1.166   0.622   6.984 -0.0734  0.3738  0.3830
  170SAPE   H5R19222   1.179   0.551   6.900 -1.8400 -0.6249  0.8874
  170SAPE   C2619223   1.176   0.573   7.110  0.3766  0.3682  0.1447
  170SAPE   H6R19224   1.212   0.470   7.128  2.0403  1.0717  1.1563
  170SAPE   C2719225   1.175   0.650   7.239  0.4666 -0.4701 -0.6949
  170SAPE   H7R19226   1.113   0.591   7.310  1.7906  1.0830  1.8835
  170SAPE   H7S19227   1.121   0.746   7.224  0.7701 -0.4904 -2.0878
  170SAPE   C2819228   1.306   0.676   7.309 -0.5688 -0.6159  0.6005
  170SAPE   H8R19229   1.393   0.657   7.245  0.7189  0.7820  1.8828
  170SAPE   C2919230   1.322   0.705   7.439  0.2774  0.2486 -0.1988
  170SAPE   H9R19231   1.420   0.727   7.485 -0.5801  0.4056  1.6149
  170SAPE  C21019232   1.206   0.725   7.537  0.4606 -0.3903 -0.0179
  170SAPE  H10R19233   1.222   0.659   7.624 -1.5268  0.5656  1.1371
  170SAPE  H10S19234   1.106   0.693   7.503 -0.2559  0.3465  1.3234
  170SAPE  C21119235   1.194   0.870   7.572 -0.1138  0.6963  0.9833
  170SAPE  H11R19236   1.126   0.923   7.503 -1.0813 -1.0209  0.5542
  170SAPE  C21219237   1.241   0.932   7.676  0.5825 -0.0763  0.3015
  170SAPE  H12R19238   1.236   1.042   7.666 -0.4543 -0.3032 -3.1908
  170SAPE  C21319239   1.325   0.876   7.792  0.4849 -0.0916  0.3865
  170SAPE  H13R19240   1.391   0.954   7.836  2.4023 -0.3975 -1.7981
  170SAPE  H13S19241   1.398   0.801   7.755 -0.4188 -0.1730 -1.3077
  170SAPE  C21419242   1.237   0.804   7.896 -0.1788 -0.3423 -0.2806
  170SAPE  H14R19243   1.131   0.832   7.888  0.2736  1.6101  0.1361
  170SAPE  C21519244   1.274   0.708   7.983  0.0586 -0.6062 -0.2072
  170SAPE  H15R19245   1.197   0.656   8.041  0.6323 -0.9892  0.2202
  170SAPE  C21619246   1.413   0.650   7.994 -0.0978  0.1326  0.2128
  170SAPE  H16R19247   1.478   0.697   7.917 -2.1609  1.1519 -1.0001
  170SAPE  H16S19248   1.402   0.543   7.965  1.2268  0.4046 -1.4793
  170SAPE  C21719249   1.483   0.650   8.129  0.1766 -0.0656  0.6026
  170SAPE  H17R19250   1.589   0.623   8.145  1.1544  3.1648  0.2707
  170SAPE  H17S19251   1.418   0.583   8.190 -2.0312 -1.4059 -2.8853
  170SAPE  C21819252   1.473   0.789   8.205  0.2727  0.4740 -0.1411
  170SAPE  H18R19253   1.522   0.782   8.305 -0.0982  1.5572  0.1221
  170SAPE  H18S19254   1.365   0.811   8.219  0.3159  0.9099 -0.4740
  170SAPE  C21919255   1.537   0.898   8.125 -0.0981 -0.9175  0.0507
  170SAPE  H19R19256   1.481   0.932   8.035 -0.0191  0.9816  0.6597
  170SAPE  H19S19257   1.644   0.876   8.105  0.0563 -0.2592  0.1201
  170SAPE  C22019258   1.535   1.042   8.200  0.1830  0.7669 -0.5849
  170SAPE  H20R19259   1.561   1.013   8.304 -1.4813 -1.5001 -0.7224
  170SAPE  H20S19260   1.438   1.096   8.198  0.5444  1.4421 -0.2629
  170SAPE  H20T19261   1.614   1.105   8.155  0.8476 -0.6356 -1.4721
  170SAPE   C3319262   0.810   0.367   7.058  0.1295  0.0140  0.3525
  170SAPE   H3X19263   0.911   0.333   7.028  0.1793 -0.6369  1.2435
  170SAPE   H3Y19264   0.739   0.284   7.038 -1.3834  1.4515 -0.4992
  170SAPE   C3419265   0.804   0.387   7.206 -0.1420 -0.6026  0.1727
  170SAPE   H4X19266   0.867   0.473   7.238 -0.1837 -0.3252 -0.4798
  170SAPE   H4Y19267   0.863   0.299   7.241  0.8161 -0.1759 -0.3371
  170SAPE   C3519268   0.670   0.385   7.269  0.0472 -0.4632 -0.7380
  170SAPE   H5X19269   0.627   0.285   7.245 -0.6024 -0.1671 -0.8437
  170SAPE   H5Y19270   0.602   0.462   7.227  0.9893  0.6575 -0.2326
  170SAPE   C3619271   0.651   0.410   7.419 -0.6709  0.6775 -0.4090
  170SAPE   H6X19272   0.698   0.324   7.471 -1.1675 -0.2034 -1.3766
  170SAPE   H6Y19273   0.541   0.397   7.432 -1.0918  0.5876 -3.2821
  170SAPE   C3719274   0.724   0.536   7.473  0.6594  0.3988 -0.2584
  170SAPE   H7X19275   0.695   0.632   7.426 -1.0503 -1.0562 -2.4003
  170SAPE   H7Y19276   0.833   0.521   7.454  0.4283 -0.2318 -1.1714
  170SAPE   C3819277   0.701   0.550   7.624 -1.0098  0.4405 -0.0195
  170SAPE   H8X19278   0.732   0.455   7.671  0.3455  1.4975  1.3080
  170SAPE   H8Y19279   0.593   0.564   7.647 -1.4995 -0.2481 -1.6984
  170SAPE   C3919280   0.766   0.667   7.691 -0.1665 -0.0220 -0.2909
  170SAPE   H9X19281   0.739   0.766   7.648 -0.1333  0.9631  1.8242
  170SAPE   H9Y19282   0.876   0.660   7.674 -0.2850  0.2962 -1.2477
  170SAPE  C31019283   0.732   0.679   7.845 -0.1840 -0.4653 -0.1565
  170SAPE  H10X19284   0.749   0.580   7.892  0.3216 -1.1252 -1.6896
  170SAPE  H10Y19285   0.626   0.714   7.851  0.1484  0.5540 -0.0640
  170SAPE  C31119286   0.817   0.784   7.922 -0.0897  0.3758  0.6812
  170SAPE  H11X19287   0.800   0.885   7.878  1.8077  1.0707  1.4475
  170SAPE  H11Y19288   0.922   0.750   7.911 -0.6320 -1.1315 -0.0139
  170SAPE  C31219289   0.778   0.789   8.077 -0.2249 -0.6963  0.8480
  170SAPE  H12X19290   0.790   0.684   8.112  2.4061 -0.9739 -0.6646
  170SAPE  H12Y19291   0.674   0.828   8.088  0.4848  2.0701 -1.2365
  170SAPE  C31319292   0.868   0.885   8.147 -0.3536  0.0985  0.7582
  170SAPE  H13X19293   0.847   0.986   8.106  0.8683 -0.4889 -1.4268
  170SAPE  H13Y19294   0.975   0.857   8.138  0.3805  1.9764  2.6735
  170SAPE  C31419295   0.840   0.902   8.294  0.0997  0.8384 -0.1709
  170SAPE  H14X19296   0.854   0.805   8.345 -0.2718  1.1423  0.5125
  170SAPE  H14Y19297   0.731   0.922   8.292 -0.5798 -2.1926  0.9957
  170SAPE  C31519298   0.924   1.003   8.363  0.7348 -0.6240 -0.2095
  170SAPE  H15X19299   0.901   1.015   8.471  3.1051  3.7530  0.0437
  170SAPE  H15Y19300   0.929   1.096   8.302  1.2413  0.1033  0.9037
  170SAPE  C31619301   1.074   0.970   8.358 -0.1445 -0.4662 -0.2566
  170SAPE  H16X19302   1.117   0.931   8.263 -1.6843  0.3506 -1.3510
  170SAPE  H16Y19303   1.120   0.908   8.437  2.5754  0.3707 -1.0708
  170SAPE  C31719304   1.155   1.104   8.396  0.1705 -0.4941 -0.4017
  170SAPE  H17X19305   1.102   1.174   8.327 -3.5705 -3.0211 -0.3437
  170SAPE  H17Y19306   1.262   1.092   8.368  1.4513  1.5640  2.9795
  170SAPE  C31819307   1.135   1.154   8.540  0.1524  0.0214 -0.2275
  170SAPE  H18X19308   1.117   1.263   8.535  0.0856 -0.0414 -2.1347
  170SAPE  H18Y19309   1.232   1.135   8.590 -0.9282  0.6172  2.2560
  170SAPE  H18Z19310   1.056   1.107   8.603  1.0419 -0.4007  0.5932
  171SAPE     N19311   4.105   2.706   6.191 -0.2942 -0.0753  0.6452
  171SAPE   HN119312   4.173   2.629   6.207  0.7412  0.5324 -0.6144
  171SAPE   HN219313   4.130   2.783   6.126 -1.1675  0.9868  1.5306
  171SAPE   HN319314   4.106   2.754   6.283 -0.1697  0.8491  0.1758
  171SAPE   C1219315   3.963   2.660   6.173 -0.2210 -0.0695 -0.4123
  171SAPE  H12A19316   3.970   2.584   6.092  1.3518 -1.8938  1.3012
  171SAPE  H12B19317   3.901   2.748   6.148 -0.3458 -0.0527 -0.0528
  171SAPE   C1119318   3.900   2.587   6.305 -0.1389 -0.4226  0.5705
  171SAPE  H11A19319   3.906   2.647   6.398  1.1257  1.4941 -0.6778
  171SAPE  H11B19320   3.962   2.498   6.327  0.2611 -0.0580  0.9172
  171SAPE     P19321   3.633   2.626   6.266  0.1157  0.2827  0.2457
  171SAPE   O1319322   3.668   2.763   6.295 -0.2557 -0.0878  0.3130
  171SAPE   O1419323   3.569   2.608   6.133 -0.0454  0.0070  0.0400
  171SAPE   O1219324   3.765   2.537   6.279 -0.0372 -0.5002 -0.4242
  171SAPE   O1119325   3.535   2.573   6.382  0.1469  0.7108 -0.0323
  171SAPE    C119326   3.599   2.561   6.507  0.0387 -0.3955 -0.3798
  171SAPE    HA19327   3.684   2.490   6.513  0.3022  0.0217  1.5105
  171SAPE    HB19328   3.652   2.654   6.537  1.2033 -1.4299  0.8940
  171SAPE    C219329   3.495   2.530   6.621 -0.0930  0.5326 -0.2091
  171SAPE    HS19330   3.429   2.618   6.635 -0.4107  0.1118  1.1464
  171SAPE   O2119331   3.573   2.523   6.743  0.0039  0.3034 -0.2893
  171SAPE   C2119332   3.502   2.541   6.851  0.0597  0.1395  0.1386
  171SAPE   O2219333   3.387   2.567   6.857  0.3494  0.4268  0.1635
  171SAPE   C2219334   3.596   2.528   6.977  0.4911  0.4992 -0.6172
  171SAPE   H2R19335   3.569   2.606   7.052 -0.2088  0.3930 -0.7550
  171SAPE   H2S19336   3.569   2.435   7.033  0.6004  2.0626  2.2378
  171SAPE    C319337   3.404   2.415   6.593 -0.4804  0.2697 -0.5175
  171SAPE    HX19338   3.344   2.449   6.505 -0.2076 -0.9464 -1.2034
  171SAPE    HY19339   3.333   2.395   6.675  0.0681 -0.1054 -0.1307
  171SAPE   O3119340   3.478   2.296   6.557  0.2666 -0.6202 -0.6241
  171SAPE   C3119341   3.499   2.211   6.662 -0.3570  0.6466 -0.0167
  171SAPE   O3219342   3.483   2.236   6.780 -0.6461 -0.0129 -0.0432
  171SAPE   C3219343   3.528   2.073   6.603  0.4124  0.2034 -0.9309
  171SAPE   H2X19344   3.599   2.019   6.669 -1.7858 -1.2813  0.3449
  171SAPE   H2Y19345   3.563   2.078   6.498  0.2639  1.2891 -0.9336
  171SAPE   C2319346   3.748   2.531   6.952  0.4182 -0.1669  0.4993
  171SAPE   H3R19347   3.771   2.612   6.879  1.8701 -1.0376 -0.0442
  171SAPE   H3S19348   3.782   2.439   6.900  1.1488  0.6758 -0.5759
  171SAPE   C2419349   3.845   2.545   7.073 -0.3866 -0.0345 -0.5374
  171SAPE   H4R19350   3.949   2.572   7.042 -0.5376  1.4637  0.1745
  171SAPE   H4S19351   3.842   2.459   7.143  3.6809  0.9302  1.1083
  171SAPE   C2519352   3.799   2.658   7.161 -0.2430 -0.2366 -0.3565
  171SAPE   H5R19353   3.852   2.752   7.140  2.3182 -1.5598 -0.2418
  171SAPE   C2619354   3.735   2.651   7.276  0.5973 -0.0573 -0.0032
  171SAPE   H6R19355   3.702   2.742   7.329 -0.1257 -0.0149 -0.5167
  171SAPE   C2719356   3.683   2.526   7.345  0.7382  0.2974 -0.0121
  171SAPE   H7R19357   3.763   2.466   7.394  1.2903  0.4601 -0.6998
  171SAPE   H7S19358   3.632   2.469   7.264 -3.0323  1.8338  1.0769
  171SAPE   C2819359   3.564   2.556   7.434 -0.5559  1.0957  0.7879
  171SAPE   H8R19360   3.468   2.552   7.381 -0.0588 -1.7761 -0.0673
  171SAPE   C2919361   3.568   2.570   7.569 -0.1571 -0.2944  0.7176
  171SAPE   H9R19362   3.478   2.574   7.632  0.5572 -0.7502  1.8059
  171SAPE  C21019363   3.698   2.580   7.647 -0.6773  0.2458 -0.3039
  171SAPE  H10R19364   3.788   2.607   7.588 -0.9238  2.0693  0.0950
  171SAPE  H10S19365   3.715   2.473   7.669 -3.4799 -0.6220 -1.8968
  171SAPE  C21119366   3.706   2.669   7.767  0.7061 -0.5105  0.6928
  171SAPE  H11R19367   3.692   2.774   7.735 -0.3067 -1.0094 -0.5822
  171SAPE  C21219368   3.734   2.638   7.892 -0.1472 -1.7998 -0.0815
  171SAPE  H12R19369   3.733   2.716   7.969 -1.0895 -1.5063 -0.3744
  171SAPE  C21319370   3.774   2.499   7.939  0.6506 -0.1828 -0.6720
  171SAPE  H13R19371   3.872   2.505   7.993  0.2082  2.1257  0.0173
  171SAPE  H13S19372   3.792   2.433   7.852 -1.7004  0.7907 -1.9801
  171SAPE  C21419373   3.657   2.444   8.003 -0.0405  0.5050  0.0271
  171SAPE  H14R19374   3.579   2.420   7.928  1.0696 -0.3023 -0.9065
  171SAPE  C21519375   3.645   2.392   8.126 -0.2417  0.2837 -0.4065
  171SAPE  H15R19376   3.553   2.338   8.155  0.5210 -0.1451  1.3494
  171SAPE  C21619377   3.746   2.400   8.235  0.7152 -0.5464  0.0300
  171SAPE  H16R19378   3.701   2.473   8.306  2.8644  1.6034 -0.6693
  171SAPE  H16S19379   3.843   2.445   8.206  1.0596  0.3303  2.3375
  171SAPE  C21719380   3.770   2.264   8.289 -0.1915 -0.2265 -0.3417
  171SAPE  H17R19381   3.674   2.222   8.327  0.3504  0.2551  1.6842
  171SAPE  H17S19382   3.835   2.265   8.379 -2.1300 -0.3427  1.1368
  171SAPE  C21819383   3.840   2.174   8.178 -0.9713  0.3828 -0.5207
  171SAPE  H18R19384   3.922   2.237   8.135  0.0880 -0.7406 -0.1988
  171SAPE  H18S19385   3.758   2.134   8.115 -0.8928 -0.7747  0.0902
  171SAPE  C21919386   3.922   2.048   8.230  0.0030  0.5267 -0.3656
  171SAPE  H19R19387   3.926   1.971   8.150  0.3096 -0.6244  0.7239
  171SAPE  H19S19388   3.857   2.002   8.307 -0.6455  2.2499  0.1547
  171SAPE  C22019389   4.055   2.076   8.307 -0.0617  0.0204 -0.1482
  171SAPE  H20R19390   4.085   1.989   8.369 -0.2362 -0.9369 -1.3600
  171SAPE  H20S19391   4.040   2.168   8.368  2.6745 -0.3331  1.1948
  171SAPE  H20T19392   4.133   2.103   8.233 -0.1585 -1.0027 -0.6421
  171SAPE   C3319393   3.400   1.985   6.613  0.2388  0.3990  0.2997
  171SAPE   H3X19394   3.420   1.906   6.538 -0.8107  1.4168 -1.1067
  171SAPE   H3Y19395   3.308   2.044   6.591 -0.9820 -2.1049 -1.8703
  171SAPE   C3419396   3.379   1.917   6.748  0.4225 -0.0688 -0.2093
  171SAPE   H4X19397   3.356   1.992   6.826 -1.5225  0.5409 -1.3005
  171SAPE   H4Y19398   3.459   1.845   6.774 -1.0152 -1.2636  1.0562
  171SAPE   C3519399   3.254   1.831   6.734 -0.3810  0.0162 -0.0512
  171SAPE   H5X19400   3.289   1.762   6.655  1.6266 -0.2715  1.0309
  171SAPE   H5Y19401   3.172   1.900   6.703 -0.4906 -0.1627 -0.1613
  171SAPE   C3619402   3.220   1.749   6.857  0.1683 -0.0023 -0.0861
  171SAPE   H6X19403   3.113   1.722   6.864  0.0123  0.1026 -1.8109
  171SAPE   H6Y19404   3.247   1.818   6.941 -2.3553  0.7879  0.1549
  171SAPE   C3719405   3.304   1.618   6.857  0.3601  0.2598 -0.3022
  171SAPE   H7X19406   3.408   1.655   6.868  0.8676 -0.7028 -1.6205
  171SAPE   H7Y19407   3.296   1.568   6.758  1.4243  1.3334 -0.9566
  171SAPE   C3819408   3.274   1.520   6.969 -0.3563 -0.2339  0.1506
  171SAPE   H8X19409   3.342   1.433   6.958  1.4836  0.9488  1.5185
  171SAPE   H8Y19410   3.173   1.475   6.959 -0.4724  0.3484 -1.5263
  171SAPE   C3919411   3.301   1.570   7.117  0.7502  0.0491 -0.6244
  171SAPE   H9X19412   3.221   1.641   7.148 -0.2750 -1.4058  0.2013
  171SAPE   H9Y19413   3.398   1.625   7.117  0.7592  0.0602  0.4780
  171SAPE  C31019414   3.294   1.446   7.210  0.8910 -0.8247 -0.1345
  171SAPE  H10X19415   3.387   1.394   7.178  1.7204  0.9536 -0.7255
  171SAPE  H10Y19416   3.206   1.384   7.184  0.0425 -0.6881  2.1514
  171SAPE  C31119417   3.299   1.480   7.353 -0.1429 -0.0847  0.2978
  171SAPE  H11X19418   3.351   1.575   7.374 -0.5371  0.0862  0.5052
  171SAPE  H11Y19419   3.357   1.403   7.409  0.4860  0.4906  0.4426
  171SAPE  C31219420   3.157   1.492   7.422 -1.0065  0.2469  1.2733
  171SAPE  H12X19421   3.108   1.394   7.402 -0.4532  0.5334 -2.0186
  171SAPE  H12Y19422   3.107   1.577   7.372  0.7533  0.0480 -0.9908
  171SAPE  C31319423   3.178   1.505   7.578  0.0706 -0.0925  0.4828
  171SAPE  H13X19424   3.079   1.533   7.621 -1.1938 -1.2584 -1.4703
  171SAPE  H13Y19425   3.250   1.589   7.590  0.4714 -0.3938  0.2212
  171SAPE  C31419426   3.226   1.380   7.641 -0.1699 -0.6588 -0.4148
  171SAPE  H14X19427   3.331   1.357   7.614  1.0645  1.0875  2.3607
  171SAPE  H14Y19428   3.164   1.291   7.618 -1.4962 -0.1764  1.0459
  171SAPE  C31519429   3.206   1.393   7.794  0.3349  0.2226  0.2582
  171SAPE  H15X19430   3.104   1.434   7.816 -0.3740 -1.3298 -0.0124
  171SAPE  H15Y19431   3.275   1.471   7.831  0.6437 -0.4444  1.1049
  171SAPE  C31619432   3.232   1.258   7.860 -0.2588 -0.3723  0.0825
  171SAPE  H16X19433   3.328   1.225   7.815  0.3161  1.2253  0.0507
  171SAPE  H16Y19434   3.151   1.189   7.828 -1.5937  0.4835  1.4717
  171SAPE  C31719435   3.245   1.258   8.015  0.5778 -0.4244  0.5155
  171SAPE  H17X19436   3.319   1.337   8.041  0.1902  0.1730 -0.1492
  171SAPE  H17Y19437   3.290   1.164   8.053  1.3353  0.6961  2.5408
  171SAPE  C31819438   3.119   1.282   8.091  0.2082  0.3844  0.5619
  171SAPE  H18X19439   3.135   1.268   8.200  3.9559 -0.4518  0.0203
  171SAPE  H18Y19440   3.039   1.208   8.068 -0.0595  0.7088  0.4277
  171SAPE  H18Z19441   3.073   1.382   8.074 -1.4752 -0.4302  0.1315
  172SAPE     N19442   2.459   6.168   6.264 -0.2395 -0.3926  0.1743
  172SAPE   HN119443   2.454   6.064   6.274  0.0594 -0.3036  1.4388
  172SAPE   HN219444   2.403   6.196   6.181  0.6964  1.4087  0.1091
  172SAPE   HN319445   2.560   6.189   6.252 -0.4628  1.0695  0.6987
  172SAPE   C1219446   2.395   6.230   6.385  0.0371 -0.2500 -0.4090
  172SAPE  H12A19447   2.457   6.198   6.471 -0.9291 -0.4912  0.2104
  172SAPE  H12B19448   2.303   6.169   6.397 -1.9752  2.5825 -0.3560
  172SAPE   C1119449   2.374   6.383   6.372 -0.1428 -0.0458 -0.3643
  172SAPE  H11A19450   2.333   6.417   6.470 -0.8058 -1.1111 -0.2555
  172SAPE  H11B19451   2.296   6.403   6.295 -0.1691  1.1643 -0.0398
  172SAPE     P19452   2.504   6.600   6.312  0.3051 -0.2394  0.5055
  172SAPE   O1319453   2.640   6.649   6.311  0.4568  0.7686  0.4788
  172SAPE   O1419454   2.423   6.628   6.189 -0.3497  0.1331 -0.0815
  172SAPE   O1219455   2.497   6.449   6.350 -0.3154  0.3078 -0.1385
  172SAPE   O1119456   2.439   6.665   6.431 -0.0019  0.5878  0.1575
  172SAPE    C119457   2.510   6.677   6.561  0.2133 -0.2919  0.2805
  172SAPE    HA19458   2.429   6.659   6.635  0.7004 -1.4013  0.5521
  172SAPE    HB19459   2.575   6.590   6.580  2.4050  1.3131  0.4418
  172SAPE    C219460   2.587   6.810   6.584  0.5508 -0.6133  0.5337
  172SAPE    HS19461   2.689   6.796   6.542  1.2189 -0.8338  2.1521
  172SAPE   O2119462   2.590   6.832   6.726 -0.2623  0.1921 -0.2032
  172SAPE   C2119463   2.704   6.909   6.759  0.4949 -0.3112  0.0498
  172SAPE   O2219464   2.789   6.945   6.677  0.1628 -0.0640 -0.5370
  172SAPE   C2219465   2.693   6.943   6.903  1.0548 -0.5647  0.8125
  172SAPE   H2R19466   2.750   6.870   6.965  2.0609 -0.6726 -0.1997
  172SAPE   H2S19467   2.744   7.042   6.906  3.4557 -1.7135  0.7017
  172SAPE    C319468   2.496   6.925   6.525 -0.3507  0.1628 -0.1415
  172SAPE    HX19469   2.399   6.909   6.576  0.0839  0.9956  0.9804
  172SAPE    HY19470   2.485   6.911   6.415  0.0837  0.9825 -0.2963
  172SAPE   O3119471   2.562   7.054   6.552  0.3492  0.7050  0.0897
  172SAPE   C3119472   2.531   7.151   6.469  0.2105  0.2449  0.2158
  172SAPE   O3219473   2.476   7.139   6.361  0.1302  0.7609  0.0549
  172SAPE   C3219474   2.562   7.289   6.532 -0.1121 -0.0373  0.0220
  172SAPE   H2X19475   2.500   7.366   6.481  0.6478  1.1006  0.7961
  172SAPE   H2Y19476   2.667   7.318   6.512 -0.2622  0.9896  0.6609
  172SAPE   C2319477   2.546   6.952   6.958  0.0999  0.1144 -0.0912
  172SAPE   H3R19478   2.467   6.999   6.895  0.6390 -0.1378 -0.9757
  172SAPE   H3S19479   2.563   7.018   7.045  4.4706 -0.7578 -0.0904
  172SAPE   C2419480   2.491   6.815   7.002  0.1683 -0.3391  0.1175
  172SAPE   H4R19481   2.579   6.763   7.048  1.2279  0.2880 -1.1302
  172SAPE   H4S19482   2.463   6.743   6.922  0.4019 -1.1360  0.7269
  172SAPE   C2519483   2.378   6.826   7.104 -0.1449 -0.9080  0.3137
  172SAPE   H5R19484   2.279   6.832   7.057  0.4681 -0.2980 -0.9345
  172SAPE   C2619485   2.394   6.832   7.237 -0.0099 -0.4877 -0.5699
  172SAPE   H6R19486   2.309   6.862   7.301 -0.1722  0.4742 -1.2054
  172SAPE   C2719487   2.529   6.838   7.303 -0.4825  0.0246 -0.7649
  172SAPE   H7R19488   2.599   6.868   7.222 -1.2584  1.1074 -1.0665
  172SAPE   H7S19489   2.558   6.735   7.331  1.7965  0.4185 -1.4523
  172SAPE   C2819490   2.533   6.932   7.424 -0.1963 -0.0897  0.2340
  172SAPE   H8R19491   2.476   7.024   7.402 -1.6113 -0.9835  0.0125
  172SAPE   C2919492   2.588   6.917   7.547  0.5614  0.3239  0.1036
  172SAPE   H9R19493   2.600   7.003   7.614  1.6513  1.2789 -1.2700
  172SAPE  C21019494   2.641   6.787   7.601 -0.2044  0.1573 -0.3392
  172SAPE  H10R19495   2.752   6.782   7.595 -0.1931  1.8320 -2.3884
  172SAPE  H10S19496   2.596   6.700   7.549 -2.3986  0.5487  0.7740
  172SAPE  C21119497   2.583   6.763   7.740  0.2289  0.1608  0.2365
  172SAPE  H11R19498   2.513   6.678   7.746  1.8604 -1.1958  1.1607
  172SAPE  C21219499   2.624   6.821   7.856 -0.4154  0.4860  0.1203
  172SAPE  H12R19500   2.575   6.797   7.952  1.6409 -1.8703  0.6981
  172SAPE  C21319501   2.737   6.917   7.874 -0.2509  0.1880 -0.2613
  172SAPE  H13R19502   2.704   7.022   7.889  0.0782  0.5091 -1.6086
  172SAPE  H13S19503   2.784   6.937   7.775 -0.9195  0.2920 -0.5633
  172SAPE  C21419504   2.852   6.859   7.968  0.2609  0.4475  0.0986
  172SAPE  H14R19505   2.877   6.755   7.944 -1.6959 -0.1689  0.5751
  172SAPE  C21519506   2.912   6.912   8.074 -0.6719 -0.2754 -0.2128
  172SAPE  H15R19507   2.987   6.848   8.123 -1.8229 -2.2262 -0.9075
  172SAPE  C21619508   2.894   7.048   8.133 -0.0924  0.1861  0.6455
  172SAPE  H16R19509   2.908   7.130   8.060  1.3192  0.9301  1.7146
  172SAPE  H16S19510   2.971   7.050   8.213  3.5632 -1.3647 -2.5071
  172SAPE  C21719511   2.756   7.072   8.210  0.6222  0.0661  0.2074
  172SAPE  H17R19512   2.673   7.058   8.138  0.9435 -1.2301  0.0747
  172SAPE  H17S19513   2.751   7.178   8.243 -1.9500 -0.1819  0.8747
  172SAPE  C21819514   2.733   6.982   8.326 -0.6403  1.1138 -0.6981
  172SAPE  H18R19515   2.805   6.991   8.411 -0.8347 -1.1012 -0.2262
  172SAPE  H18S19516   2.728   6.873   8.304  1.4025  1.1387 -1.4334
  172SAPE  C21919517   2.595   7.015   8.389 -0.8213  0.4013 -0.8284
  172SAPE  H19R19518   2.510   6.997   8.320 -0.3220 -1.7057 -0.9453
  172SAPE  H19S19519   2.595   7.120   8.426 -0.0349 -0.2072  1.0687
  172SAPE  C22019520   2.576   6.930   8.517 -0.2093  0.0367 -0.1776
  172SAPE  H20R19521   2.555   6.826   8.484 -1.0707  0.8203 -2.2894
  172SAPE  H20S19522   2.482   6.958   8.571 -1.8409  0.7982 -3.1863
  172SAPE  H20T19523   2.650   6.940   8.599 -0.9315 -0.4929  0.5609
  172SAPE   C3319524   2.531   7.294   6.679 -0.1908 -0.4088  0.3313
  172SAPE   H3X19525   2.604   7.226   6.728 -0.4108  1.4173  3.4407
  172SAPE   H3Y19526   2.427   7.258   6.693 -0.5501 -1.2078 -3.3496
  172SAPE   C3419527   2.538   7.438   6.730  0.9538  0.2772  0.1940
  172SAPE   H4X19528   2.459   7.492   6.675  1.6579  1.9481  0.7375
  172SAPE   H4Y19529   2.638   7.487   6.721  0.7802  0.3962 -1.3950
  172SAPE   C3519530   2.502   7.455   6.881  0.2762  0.0224  0.3719
  172SAPE   H5X19531   2.392   7.457   6.899  0.3769  0.1505  1.0073
  172SAPE   H5Y19532   2.538   7.552   6.920 -3.6514  1.7335  0.2059
  172SAPE   C3619533   2.555   7.352   6.976 -0.9738  0.2494  0.0121
  172SAPE   H6X19534   2.663   7.336   6.958 -0.7213 -0.2239  1.7757
  172SAPE   H6Y19535   2.502   7.256   6.960  0.1916 -0.2001 -1.3107
  172SAPE   C3719536   2.537   7.396   7.130 -0.4230  0.1941 -0.0686
  172SAPE   H7X19537   2.428   7.384   7.152 -0.4003 -2.1380 -0.9362
  172SAPE   H7Y19538   2.566   7.503   7.138 -0.1481  0.1289 -0.2130
  172SAPE   C3819539   2.629   7.315   7.230 -0.6298 -0.0067  0.0695
  172SAPE   H8X19540   2.733   7.334   7.197 -1.0994 -0.9858 -2.2044
  172SAPE   H8Y19541   2.614   7.206   7.216 -1.1500 -0.1612  1.6103
  172SAPE   C3919542   2.597   7.356   7.368  0.1820 -0.3599 -0.1163
  172SAPE   H9X19543   2.501   7.303   7.388 -0.9701  1.1996 -1.2953
  172SAPE   H9Y19544   2.574   7.464   7.382  0.3887 -0.4490  1.0589
  172SAPE  C31019545   2.700   7.321   7.483  0.1658 -0.0297 -0.8533
  172SAPE  H10X19546   2.798   7.366   7.454  1.0445 -1.3927 -0.0994
  172SAPE  H10Y19547   2.715   7.211   7.476 -0.6618 -0.1311 -1.1272
  172SAPE  C31119548   2.658   7.360   7.629 -0.2006  0.5451  0.6854
  172SAPE  H11X19549   2.562   7.315   7.660 -0.3854  0.3370 -0.1644
  172SAPE  H11Y19550   2.646   7.471   7.634 -0.7227  0.4322  2.2826
  172SAPE  C31219551   2.768   7.320   7.732  0.3440  0.4112 -0.6870
  172SAPE  H12X19552   2.864   7.361   7.695 -0.1615 -0.1812 -2.7444
  172SAPE  H12Y19553   2.783   7.211   7.714 -1.8937  0.1987 -1.6433
  172SAPE  C31319554   2.734   7.350   7.876  0.0300  0.0308 -0.1541
  172SAPE  H13X19555   2.816   7.318   7.944 -0.9854  0.3614  1.2600
  172SAPE  H13Y19556   2.661   7.270   7.901  1.4605 -0.9517  1.1020
  172SAPE  C31419557   2.695   7.496   7.906 -0.3391  0.1704  0.1863
  172SAPE  H14X19558   2.601   7.518   7.853 -0.0081  0.8939 -0.1091
  172SAPE  H14Y19559   2.763   7.577   7.874 -0.1809  0.2246  0.6475
  172SAPE  C31519560   2.664   7.517   8.054  0.2042  0.0766  0.2824
  172SAPE  H15X19561   2.751   7.566   8.103  0.2094  1.0034 -0.6094
  172SAPE  H15Y19562   2.637   7.418   8.096  1.0495 -2.0061 -3.5928
  172SAPE  C31619563   2.533   7.600   8.064 -0.7065 -0.0109 -0.0362
  172SAPE  H16X19564   2.457   7.551   8.000  1.2633 -1.4749 -1.3513
  172SAPE  H16Y19565   2.544   7.698   8.012 -4.8008  1.0546  0.7173
  172SAPE  C31719566   2.487   7.624   8.206 -0.6692  0.2289 -0.8199
  172SAPE  H17X19567   2.436   7.532   8.243 -0.5208 -0.1745 -1.6049
  172SAPE  H17Y19568   2.405   7.697   8.222 -0.3381  0.6454 -1.0041
  172SAPE  C31819569   2.597   7.676   8.305 -0.2966 -0.4087 -0.0094
  172SAPE  H18X19570   2.553   7.687   8.407  1.5305 -0.0344  0.7911
  172SAPE  H18Y19571   2.634   7.777   8.278 -0.7774 -0.1821  0.1685
  172SAPE  H18Z19572   2.681   7.604   8.318 -1.6821 -1.8079  1.8769
  173SOPE     N19573   5.099   3.821  11.187  0.0356 -0.1956 -0.5922
  173SOPE   HN119574   5.051   3.807  11.278 -1.0268  0.7072 -0.9926
  173SOPE   HN219575   5.195   3.849  11.214  0.4674  0.6297 -2.7385
  173SOPE   HN319576   5.054   3.895  11.130  0.2141  0.2231 -0.1897
  173SOPE   C1219577   5.137   3.698  11.106  0.1497 -0.4700  0.5401
  173SOPE  H12A19578   5.043   3.666  11.054 -0.2848  0.7988  0.5036
  173SOPE  H12B19579   5.161   3.617  11.178  0.9324 -1.9312 -1.2548
  173SOPE   C1119580   5.246   3.729  10.998  0.2077  0.2108  1.1379
  173SOPE  H11A19581   5.198   3.800  10.928  0.3549  0.3768  1.2045
  173SOPE  H11B19582   5.266   3.642  10.932 -0.0275 -0.2654  1.6804
  173SOPE     P19583   5.498   3.698  11.064 -0.1227 -0.3806 -0.9362
  173SOPE   O1319584   5.478   3.571  11.132  0.3903 -0.3138  0.7039
  173SOPE   O1419585   5.615   3.781  11.116 -0.0004  0.5300 -0.0557
  173SOPE   O1219586   5.363   3.782  11.058  0.3546  0.2091  0.3494
  173SOPE   O1119587   5.523   3.668  10.916 -0.0175 -0.6748 -0.6001
  173SOPE    C119588   5.531   3.765  10.820 -0.5350 -0.7851  0.4196
  173SOPE    HA19589   5.539   3.869  10.858  1.4838 -1.1389  1.0852
  173SOPE    HB19590   5.440   3.765  10.757 -1.1457  0.3432  1.2677
  173SOPE    C219591   5.645   3.726  10.726  0.8070  0.2114  0.6535
  173SOPE    HS19592   5.743   3.723  10.778  1.0337 -2.0684  0.1829
  173SOPE   O2119593   5.647   3.801  10.601 -0.4595 -0.2375 -0.3379
  173SOPE   C2119594   5.765   3.816  10.542  0.5398 -0.1747 -0.3114
  173SOPE   O2219595   5.875   3.812  10.586 -0.1010  0.2855 -0.0337
  173SOPE   C2219596   5.731   3.814  10.401  0.1165  0.1111  0.2324
  173SOPE   H2R19597   5.686   3.907  10.359  0.3744  0.6507  1.1276
  173SOPE   H2S19598   5.644   3.745  10.394  1.1108 -1.3261  1.5368
  173SOPE    C319599   5.633   3.577  10.688 -0.4642 -0.8266  0.1106
  173SOPE    HX19600   5.615   3.511  10.775 -2.1189 -0.3531  0.1689
  173SOPE    HY19601   5.727   3.549  10.636 -1.4037 -0.9653 -1.6092
  173SOPE   O3119602   5.530   3.565  10.583 -0.2611  0.5155  0.2271
  173SOPE   C3119603   5.487   3.439  10.555 -0.3005  0.4371  0.5888
  173SOPE   O3219604   5.525   3.342  10.620  0.1378 -0.4356  0.1753
  173SOPE   C3219605   5.394   3.447  10.432  0.6987 -0.3850 -0.0542
  173SOPE   H2X19606   5.439   3.514  10.355 -0.9366  2.2306  1.1219
  173SOPE   H2Y19607   5.296   3.489  10.463  1.1415 -0.4450  1.4812
  173SOPE   C2319608   5.836   3.772  10.299  0.2303  0.3581  0.0988
  173SOPE   H3R19609   5.881   3.680  10.341  2.6453  2.1099  1.6173
  173SOPE   H3S19610   5.911   3.854  10.296  0.4430  0.1819  0.4487
  173SOPE   C2419611   5.789   3.752  10.154 -0.4712  1.2042 -0.3325
  173SOPE   H4R19612   5.695   3.694  10.143 -0.1526  0.9289 -1.8161
  173SOPE   H4S19613   5.756   3.855  10.129  0.2567  2.1229  2.2020
  173SOPE   C2519614   5.899   3.696  10.057  0.2557  0.1178  0.1095
  173SOPE   H5R19615   5.997   3.738  10.085  1.0647 -1.8728  0.4376
  173SOPE   H5S19616   5.899   3.586  10.076 -1.2337  0.4510  2.5259
  173SOPE   C2619617   5.869   3.720   9.905 -0.2256  0.0641 -0.7246
  173SOPE   H6R19618   5.764   3.694   9.878 -0.0818 -0.1514 -1.0767
  173SOPE   H6S19619   5.882   3.830   9.894 -0.6004  0.2010  0.1235
  173SOPE   C2719620   5.974   3.651   9.819 -0.4429 -0.1345  0.3020
  173SOPE   H7R19621   5.948   3.679   9.714 -1.5920 -0.6874  0.4185
  173SOPE   H7S19622   6.069   3.706   9.830 -0.2531 -0.3099 -0.3961
  173SOPE   C2819623   5.985   3.507   9.840 -0.9385  0.0786 -0.3621
  173SOPE   H8R19624   6.037   3.490   9.936  1.6823 -0.7973 -1.8228
  173SOPE   H8S19625   5.890   3.450   9.833 -2.0448  1.8188 -0.0289
  173SOPE   C2919626   6.103   3.447   9.753  0.6569  0.7756  0.1414
  173SOPE   H9119627   6.202   3.470   9.794  0.8393 -2.6687  1.9987
  173SOPE  C21019628   6.086   3.365   9.643 -0.0040 -0.1261 -0.0017
  173SOPE  H10119629   6.185   3.341   9.601  0.1616 -1.6905  1.2014
  173SOPE  C21119630   5.964   3.321   9.569  0.3209 -0.4616 -0.2216
  173SOPE  H11R19631   5.873   3.321   9.633  1.6111 -0.1758  1.6965
  173SOPE  H11S19632   5.981   3.217   9.535  0.5241  0.1271 -2.0211
  173SOPE  C21219633   5.946   3.406   9.440 -0.1725 -0.3189 -0.3132
  173SOPE  H12R19634   6.040   3.393   9.382 -0.3303  0.0788 -0.6619
  173SOPE  H12S19635   5.929   3.513   9.462 -1.0418 -0.3359 -0.8398
  173SOPE  C21319636   5.827   3.357   9.355  0.6042  0.2763 -0.1654
  173SOPE  H13R19637   5.726   3.368   9.399 -1.2069  0.1772 -3.9517
  173SOPE  H13S19638   5.825   3.249   9.327 -3.2078  0.1636  0.0796
  173SOPE  C21419639   5.836   3.435   9.220 -0.3475 -0.8895  0.1888
  173SOPE  H14R19640   5.932   3.414   9.167  1.3451  2.6865  1.5115
  173SOPE  H14S19641   5.838   3.545   9.232  1.0589 -0.7896 -0.7117
  173SOPE  C21519642   5.723   3.380   9.129  0.9523  0.0565  0.3170
  173SOPE  H15R19643   5.622   3.399   9.171 -0.5121 -1.4846 -2.2081
  173SOPE  H15S19644   5.739   3.270   9.134  1.9755  0.1065 -1.1799
  173SOPE  C21619645   5.712   3.419   8.982 -0.0385 -0.3134 -0.3339
  173SOPE  H16R19646   5.643   3.351   8.930 -1.1613 -1.6253  2.6276
  173SOPE  H16S19647   5.813   3.417   8.937  0.3316  0.4673  0.4284
  173SOPE  C21719648   5.668   3.573   8.971 -0.0091 -0.0571  0.5100
  173SOPE  H17R19649   5.751   3.636   9.011  1.6139 -0.4873 -1.9677
  173SOPE  H17S19650   5.570   3.579   9.024  0.6954  4.1361  1.7475
  173SOPE  C21819651   5.646   3.610   8.817 -0.3545  0.9846 -0.2451
  173SOPE  H18R19652   5.739   3.584   8.763 -1.3790 -1.1122 -1.1313
  173SOPE  H18S19653   5.619   3.717   8.809  0.8236  1.2774 -0.4115
  173SOPE  H18T19654   5.570   3.548   8.765  1.5167 -0.3433 -1.5557
  173SOPE   C3319655   5.356   3.309  10.377 -0.1441 -0.2016  0.2663
  173SOPE   H3X19656   5.298   3.248  10.450 -2.7946  0.2127 -1.3680
  173SOPE   H3Y19657   5.443   3.253  10.337 -1.2328  0.5716 -3.5244
  173SOPE   C3419658   5.256   3.305  10.253  0.5810 -0.1064 -0.8944
  173SOPE   H4X19659   5.166   3.367  10.272 -0.1069 -1.6944  1.3638
  173SOPE   H4Y19660   5.213   3.203  10.251 -1.5753  0.7086  0.1677
  173SOPE   C3519661   5.317   3.336  10.113  0.8035  0.3704 -0.2447
  173SOPE   H5X19662   5.392   3.257  10.091  0.4538  0.1972 -0.8212
  173SOPE   H5Y19663   5.370   3.433  10.109  1.1380  0.2739  1.1939
  173SOPE   C3619664   5.212   3.350   9.998  0.0229 -0.4110 -0.6947
  173SOPE   H6X19665   5.156   3.445  10.013 -0.7100 -0.7473 -1.2676
  173SOPE   H6Y19666   5.145   3.262  10.004  0.8453 -0.9656  2.7003
  173SOPE   C3719667   5.285   3.357   9.863  0.0234  0.2728 -0.0978
  173SOPE   H7X19668   5.345   3.265   9.845  0.8547  1.0366 -1.3651
  173SOPE   H7Y19669   5.364   3.434   9.860  0.8776 -0.5884 -0.3945
  173SOPE   C3819670   5.182   3.381   9.752  0.7238 -0.4647  0.7383
  173SOPE   H8X19671   5.124   3.475   9.765 -0.3140 -0.7795 -1.1419
  173SOPE   H8Y19672   5.101   3.306   9.765  0.5819 -0.3166  0.7111
  173SOPE   C3919673   5.237   3.378   9.612 -0.4226  0.0794  0.2085
  173SOPE   H9X19674   5.273   3.275   9.592  1.2999  0.6383  0.2510
  173SOPE   H9Y19675   5.329   3.440   9.603  0.5156 -1.2125  0.6903
  173SOPE  C31019676   5.141   3.429   9.501  0.5884  0.5013 -1.1741
  173SOPE  H10X19677   5.080   3.507   9.551 -1.1196 -2.5002  1.9538
  173SOPE  H10Y19678   5.072   3.344   9.481  1.1267 -0.3595  0.4414
  173SOPE  C31119679   5.218   3.471   9.379  0.0216  0.3211  0.7414
  173SOPE  H11X19680   5.307   3.409   9.357 -0.1279 -0.5705  2.4450
  173SOPE  H11Y19681   5.248   3.574   9.407 -0.9607  0.2241  2.2531
  173SOPE  C31219682   5.133   3.479   9.247  0.0102  0.7589  0.2251
  173SOPE  H12X19683   5.057   3.558   9.265  0.4581  1.2728 -0.1107
  173SOPE  H12Y19684   5.083   3.383   9.223  0.0221  0.9003 -0.3928
  173SOPE  C31319685   5.219   3.502   9.120  1.0435  0.8139  0.2106
  173SOPE  H13X19686   5.282   3.411   9.108  1.5770  1.3360 -1.1615
  173SOPE  H13Y19687   5.285   3.589   9.141  2.8933 -0.7419  1.2566
  173SOPE  C31419688   5.142   3.520   8.987  0.2515  0.5733 -0.5402
  173SOPE  H14X19689   5.088   3.617   8.992 -0.6308  0.1575 -1.7064
  173SOPE  H14Y19690   5.064   3.441   8.995  1.3616 -0.5980 -0.9427
  173SOPE  C31519691   5.235   3.505   8.869  0.0227 -0.0640  0.4774
  173SOPE  H15X19692   5.273   3.401   8.882 -0.1917  0.2266  4.6769
  173SOPE  H15Y19693   5.319   3.576   8.886 -0.2273  1.3360 -3.1146
  173SOPE  C31619694   5.164   3.546   8.734 -0.0183  0.9411 -0.8632
  173SOPE  H16X19695   5.107   3.640   8.752 -1.9874 -0.3241 -0.1301
  173SOPE  H16Y19696   5.082   3.472   8.720  0.0983  0.2677  1.5564
  173SOPE  C31719697   5.248   3.545   8.611 -0.1177 -0.0231 -0.4842
  173SOPE  H17X19698   5.340   3.602   8.633 -0.1867 -0.0283 -0.1718
  173SOPE  H17Y19699   5.189   3.602   8.536  0.8716  2.7797  0.7383
  173SOPE  C31819700   5.273   3.411   8.550 -0.2888 -0.4411 -0.3501
  173SOPE  H18X19701   5.340   3.362   8.624 -1.5446 -1.6996  0.0171
  173SOPE  H18Y19702   5.308   3.419   8.446 -2.5097 -0.1665 -1.1355
  173SOPE  H18Z19703   5.176   3.358   8.538  0.3026 -2.1846  1.7205
  174SOPE     N19704   5.423   2.814  10.829  0.2448 -0.4423  0.1744
  174SOPE   HN119705   5.440   2.910  10.794 -1.2951 -0.7570 -1.5980
  174SOPE   HN219706   5.358   2.828  10.909 -1.4606  0.0561 -1.2393
  174SOPE   HN319707   5.519   2.793  10.864  1.2191  3.2570  0.2043
  174SOPE   C1219708   5.378   2.721  10.722 -0.6993  0.2015 -0.3408
  174SOPE  H12A19709   5.465   2.673  10.672 -1.3228  0.7574 -2.0483
  174SOPE  H12B19710   5.320   2.777  10.646 -1.3870 -1.1306 -0.8327
  174SOPE   C1119711   5.292   2.598  10.773 -0.5287 -0.9350 -0.3368
  174SOPE  H11A19712   5.356   2.535  10.838  1.1784  0.6206 -0.4298
  174SOPE  H11B19713   5.261   2.538  10.685 -2.2956  0.7104 -0.9121
  174SOPE     P19714   5.078   2.533  10.891  0.2467  0.1211 -0.1455
  174SOPE   O1319715   4.948   2.593  10.938 -0.1790 -0.1657 -0.3457
  174SOPE   O1419716   5.144   2.436  10.986 -0.0329 -0.0404  0.3135
  174SOPE   O1219717   5.175   2.646  10.844  0.1022 -0.3725 -0.0812
  174SOPE   O1119718   5.038   2.457  10.762  0.3933 -0.0327  0.2261
  174SOPE    C119719   4.912   2.478  10.698 -0.0684 -0.2332  0.6062
  174SOPE    HA19720   4.827   2.510  10.762  0.0561 -0.2955  0.8064
  174SOPE    HB19721   4.891   2.379  10.652  3.0928 -1.2265  1.0231
  174SOPE    C219722   4.935   2.574  10.577 -0.3041 -0.2597  1.1245
  174SOPE    HS19723   4.864   2.561  10.493 -0.6720 -1.1390  1.5622
  174SOPE   O2119724   5.068   2.568  10.516 -0.0085  0.2857  0.2724
  174SOPE   C2119725   5.078   2.494  10.410 -0.8527 -0.3237  0.9960
  174SOPE   O2219726   4.987   2.420  10.366  0.1746  0.1764 -0.0977
  174SOPE   C2219727   5.220   2.486  10.364 -0.2470  0.2838  0.4031
  174SOPE   H2R19728   5.272   2.420  10.438 -1.3323 -0.0755  0.8717
  174SOPE   H2S19729   5.282   2.578  10.367  0.6277 -0.2500 -0.5399
  174SOPE    C319730   4.927   2.724  10.612 -0.3395  0.3050  0.9788
  174SOPE    HX19731   5.014   2.754  10.674 -0.1301 -1.0330  1.3616
  174SOPE    HY19732   4.835   2.729  10.675 -0.7520 -2.3531  0.6858
  174SOPE   O3119733   4.910   2.795  10.487  0.6026 -0.2574 -0.1464
  174SOPE   C3119734   5.000   2.888  10.458  0.0627  0.5658 -0.3997
  174SOPE   O3219735   5.099   2.912  10.525  0.3373  0.0843  0.5678
  174SOPE   C3219736   4.979   2.953  10.324 -0.1448  0.3707 -0.0417
  174SOPE   H2X19737   5.043   3.043  10.310  0.5959 -0.1618 -0.0788
  174SOPE   H2Y19738   4.877   2.998  10.325  0.8503  2.8979 -1.3214
  174SOPE   C2319739   5.232   2.413  10.224 -0.8608 -0.9020  0.2825
  174SOPE   H3R19740   5.160   2.329  10.222 -3.1631  0.9891  0.4570
  174SOPE   H3S19741   5.336   2.373  10.221 -0.4858 -0.0349  1.0012
  174SOPE   C2419742   5.215   2.511  10.103  0.5392 -0.4038 -0.0182
  174SOPE   H4R19743   5.112   2.553  10.101 -0.0237 -1.7340 -1.5580
  174SOPE   H4S19744   5.295   2.586  10.116 -1.7783  2.2680 -0.2689
  174SOPE   C2519745   5.241   2.441   9.973 -0.1862 -0.1058  0.5840
  174SOPE   H5R19746   5.348   2.408   9.970 -0.2333 -0.2693  0.6603
  174SOPE   H5S19747   5.179   2.349   9.973  0.1848 -0.4398 -2.2641
  174SOPE   C2619748   5.184   2.523   9.849  0.2819 -0.0359 -0.6343
  174SOPE   H6R19749   5.073   2.525   9.857  0.3923  1.5327  1.0808
  174SOPE   H6S19750   5.224   2.626   9.844 -0.0357  0.0376 -2.6654
  174SOPE   C2719751   5.208   2.456   9.717 -0.0501  0.5173  0.1117
  174SOPE   H7R19752   5.172   2.355   9.742 -0.7766  1.0111  1.1306
  174SOPE   H7S19753   5.156   2.509   9.634  0.3297 -0.8802 -1.0501
  174SOPE   C2819754   5.356   2.452   9.664 -0.2681 -0.0853  0.6609
  174SOPE   H8R19755   5.408   2.409   9.752  0.2339 -1.0865 -0.1094
  174SOPE   H8S19756   5.351   2.363   9.598 -0.4792 -1.1623  2.0761
  174SOPE   C2919757   5.425   2.568   9.597 -0.4073 -0.8445 -0.3210
  174SOPE   H9119758   5.495   2.618   9.666 -1.0851 -0.7803  0.3424
  174SOPE  C21019759   5.429   2.603   9.470  0.4758  1.1198  0.2412
  174SOPE  H10119760   5.466   2.701   9.436  1.4246  0.5509 -0.4188
  174SOPE  C21119761   5.359   2.519   9.366  0.6117  0.5740  0.9475
  174SOPE  H11R19762   5.298   2.436   9.409  0.4377  0.9421  1.4273
  174SOPE  H11S19763   5.437   2.472   9.303 -0.3462 -2.0461  1.5938
  174SOPE  C21219764   5.268   2.603   9.273 -0.1458 -0.0546 -0.7043
  174SOPE  H12R19765   5.330   2.682   9.226 -1.8795  1.9805  0.2614
  174SOPE  H12S19766   5.181   2.650   9.324  1.1268  1.6822 -0.0500
  174SOPE  C21319767   5.209   2.508   9.165  0.1380  0.2310  0.1739
  174SOPE  H13R19768   5.144   2.436   9.219  0.1445  0.0381 -0.0714
  174SOPE  H13S19769   5.299   2.457   9.123  0.0778 -0.1296  0.4794
  174SOPE  C21419770   5.132   2.574   9.050 -0.4570 -0.4096  0.0746
  174SOPE  H14R19771   5.048   2.639   9.080  0.1271  0.5465 -0.2941
  174SOPE  H14S19772   5.089   2.484   9.000  0.8399  0.5264 -2.9927
  174SOPE  C21519773   5.214   2.652   8.950  0.1539  0.5110 -0.1414
  174SOPE  H15R19774   5.267   2.725   9.015  1.9242 -0.9632  0.1402
  174SOPE  H15S19775   5.144   2.701   8.879 -1.0274 -1.3872 -0.3642
  174SOPE  C21619776   5.316   2.575   8.863 -0.5977  0.1072  0.5450
  174SOPE  H16R19777   5.258   2.494   8.813 -0.8258  0.8776 -0.4788
  174SOPE  H16S19778   5.401   2.543   8.927  1.0798  3.0786 -0.0075
  174SOPE  C21719779   5.387   2.664   8.762 -0.3697 -0.6160  0.6218
  174SOPE  H17R19780   5.407   2.759   8.816 -0.3655  1.7946 -3.2888
  174SOPE  H17S19781   5.316   2.684   8.679 -1.7169 -5.3908  0.3314
  174SOPE  C21819782   5.509   2.609   8.697 -0.4826 -0.0428  0.2251
  174SOPE  H18R19783   5.581   2.592   8.781 -0.1844 -1.1286 -0.2375
  174SOPE  H18S19784   5.552   2.678   8.622  1.3899  0.1653  1.4080
  174SOPE  H18T19785   5.485   2.509   8.655 -1.0708 -0.3024  1.1682
  174SOPE   C3319786   5.006   2.859  10.206  0.1550  0.2472 -0.4239
  174SOPE   H3X19787   4.928   2.780  10.206  0.0736  0.3109  0.6219
  174SOPE   H3Y19788   5.100   2.802  10.223 -0.3265  0.1396  2.4715
  174SOPE   C3419789   4.986   2.935  10.080 -0.5291  0.4917  0.6200
  174SOPE   H4X19790   5.069   3.008  10.072 -0.3040  0.1573 -0.1449
  174SOPE   H4Y19791   4.889   2.986  10.095 -0.7964 -0.1221  0.9995
  174SOPE   C3519792   4.999   2.866   9.940  0.1587  0.2970  0.7287
  174SOPE   H5X19793   4.921   2.787   9.933  1.5459 -1.0164 -0.3340
  174SOPE   H5Y19794   5.095   2.811   9.939  0.6377  1.1356  0.2499
  174SOPE   C3619795   5.012   2.968   9.818 -0.2827 -0.4163 -0.1567
  174SOPE   H6X19796   5.089   3.045   9.838  0.1507 -0.7371 -0.5773
  174SOPE   H6Y19797   4.918   3.027   9.814 -0.7588 -1.1918 -0.6958
  174SOPE   C3719798   5.027   2.898   9.677 -0.3170 -0.0203  0.1418
  174SOPE   H7X19799   4.954   2.815   9.677  0.3820 -0.6441 -0.4159
  174SOPE   H7Y19800   5.129   2.855   9.682  0.0886  0.7541 -1.0661
  174SOPE   C3819801   5.026   2.995   9.559 -0.1346 -0.0879  0.5917
  174SOPE   H8X19802   5.098   3.078   9.576 -0.3606  0.5254 -1.2594
  174SOPE   H8Y19803   4.925   3.040   9.546 -0.6169 -0.7210  1.9099
  174SOPE   C3919804   5.067   2.931   9.426 -0.5120  0.8431  0.4904
  174SOPE   H9X19805   4.996   2.854   9.389  1.5177 -1.2162  0.7206
  174SOPE   H9Y19806   5.165   2.885   9.451 -0.2467  1.0281 -0.2041
  174SOPE  C31019807   5.076   3.032   9.323 -0.1586 -0.5866  0.5749
  174SOPE  H10X19808   5.161   3.098   9.351 -1.7500  1.2707  1.3122
  174SOPE  H10Y19809   4.979   3.086   9.333 -0.5994 -1.4677  1.1735
  174SOPE  C31119810   5.088   2.969   9.185 -0.7431 -0.5170  0.5116
  174SOPE  H11X19811   4.991   2.921   9.160 -1.2717 -0.0564  1.6330
  174SOPE  H11Y19812   5.173   2.899   9.170 -0.5259  0.3038 -3.0136
  174SOPE  C31219813   5.116   3.070   9.078 -0.3902 -0.8378  0.0741
  174SOPE  H12X19814   5.199   3.127   9.123 -1.2496 -0.0051  0.6485
  174SOPE  H12Y19815   5.030   3.139   9.061 -0.3287 -0.7486  0.1274
  174SOPE  C31319816   5.168   3.014   8.945  0.2243  0.2878 -0.4586
  174SOPE  H13X19817   5.072   2.971   8.911 -0.6910  1.1704  0.8870
  174SOPE  H13Y19818   5.244   2.935   8.965  1.8508  2.0710  0.8080
  174SOPE  C31419819   5.223   3.127   8.860 -0.1680 -0.7073  0.2877
  174SOPE  H14X19820   5.317   3.164   8.907 -1.3970  0.6528  1.8028
  174SOPE  H14Y19821   5.158   3.216   8.849 -0.3469 -1.0976 -3.1004
  174SOPE  C31519822   5.259   3.064   8.721  0.1704  0.0353 -0.6688
  174SOPE  H15X19823   5.311   2.967   8.725 -0.1324 -0.0806  2.2817
  174SOPE  H15Y19824   5.324   3.144   8.678  1.6163  0.2502  1.7592
  174SOPE  C31619825   5.129   3.049   8.628  0.2117  0.0317  0.1625
  174SOPE  H16X19826   5.050   3.127   8.640 -3.5468 -3.7032  2.8618
  174SOPE  H16Y19827   5.088   2.952   8.663 -0.8812  0.2665 -0.4478
  174SOPE  C31719828   5.170   3.030   8.482  0.0046  1.2723  0.4165
  174SOPE  H17X19829   5.175   2.919   8.472 -1.4526  0.9858  2.3390
  174SOPE  H17Y19830   5.270   3.074   8.462  2.0395 -3.3200 -1.0484
  174SOPE  C31819831   5.079   3.086   8.377 -0.1817  0.1670  0.1160
  174SOPE  H18X19832   4.975   3.052   8.398 -0.4516  0.0491 -1.2883
  174SOPE  H18Y19833   5.106   3.044   8.277  1.8312  0.0865  0.6508
  174SOPE  H18Z19834   5.074   3.196   8.369 -2.1247  0.0429 -1.3212
  175SOPE     N19835   1.573   4.827  10.522  0.2423 -0.5287  0.4363
  175SOPE   HN119836   1.579   4.892  10.604  1.3362 -1.1307  0.8489
  175SOPE   HN219837   1.668   4.792  10.496 -0.7800 -2.4160 -0.9402
  175SOPE   HN319838   1.531   4.868  10.436  1.6904 -0.7076 -0.3837
  175SOPE   C1219839   1.497   4.706  10.561  0.2305 -0.1261  0.1805
  175SOPE  H12A19840   1.523   4.680  10.666  0.6128 -0.1956  0.0724
  175SOPE  H12B19841   1.525   4.631  10.483  1.8763  1.0253 -0.3917
  175SOPE   C1119842   1.349   4.736  10.561 -0.0346 -0.5248  0.8364
  175SOPE  H11A19843   1.325   4.805  10.645  3.6023 -0.1394  1.7323
  175SOPE  H11B19844   1.304   4.635  10.565 -1.6768  0.0159 -1.4982
  175SOPE     P19845   1.171   4.835  10.394 -0.0301  0.5327  0.4154
  175SOPE   O1319846   1.187   4.956  10.312  0.0730 -0.4464  0.6098
  175SOPE   O1419847   1.081   4.845  10.509  0.2149  0.3882 -0.4693
  175SOPE   O1219848   1.314   4.798  10.439  0.2681  0.1636  0.7821
  175SOPE   O1119849   1.108   4.730  10.296 -0.2745 -0.0415  0.0996
  175SOPE    C119850   1.144   4.591  10.299 -0.7186  0.0861  0.4602
  175SOPE    HA19851   1.048   4.537  10.315 -1.0830  0.2370 -1.0488
  175SOPE    HB19852   1.217   4.560  10.377  0.6163  1.4433 -0.2044
  175SOPE    C219853   1.200   4.537  10.161  0.0977 -0.2930 -0.2603
  175SOPE    HS19854   1.222   4.429  10.177  0.1512  0.0235  2.4147
  175SOPE   O2119855   1.315   4.616  10.120 -0.2853 -0.2762  0.4110
  175SOPE   C2119856   1.431   4.581  10.168  0.2000  0.4575 -0.9053
  175SOPE   O2219857   1.454   4.504  10.258  0.0458  0.0456  0.3263
  175SOPE   C2219858   1.539   4.641  10.077  0.4393  0.5062  0.4292
  175SOPE   H2R19859   1.630   4.667  10.135  0.4787  0.4784  0.3797
  175SOPE   H2S19860   1.497   4.735  10.033 -0.1712 -0.2918 -0.7281
  175SOPE    C319861   1.090   4.561  10.060  0.2544  0.7859  0.1106
  175SOPE    HX19862   1.076   4.671  10.056  0.1575  0.7776  0.2267
  175SOPE    HY19863   0.994   4.511  10.086  0.8816 -2.8076 -3.3997
  175SOPE   O3119864   1.148   4.512   9.937  0.9600 -0.4524 -0.0606
  175SOPE   C3119865   1.101   4.393   9.909  0.9224  0.4738 -0.0034
  175SOPE   O3219866   1.037   4.315   9.984 -0.2639 -0.1434 -0.1464
  175SOPE   C3219867   1.144   4.354   9.769  0.0310 -0.1658 -0.3547
  175SOPE   H2X19868   1.055   4.307   9.723  0.0999  0.7587 -1.4821
  175SOPE   H2Y19869   1.215   4.268   9.771  0.1869 -0.2899 -4.1333
  175SOPE   C2319870   1.576   4.542   9.964 -0.4409 -0.1317  0.7015
  175SOPE   H3R19871   1.495   4.523   9.891  0.7499  1.1084 -1.0248
  175SOPE   H3S19872   1.606   4.447  10.013 -0.3297 -1.4017 -1.6658
  175SOPE   C2419873   1.686   4.589   9.866 -0.3555  0.0817 -0.7557
  175SOPE   H4R19874   1.782   4.611   9.919 -0.9138  1.3558 -0.2318
  175SOPE   H4S19875   1.704   4.500   9.802 -3.1707 -3.0955  2.4038
  175SOPE   C2519876   1.653   4.711   9.774  0.5024  0.3478  0.4327
  175SOPE   H5R19877   1.640   4.794   9.848 -1.5308 -0.2684  0.8294
  175SOPE   H5S19878   1.728   4.728   9.695 -0.4424  0.8521 -0.3769
  175SOPE   C2619879   1.516   4.701   9.706 -0.1958  0.1006 -0.4018
  175SOPE   H6R19880   1.507   4.602   9.657  0.1240  0.1107 -0.4815
  175SOPE   H6S19881   1.441   4.701   9.787  0.2725 -1.2242  0.0533
  175SOPE   C2719882   1.460   4.809   9.607 -0.1664  0.2167 -0.6146
  175SOPE   H7R19883   1.354   4.777   9.598 -0.1849  0.2245 -0.4317
  175SOPE   H7S19884   1.443   4.910   9.651 -0.5812  0.3875 -1.1514
  175SOPE   C2819885   1.537   4.825   9.471  0.6689 -0.6937  0.2459
  175SOPE   H8R19886   1.486   4.909   9.418 -0.7652 -1.0264  1.0458
  175SOPE   H8S19887   1.644   4.843   9.494  0.5989 -1.0916  0.8898
  175SOPE   C2919888   1.530   4.696   9.389  0.0978  0.2679 -0.3850
  175SOPE   H9119889   1.609   4.622   9.407  0.1020  0.3626  0.0095
  175SOPE  C21019890   1.432   4.665   9.303  0.3843  0.3159 -0.3469
  175SOPE  H10119891   1.437   4.564   9.258  2.0952  0.1495  0.1362
  175SOPE  C21119892   1.312   4.742   9.256 -0.2360 -0.3131 -0.2748
  175SOPE  H11R19893   1.315   4.851   9.277  1.4980 -0.1873 -0.9886
  175SOPE  H11S19894   1.212   4.713   9.295 -0.0813  1.2099  1.3610
  175SOPE  C21219895   1.303   4.722   9.103  0.2469 -0.7343  0.2150
  175SOPE  H12R19896   1.215   4.775   9.061  0.1952  0.2868  1.5456
  175SOPE  H12S19897   1.285   4.614   9.089 -0.7344 -0.7380  1.3106
  175SOPE  C21319898   1.425   4.770   9.019 -0.5492 -0.5255  0.0833
  175SOPE  H13R19899   1.518   4.738   9.071 -0.2736  0.4526  0.2053
  175SOPE  H13S19900   1.427   4.881   9.016 -1.2992 -0.5119  0.0138
  175SOPE  C21419901   1.424   4.713   8.877 -0.8082 -0.6598  0.3376
  175SOPE  H14R19902   1.414   4.602   8.886  0.0529 -0.7483  0.3375
  175SOPE  H14S19903   1.525   4.717   8.830 -0.8184  2.0011  0.3887
  175SOPE  C21519904   1.310   4.772   8.791  0.3595  0.2804 -0.1352
  175SOPE  H15R19905   1.346   4.869   8.750  2.2502 -0.4661 -0.3101
  175SOPE  H15S19906   1.219   4.795   8.850  0.8230  1.8956  0.0073
  175SOPE  C21619907   1.272   4.691   8.668  0.3893 -0.2371 -0.1592
  175SOPE  H16R19908   1.293   4.585   8.697  0.6618 -0.4153 -0.9802
  175SOPE  H16S19909   1.339   4.718   8.583 -0.9327  0.2573 -1.0594
  175SOPE  C21719910   1.120   4.692   8.639  0.7810 -0.4402  0.5212
  175SOPE  H17R19911   1.048   4.676   8.722  1.2775 -3.0375  0.5335
  175SOPE  H17S19912   1.104   4.607   8.570 -2.0387  1.4010 -1.2736
  175SOPE  C21819913   1.064   4.824   8.582  0.3067 -0.6854 -0.2085
  175SOPE  H18R19914   0.978   4.799   8.516  2.2666 -2.8091 -2.1093
  175SOPE  H18S19915   1.141   4.881   8.525  1.3369 -1.3385  0.4992
  175SOPE  H18T19916   1.032   4.892   8.665  1.4215  0.0594 -0.3635
  175SOPE   C3319917   1.205   4.475   9.689  0.6732  0.4095 -0.3761
  175SOPE   H3X19918   1.305   4.506   9.727  1.1160  0.1021 -1.2660
  175SOPE   H3Y19919   1.139   4.563   9.704 -0.6937 -0.5178 -0.7834
  175SOPE   C3419920   1.209   4.439   9.540 -1.3237  0.1245  0.0896
  175SOPE   H4X19921   1.220   4.329   9.542 -1.6703  0.0157 -1.8383
  175SOPE   H4Y19922   1.300   4.491   9.502 -1.4231 -0.1836 -0.5759
  175SOPE   C3519923   1.087   4.474   9.457 -0.0256 -0.3849  0.4437
  175SOPE   H5X19924   1.085   4.585   9.453  0.4479 -0.4114 -1.1275
  175SOPE   H5Y19925   0.992   4.444   9.507  0.2330 -1.3501  0.3746
  175SOPE   C3619926   1.091   4.401   9.321  0.0247  0.2748 -0.5454
  175SOPE   H6X19927   1.064   4.294   9.336  0.2078  0.1948 -0.7817
  175SOPE   H6Y19928   1.196   4.405   9.286  0.6476 -0.7801  1.0878
  175SOPE   C3719929   0.990   4.461   9.226 -0.1796  0.9975  0.3064
  175SOPE   H7X19930   1.001   4.572   9.226 -2.3313  1.2519  0.9273
  175SOPE   H7Y19931   0.887   4.423   9.245 -0.0269  0.9077  0.9662
  175SOPE   C3819932   1.035   4.425   9.084  0.0168  0.4180  0.1897
  175SOPE   H8X19933   1.022   4.316   9.070 -0.6716  0.6444 -1.2040
  175SOPE   H8Y19934   1.139   4.458   9.065 -0.8195  3.9400  0.8768
  175SOPE   C3919935   0.949   4.492   8.975 -0.0295  0.4072 -0.2362
  175SOPE   H9X19936   0.972   4.600   8.965  0.5245  0.3350  0.2256
  175SOPE   H9Y19937   0.840   4.487   8.995 -0.4304 -1.6448 -2.4007
  175SOPE  C31019938   0.969   4.439   8.829 -0.5009 -0.6262  0.6071
  175SOPE  H10X19939   0.976   4.329   8.823 -0.4773 -0.5599 -1.1693
  175SOPE  H10Y19940   1.064   4.477   8.787 -0.8077 -0.2621  0.2235
  175SOPE  C31119941   0.856   4.470   8.732 -0.4003  0.0798  0.7436
  175SOPE  H11X19942   0.848   4.579   8.710  2.0644  0.3184  0.8025
  175SOPE  H11Y19943   0.760   4.440   8.781 -0.1809  0.1886  1.2414
  175SOPE  C31219944   0.877   4.404   8.588 -0.4512  0.1701  0.3148
  175SOPE  H12X19945   0.978   4.445   8.568 -0.5371 -0.6936 -2.2813
  175SOPE  H12Y19946   0.800   4.428   8.512 -2.2504 -0.1087  1.9769
  175SOPE  C31319947   0.872   4.248   8.583  0.1150 -0.1968  0.0852
  175SOPE  H13X19948   0.777   4.217   8.632 -1.4976  3.3462 -0.4345
  175SOPE  H13Y19949   0.950   4.197   8.644  0.8412  0.4794 -0.2567
  175SOPE  C31419950   0.887   4.194   8.443 -0.0194  0.0254  0.4382
  175SOPE  H14X19951   0.989   4.218   8.405 -2.2247  3.4696 -4.4518
  175SOPE  H14Y19952   0.833   4.263   8.374 -0.9119 -0.1826  0.9106
  175SOPE  C31519953   0.847   4.050   8.414  0.1575  0.4677  0.2862
  175SOPE  H15X19954   0.872   4.020   8.310  0.3381 -0.9788  0.7300
  175SOPE  H15Y19955   0.737   4.044   8.429 -0.1619 -0.1645 -1.9381
  175SOPE  C31619956   0.929   3.947   8.506  0.1038  0.2942  0.1282
  175SOPE  H16X19957   0.912   3.975   8.612 -0.2768  2.0385 -0.3565
  175SOPE  H16Y19958   1.039   3.955   8.494  0.2273  0.7117  1.4786
  175SOPE  C31719959   0.889   3.799   8.482 -0.0904  0.0049  0.1196
  175SOPE  H17X19960   0.785   3.782   8.449 -0.7007  0.1910  1.8743
  175SOPE  H17Y19961   0.903   3.735   8.572  1.9829  2.2853  1.5430
  175SOPE  C31819962   0.995   3.745   8.377  0.1568  0.4880 -0.0469
  175SOPE  H18X19963   1.103   3.743   8.405  0.9120  0.3512 -2.6838
  175SOPE  H18Y19964   0.970   3.799   8.283 -1.4728 -1.2197 -0.6293
  175SOPE  H18Z19965   0.968   3.639   8.363  0.6521  0.3251  0.1760
  176SOPE     N19966   5.865   3.753  11.011  0.6393  0.4416 -0.4572
  176SOPE   HN119967   5.924   3.689  11.068 -2.0032 -1.0997  0.7252
  176SOPE   HN219968   5.789   3.784  11.074  0.2561 -0.5121 -0.4393
  176SOPE   HN319969   5.833   3.690  10.934  0.5098 -1.9281  1.4373
  176SOPE   C1219970   5.963   3.867  10.976 -0.1197  0.0324  0.2198
  176SOPE  H12A19971   6.027   3.823  10.896  1.1803  0.7066  0.8591
  176SOPE  H12B19972   6.027   3.878  11.066  0.7669  0.5456 -0.4583
  176SOPE   C1119973   5.900   3.995  10.936 -0.0872  0.1546 -0.2688
  176SOPE  H11A19974   5.884   3.990  10.826  1.3807 -2.4978 -0.4400
  176SOPE  H11B19975   5.969   4.081  10.951  0.4047 -0.3598  0.4697
  176SOPE     P19976   5.718   4.164  11.042  0.3364  0.0148  0.2124
  176SOPE   O1319977   5.808   4.222  11.143 -0.6648 -0.4762  0.1189
  176SOPE   O1419978   5.571   4.157  11.072 -0.4805 -0.0566 -0.4245
  176SOPE   O1219979   5.773   4.018  11.001  0.2955  0.2047 -0.4079
  176SOPE   O1119980   5.744   4.247  10.905 -0.1423 -0.0051 -0.0278
  176SOPE    C119981   5.640   4.238  10.805 -0.6712  0.2240  0.0967
  176SOPE    HA19982   5.599   4.338  10.780  1.7571  1.6301  1.3402
  176SOPE    HB19983   5.560   4.167  10.833 -2.2774  1.3124 -1.5304
  176SOPE    C219984   5.701   4.206  10.666 -0.3279 -0.2754 -0.2207
  176SOPE    HS19985   5.752   4.108  10.674  1.9338  0.7323 -1.2775
  176SOPE   O2119986   5.795   4.317  10.622  0.0184  0.2605  0.4391
  176SOPE   C2119987   5.916   4.273  10.603  0.3179  0.7212  0.7224
  176SOPE   O2219988   5.954   4.155  10.610  0.3858 -0.6449  0.2926
  176SOPE   C2219989   6.004   4.391  10.550  0.4343 -0.1804 -0.3960
  176SOPE   H2R19990   6.067   4.434  10.631 -0.4592  0.5481 -0.0657
  176SOPE   H2S19991   5.938   4.477  10.527 -0.1668 -0.9314 -1.5328
  176SOPE    C319992   5.591   4.176  10.559 -0.1547 -0.0405  0.2177
  176SOPE    HX19993   5.527   4.267  10.549  0.4489  0.2145 -1.6923
  176SOPE    HY19994   5.534   4.085  10.586  0.0820 -0.4450 -0.6045
  176SOPE   O3119995   5.657   4.152  10.436 -0.0090 -0.0320  0.8902
  176SOPE   C3119996   5.642   4.242  10.333  0.1011 -0.8835 -0.1557
  176SOPE   O3219997   5.577   4.344  10.337  0.1519  0.7712 -0.1290
  176SOPE   C3219998   5.723   4.189  10.224 -0.0344 -0.2963  0.3318
  176SOPE   H2X19999   5.657   4.105  10.194 -0.1954  0.0013 -0.1708
  176SOPE   H2Y20000   5.825   4.157  10.254 -0.1059 -1.1048 -0.2543
  176SOPE   C2320001   6.109   4.349  10.443 -0.8956  0.1910 -0.2650
  176SOPE   H3R20002   6.187   4.288  10.494 -0.3529  0.7633 -0.4002
  176SOPE   H3S20003   6.166   4.431  10.394  0.8539 -1.2971 -0.8447
  176SOPE   C2420004   6.047   4.271  10.332  0.1936  0.6411 -0.0511
  176SOPE   H4R20005   5.987   4.190  10.377 -0.4335  0.3694 -1.3212
  176SOPE   H4S20006   5.983   4.332  10.264 -2.0842  0.8996  2.1919
  176SOPE   C2520007   6.158   4.203  10.248  0.4695  0.4842 -0.2243
  176SOPE   H5R20008   6.227   4.286  10.222 -0.5908  2.3234  2.4781
  176SOPE   H5S20009   6.223   4.133  10.305 -0.1601 -1.2764 -1.5607
  176SOPE   C2620010   6.106   4.140  10.122  0.6131  0.1161 -0.2715
  176SOPE   H6R20011   6.018   4.077  10.149 -0.1590  1.6959  1.0641
  176SOPE   H6S20012   6.071   4.227  10.062  0.4168 -0.4030 -0.9260
  176SOPE   C2720013   6.220   4.073  10.043 -0.1243  0.0983  0.1604
  176SOPE   H7R20014   6.262   4.000  10.116 -0.1532  0.6717  0.7642
  176SOPE   H7S20015   6.189   4.019   9.951  2.2971 -2.7385  0.8257
  176SOPE   C2820016   6.329   4.171   9.999 -0.4131  0.0826 -0.0149
  176SOPE   H8R20017   6.293   4.241   9.921 -0.4729  1.3412  1.1013
  176SOPE   H8S20018   6.368   4.232  10.084  1.0468  1.0993 -1.3649
  176SOPE   C2920019   6.445   4.094   9.936  0.0913 -0.7515 -0.5551
  176SOPE   H9120020   6.490   4.015   9.999  0.1125 -0.5238 -0.2820
  176SOPE  C21020021   6.506   4.117   9.820 -0.7281  0.3823  0.2057
  176SOPE  H10120022   6.587   4.046   9.796 -1.1136  0.5466 -1.7311
  176SOPE  C21120023   6.478   4.221   9.721  0.1731  0.1460 -0.3004
  176SOPE  H11R20024   6.405   4.290   9.770  1.0509  0.9246 -0.0515
  176SOPE  H11S20025   6.424   4.186   9.631 -2.9110  0.3229  1.3492
  176SOPE  C21220026   6.608   4.281   9.677 -0.0307 -0.3592  0.2183
  176SOPE  H12R20027   6.667   4.323   9.761 -1.7534  1.3307  0.6665
  176SOPE  H12S20028   6.578   4.378   9.632 -0.6842 -0.1529  1.0539
  176SOPE  C21320029   6.689   4.202   9.574 -0.3400  0.0586 -0.9093
  176SOPE  H13R20030   6.625   4.160   9.494  1.3980  0.3299 -2.5349
  176SOPE  H13S20031   6.730   4.107   9.614 -0.0754  0.0021 -1.3092
  176SOPE  C21420032   6.803   4.281   9.504  0.2381  0.1218  0.6145
  176SOPE  H14R20033   6.895   4.288   9.565 -0.0726 -2.2970  1.4282
  176SOPE  H14S20034   6.765   4.378   9.464  2.9117  1.5729  1.3695
  176SOPE  C21520035   6.846   4.209   9.373  0.0502 -0.4882 -0.3004
  176SOPE  H15R20036   6.929   4.266   9.326 -0.7712  0.9463 -0.0809
  176SOPE  H15S20037   6.769   4.196   9.294 -0.3920 -0.2234  0.0829
  176SOPE  C21620038   6.906   4.067   9.398 -0.8581 -0.5377  0.7000
  176SOPE  H16R20039   6.817   4.012   9.437 -0.8280  0.0265  1.5777
  176SOPE  H16S20040   6.989   4.069   9.471 -0.7944 -0.5208  0.6265
  176SOPE  C21720041   6.961   4.012   9.263 -0.2836 -0.3710 -0.0869
  176SOPE  H17R20042   6.977   4.106   9.206 -3.1895  0.4121  0.1857
  176SOPE  H17S20043   6.876   3.958   9.216 -0.8614 -1.0919  1.6915
  176SOPE  C21820044   7.087   3.934   9.286 -0.5493 -0.1821  0.1989
  176SOPE  H18R20045   7.064   3.836   9.333  1.0466 -0.5181  0.3553
  176SOPE  H18S20046   7.165   3.990   9.343  1.2384 -2.1723 -0.1410
  176SOPE  H18T20047   7.130   3.910   9.187  1.9350 -1.9006  1.5709
  176SOPE   C3320048   5.732   4.288  10.104 -0.1499  0.2557 -0.6492
  176SOPE   H3X20049   5.798   4.375  10.127 -2.7525  2.2577 -0.3097
  176SOPE   H3Y20050   5.636   4.341  10.089 -0.3060  0.7243  1.6089
  176SOPE   C3420051   5.764   4.216   9.971  0.1147  0.8854 -0.8178
  176SOPE   H4X20052   5.669   4.172   9.933  0.0515 -0.2204  0.5520
  176SOPE   H4Y20053   5.829   4.126   9.981 -2.5187 -1.0836 -0.3543
  176SOPE   C3520054   5.833   4.313   9.872 -0.2170  0.6396 -0.2107
  176SOPE   H5X20055   5.923   4.349   9.927 -1.0782  0.0306  1.7144
  176SOPE   H5Y20056   5.765   4.399   9.857 -1.8434 -0.8820 -2.2031
  176SOPE   C3620057   5.875   4.258   9.738  0.6185 -0.2994 -0.5227
  176SOPE   H6X20058   5.919   4.339   9.676  1.3838 -0.4663 -0.2097
  176SOPE   H6Y20059   5.783   4.220   9.688  0.8841  0.4845 -1.6496
  176SOPE   C3720060   5.972   4.145   9.749  0.5174 -0.1096  0.7847
  176SOPE   H7X20061   5.949   4.084   9.839 -2.1158 -2.4426 -1.2922
  176SOPE   H7Y20062   6.076   4.184   9.754  0.8492 -0.8005 -0.5130
  176SOPE   C3820063   5.981   4.058   9.621  0.1414 -0.3571  0.1736
  176SOPE   H8X20064   6.013   4.118   9.533  3.6523 -1.3793  0.6195
  176SOPE   H8Y20065   5.881   4.013   9.602  0.0336  0.6257 -1.8264
  176SOPE   C3920066   6.094   3.954   9.620  0.5311  0.7896  0.3747
  176SOPE   H9X20067   6.098   3.901   9.717  1.2827  0.2935  0.0764
  176SOPE   H9Y20068   6.196   3.997   9.610  1.0778 -0.4052  0.7112
  176SOPE  C31020069   6.070   3.844   9.520  0.1289  0.5124 -0.1867
  176SOPE  H10X20070   5.972   3.796   9.539  0.2480  0.8587  1.4538
  176SOPE  H10Y20071   6.150   3.768   9.538 -0.6368 -0.5855 -1.3026
  176SOPE  C31120072   6.065   3.885   9.375 -1.2738 -0.7489  0.0605
  176SOPE  H11X20073   6.162   3.936   9.358 -0.9134 -1.2248  0.6209
  176SOPE  H11Y20074   5.989   3.964   9.360  0.4322  1.1673  0.9810
  176SOPE  C31220075   6.055   3.764   9.277 -0.0657 -0.4341  0.3150
  176SOPE  H12X20076   6.024   3.807   9.179  2.8034  0.6002 -0.2407
  176SOPE  H12Y20077   5.981   3.689   9.311  0.4899 -1.3855 -0.5233
  176SOPE  C31320078   6.187   3.691   9.249 -0.5166  0.1385 -0.1632
  176SOPE  H13X20079   6.232   3.646   9.339 -1.5597 -1.7956 -0.5495
  176SOPE  H13Y20080   6.259   3.772   9.225  0.2587 -0.3528  0.4531
  176SOPE  C31420081   6.180   3.576   9.141 -0.0218 -0.0997 -0.1253
  176SOPE  H14X20082   6.110   3.594   9.057 -1.6677 -0.1652  1.1798
  176SOPE  H14Y20083   6.134   3.494   9.201  0.8105 -1.9380 -1.8960
  176SOPE  C31520084   6.321   3.541   9.094 -0.3137  0.4504 -0.5571
  176SOPE  H15X20085   6.395   3.572   9.171  0.2001 -0.1594 -0.7951
  176SOPE  H15Y20086   6.354   3.592   9.001 -0.0666  0.1169 -0.6576
  176SOPE  C31620087   6.345   3.393   9.059 -0.0727 -0.0229  0.1494
  176SOPE  H16X20088   6.298   3.338   9.144 -1.4512 -2.9721 -2.3494
  176SOPE  H16Y20089   6.452   3.362   9.052 -0.5608 -2.2044  1.4037
  176SOPE  C31720090   6.281   3.339   8.930  0.2652  0.3215  0.3462
  176SOPE  H17X20091   6.347   3.361   8.844  0.5912 -1.7233  0.0278
  176SOPE  H17Y20092   6.188   3.400   8.927 -1.1382 -1.7232  0.0212
  176SOPE  C31820093   6.240   3.192   8.936  0.2604 -0.0388  0.0092
  176SOPE  H18X20094   6.163   3.166   9.011 -0.5827  0.7411 -0.5588
  176SOPE  H18Y20095   6.327   3.135   8.974  1.0433  1.6347  0.8294
  176SOPE  H18Z20096   6.209   3.159   8.834 -1.0647  1.7423 -0.2148
  177SOPE     N20097   0.455   3.633  11.030 -0.1090  0.3749  0.6734
  177SOPE   HN120098   0.505   3.712  11.075 -0.8665 -0.7271  3.6733
  177SOPE   HN220099   0.524   3.556  11.016  0.3046  0.7501  0.6396
  177SOPE   HN320100   0.414   3.668  10.942  1.4090 -0.0840 -0.2569
  177SOPE   C1220101   0.336   3.602  11.116  1.0183  0.2061 -0.1194
  177SOPE  H12A20102   0.268   3.689  11.104  4.0978  2.7859 -0.3182
  177SOPE  H12B20103   0.373   3.629  11.217  0.0662  1.1348 -0.0075
  177SOPE   C1120104   0.275   3.463  11.102 -0.1427  0.1250 -0.2805
  177SOPE  H11A20105   0.230   3.455  11.001 -0.2024 -1.4840 -0.1582
  177SOPE  H11B20106   0.196   3.446  11.178  2.1017  0.0118  2.1608
  177SOPE     P20107   0.328   3.218  11.176 -0.2698 -0.0859  0.4708
  177SOPE   O1320108   0.252   3.221  11.306  0.1777  0.1790  0.2718
  177SOPE   O1420109   0.440   3.126  11.170 -0.1803 -0.1880 -0.6326
  177SOPE   O1220110   0.374   3.360  11.122 -0.4833  0.1295 -0.1694
  177SOPE   O1120111   0.229   3.172  11.066 -0.2644  0.2968 -0.2613
  177SOPE    C120112   0.269   3.106  10.941 -0.2899 -0.4497  0.1210
  177SOPE    HA20113   0.235   3.000  10.944 -1.2118 -0.1810 -0.4964
  177SOPE    HB20114   0.379   3.102  10.926 -0.4452 -2.3620 -0.8065
  177SOPE    C220115   0.211   3.182  10.816 -0.0520  0.4872 -0.2223
  177SOPE    HS20116   0.121   3.239  10.848  0.4882  1.8663 -1.0616
  177SOPE   O2120117   0.165   3.082  10.723 -0.4022  0.1098 -0.2620
  177SOPE   C2120118   0.041   3.034  10.746 -0.9701 -0.1919 -0.5069
  177SOPE   O2220119  -0.027   3.063  10.843 -0.3038  0.0176 -0.6104
  177SOPE   C2220120   0.004   2.954  10.616  0.4174  0.3932 -0.0632
  177SOPE   H2R20121   0.060   2.859  10.607 -2.2152 -1.2809 -0.1253
  177SOPE   H2S20122   0.015   3.026  10.532 -1.7678  0.5353 -0.2894
  177SOPE    C320123   0.314   3.281  10.752 -0.0667 -0.0368 -0.6741
  177SOPE    HX20124   0.409   3.225  10.739  0.3818  0.2410  1.1049
  177SOPE    HY20125   0.333   3.368  10.819  0.8464 -0.5512 -0.2308
  177SOPE   O3120126   0.272   3.323  10.618  0.1249 -0.7906 -0.2897
  177SOPE   C3120127   0.200   3.430  10.614  0.1635  0.1544 -0.9502
  177SOPE   O3220128   0.137   3.483  10.708  0.0759  0.1585  0.6012
  177SOPE   C3220129   0.192   3.474  10.467  0.0300 -0.2291 -1.1268
  177SOPE   H2X20130   0.287   3.456  10.413 -0.0687 -1.3256 -0.9528
  177SOPE   H2Y20131   0.163   3.582  10.473  2.0919  0.2681  2.5389
  177SOPE   C2320132  -0.149   2.919  10.627 -0.0098 -0.8634  0.5629
  177SOPE   H3R20133  -0.213   3.006  10.602 -1.1602 -1.0523  2.6252
  177SOPE   H3S20134  -0.160   2.894  10.734  2.8404 -0.2861  1.0827
  177SOPE   C2420135  -0.188   2.804  10.541  0.4414 -0.1832 -0.6396
  177SOPE   H4R20136  -0.164   2.828  10.436  0.7301  1.1073 -0.2915
  177SOPE   H4S20137  -0.125   2.715  10.562 -0.4661 -0.5912  0.5210
  177SOPE   C2520138  -0.331   2.755  10.566 -0.2796 -0.1818 -0.4125
  177SOPE   H5R20139  -0.332   2.701  10.663  2.6150  0.3277 -0.0191
  177SOPE   H5S20140  -0.404   2.839  10.572  0.3585  0.2898  2.5872
  177SOPE   C2620141  -0.374   2.654  10.454 -0.0800 -0.2274  0.5786
  177SOPE   H6R20142  -0.353   2.707  10.359  0.0101  0.7613  1.1287
  177SOPE   H6S20143  -0.314   2.562  10.471 -2.1326 -1.8052 -0.4510
  177SOPE   C2720144  -0.509   2.609  10.472  0.5369 -0.3344  0.4055
  177SOPE   H7R20145  -0.525   2.566  10.573 -1.3188  1.2574  0.8580
  177SOPE   H7S20146  -0.580   2.694  10.464  1.3429  0.2341 -1.1324
  177SOPE   C2820147  -0.547   2.506  10.359  0.5523 -0.0909 -0.5947
  177SOPE   H8R20148  -0.565   2.571  10.271  1.5330  0.8440 -0.1229
  177SOPE   H8S20149  -0.463   2.436  10.342  1.5342  0.3670  1.9670
  177SOPE   C2920150  -0.662   2.418  10.397  0.5139 -0.0066  0.5575
  177SOPE   H9120151  -0.629   2.342  10.470  3.2035 -1.6535 -2.1390
  177SOPE  C21020152  -0.797   2.426  10.360 -0.0099  0.7182 -0.0961
  177SOPE  H10120153  -0.864   2.344  10.385  1.1753 -0.1698  0.2768
  177SOPE  C21120154  -0.860   2.529  10.269  0.3914 -0.1379  0.1692
  177SOPE  H11R20155  -0.793   2.617  10.264 -0.2409  0.3084 -1.0080
  177SOPE  H11S20156  -0.952   2.560  10.322 -1.9510  0.0521 -3.6152
  177SOPE  C21220157  -0.908   2.488  10.131 -0.4072 -0.1389  0.1928
  177SOPE  H12R20158  -0.978   2.402  10.140  0.6185 -1.1794 -1.3075
  177SOPE  H12S20159  -0.824   2.445  10.073 -0.1874  2.1874 -1.3455
  177SOPE  C21320160  -0.991   2.598  10.053  1.3991 -0.3025  0.9981
  177SOPE  H13R20161  -0.948   2.632   9.956  0.4756  0.2267  0.7563
  177SOPE  H13S20162  -0.985   2.686  10.120  3.9070  0.9879 -0.7557
  177SOPE  C21420163  -1.142   2.566  10.032  0.1345  0.1735  0.1483
  177SOPE  H14R20164  -1.197   2.517  10.114  1.2396 -1.3519  0.0210
  177SOPE  H14S20165  -1.150   2.494   9.948  0.5974  0.6753 -0.3419
  177SOPE  C21520166  -1.225   2.681   9.987  0.5004 -0.7702 -0.5541
  177SOPE  H15R20167  -1.307   2.635   9.929  1.9106 -1.3187 -2.1759
  177SOPE  H15S20168  -1.162   2.748   9.925  0.4863  0.4014  0.6402
  177SOPE  C21620169  -1.280   2.767  10.107  0.5489 -0.2288  1.3958
  177SOPE  H16R20170  -1.198   2.837  10.132  1.4487 -0.7357  0.0075
  177SOPE  H16S20171  -1.310   2.719  10.202 -1.3024  1.1126  1.5313
  177SOPE  C21720172  -1.391   2.858  10.057  0.5064  0.1605  0.3665
  177SOPE  H17R20173  -1.477   2.810  10.007 -0.2568 -0.5979  2.3206
  177SOPE  H17S20174  -1.352   2.938   9.990  1.6318  0.0183  0.8149
  177SOPE  C21820175  -1.455   2.924  10.178  0.1084 -0.5702 -0.1305
  177SOPE  H18R20176  -1.494   2.848  10.249  2.0913 -0.9698  0.6123
  177SOPE  H18S20177  -1.548   2.977  10.151  0.2218 -0.4370 -0.2610
  177SOPE  H18T20178  -1.381   2.989  10.230 -0.7102 -0.1793  0.5604
  177SOPE   C3320179   0.097   3.373  10.393  0.5930  0.3516  0.0432
  177SOPE   H3X20180   0.134   3.269  10.402  2.1287  1.0182  2.9065
  177SOPE   H3Y20181   0.100   3.396  10.284  1.8897 -1.5511 -0.3640
  177SOPE   C3420182  -0.057   3.365  10.428 -0.0495 -0.0876  0.1121
  177SOPE   H4X20183  -0.083   3.448  10.497  0.0109 -0.4386  0.5650
  177SOPE   H4Y20184  -0.080   3.276  10.490  0.8407  1.0350  2.1394
  177SOPE   C3520185  -0.140   3.369  10.303 -0.3481  0.2629  0.0131
  177SOPE   H5X20186  -0.115   3.447  10.228  0.6272 -0.0786 -0.0340
  177SOPE   H5Y20187  -0.243   3.383  10.343 -0.0247 -2.0103  1.8755
  177SOPE   C3620188  -0.151   3.229  10.232 -0.5616 -0.5449  0.0613
  177SOPE   H6X20189  -0.189   3.165  10.314  1.4284 -0.9490  0.7277
  177SOPE   H6Y20190  -0.048   3.190  10.217  0.2002  0.4879  2.1747
  177SOPE   C3720191  -0.247   3.230  10.109 -0.2440  0.1912 -0.0215
  177SOPE   H7X20192  -0.336   3.283  10.148 -0.6381  0.3636 -1.1120
  177SOPE   H7Y20193  -0.278   3.125  10.091 -2.4394  0.7778  0.0533
  177SOPE   C3820194  -0.185   3.292   9.983 -0.4603 -1.0062  0.6656
  177SOPE   H8X20195  -0.094   3.241   9.944  1.5853  0.8070  2.7242
  177SOPE   H8Y20196  -0.134   3.387  10.010  1.9491 -1.9710 -0.1823
  177SOPE   C3920197  -0.290   3.324   9.875 -0.2182 -0.4296 -0.2066
  177SOPE   H9X20198  -0.371   3.386   9.920 -0.0350 -0.4676  0.1734
  177SOPE   H9Y20199  -0.355   3.236   9.854 -1.1730 -0.2566  1.7591
  177SOPE  C31020200  -0.239   3.373   9.747 -0.0628 -0.5044 -0.6266
  177SOPE  H10X20201  -0.158   3.303   9.718 -0.8084 -1.5914 -0.1515
  177SOPE  H10Y20202  -0.205   3.478   9.734  0.5711 -0.5004  0.8704
  177SOPE  C31120203  -0.339   3.356   9.634  0.6985 -0.5531 -0.4193
  177SOPE  H11X20204  -0.388   3.455   9.625  0.1260 -0.7649  0.3162
  177SOPE  H11Y20205  -0.427   3.295   9.665  0.1942  0.4630  0.1765
  177SOPE  C31220206  -0.285   3.321   9.502 -0.0751  1.0894  0.5744
  177SOPE  H12X20207  -0.212   3.239   9.516 -0.3953  0.6111 -0.4918
  177SOPE  H12Y20208  -0.224   3.406   9.462  2.1261 -0.2893  0.8294
  177SOPE  C31320209  -0.389   3.280   9.393 -0.1793 -0.0892  0.2656
  177SOPE  H13X20210  -0.333   3.268   9.298  1.8444 -1.2190  1.5236
  177SOPE  H13Y20211  -0.465   3.358   9.373  2.0421  2.1533  0.1344
  177SOPE  C31420212  -0.450   3.143   9.422  0.9858 -0.0916  0.4311
  177SOPE  H14X20213  -0.502   3.150   9.521  1.3849  2.6228  0.5301
  177SOPE  H14Y20214  -0.382   3.056   9.423 -0.9174 -1.6644  1.1702
  177SOPE  C31520215  -0.568   3.133   9.314 -0.9954 -0.3470  0.5381
  177SOPE  H15X20216  -0.531   3.159   9.213 -1.4574  1.3032  0.7671
  177SOPE  H15Y20217  -0.642   3.212   9.340 -2.0038 -0.9814 -0.2991
  177SOPE  C31620218  -0.640   2.992   9.323 -0.5217 -0.5203  0.1445
  177SOPE  H16X20219  -0.651   2.989   9.433 -1.2121  0.5565  0.1170
  177SOPE  H16Y20220  -0.566   2.912   9.297 -0.3552 -0.4748  0.4744
  177SOPE  C31720221  -0.769   2.984   9.243  0.5169 -0.2272  0.0298
  177SOPE  H17X20222  -0.750   2.975   9.134 -0.4169  2.8985 -0.4845
  177SOPE  H17Y20223  -0.825   3.079   9.255  1.8936  0.4226  1.6945
  177SOPE  C31820224  -0.846   2.859   9.291  0.1925 -0.2822 -0.1541
  177SOPE  H18X20225  -0.939   2.824   9.241 -0.9980  1.6760  0.5498
  177SOPE  H18Y20226  -0.865   2.892   9.396  1.2385  0.1374 -0.0816
  177SOPE  H18Z20227  -0.778   2.772   9.303 -1.0376 -1.0448  1.9216
  178SOPE     N20228   2.912   0.235  10.734  0.4014  0.5436  0.7479
  178SOPE   HN120229   2.894   0.324  10.684 -1.8468 -0.2206  0.0838
  178SOPE   HN220230   2.918   0.152  10.672 -0.3407  0.0742  1.2812
  178SOPE   HN320231   2.827   0.228  10.794 -0.4976 -3.8274 -0.7208
  178SOPE   C1220232   3.037   0.271  10.811 -0.9225 -0.6247 -0.2810
  178SOPE  H12A20233   3.055   0.200  10.894 -0.1929 -0.3293 -0.1770
  178SOPE  H12B20234   3.025   0.372  10.857  1.2819 -0.0589 -0.8131
  178SOPE   C1120235   3.158   0.263  10.704  0.0063 -0.0585 -0.9415
  178SOPE  H11A20236   3.251   0.266  10.764 -0.5462 -2.2760  0.1460
  178SOPE  H11B20237   3.147   0.352  10.638 -2.3466  0.8901  0.6070
  178SOPE     P20238   3.213   0.011  10.698  0.2300 -0.1585 -0.4416
  178SOPE   O1320239   3.109  -0.032  10.796  0.1596 -0.2102  0.1549
  178SOPE   O1420240   3.347   0.041  10.754 -0.2894 -0.3192  0.4729
  178SOPE   O1220241   3.158   0.135  10.628  0.6155 -0.0357 -0.2661
  178SOPE   O1120242   3.238  -0.095  10.579  0.2775  0.0475 -0.2471
  178SOPE    C120243   3.145  -0.122  10.476  1.0129 -0.0558 -0.4892
  178SOPE    HA20244   3.161  -0.069  10.379 -1.0716  1.2654 -0.1740
  178SOPE    HB20245   3.041  -0.116  10.514  0.4249 -3.4375 -1.2232
  178SOPE    C220246   3.144  -0.267  10.433 -0.2470  0.3216  0.3232
  178SOPE    HS20247   3.139  -0.334  10.522  0.7589  1.3736  1.2127
  178SOPE   O2120248   3.265  -0.295  10.354 -0.2616  0.4237  0.0908
  178SOPE   C2120249   3.294  -0.414  10.317  0.3265  0.1216 -0.8485
  178SOPE   O2220250   3.223  -0.518  10.327 -0.5473  0.4678 -0.5731
  178SOPE   C2220251   3.429  -0.414  10.252 -0.4994 -0.1327  0.1908
  178SOPE   H2R20252   3.473  -0.508  10.293  1.8688 -0.0908 -1.9908
  178SOPE   H2S20253   3.501  -0.339  10.291  0.8770 -0.0507 -2.2994
  178SOPE    C320254   3.013  -0.297  10.348 -0.7582 -0.4811  0.0876
  178SOPE    HX20255   2.933  -0.283  10.425 -1.0285  0.4140 -0.3479
  178SOPE    HY20256   3.009  -0.406  10.324  0.5034 -0.5218  0.0148
  178SOPE   O3120257   2.988  -0.227  10.222 -0.2802  0.1584  0.5515
  178SOPE   C3120258   2.890  -0.132  10.237 -0.6277  0.2553  0.0636
  178SOPE   O3220259   2.837  -0.101  10.338 -0.7987  0.0091 -0.3452
  178SOPE   C3220260   2.872  -0.049  10.106  0.2680 -0.2101  0.3066
  178SOPE   H2X20261   2.784  -0.090  10.052  0.3276  1.0591 -0.8008
  178SOPE   H2Y20262   2.962  -0.069  10.043 -0.8954  0.8408 -1.8024
  178SOPE   C2320263   3.435  -0.441  10.101  0.3651 -0.0620  0.6462
  178SOPE   H3R20264   3.406  -0.353  10.039  1.0333 -0.0302  0.3679
  178SOPE   H3S20265   3.361  -0.518  10.072 -0.3477  1.8154 -3.1402
  178SOPE   C2420266   3.561  -0.512  10.047 -0.1086 -0.1776  0.3219
  178SOPE   H4R20267   3.629  -0.430  10.016  0.9420 -0.4620  1.7811
  178SOPE   H4S20268   3.602  -0.573  10.130 -0.8708  0.4354  1.1626
  178SOPE   C2520269   3.535  -0.609   9.931  0.5831  0.0645  0.3953
  178SOPE   H5R20270   3.629  -0.660   9.902  0.2825 -0.8499  0.9819
  178SOPE   H5S20271   3.473  -0.691   9.974  1.3972 -0.4772  0.5500
  178SOPE   C2620272   3.470  -0.563   9.798  0.4528  0.3236 -0.2025
  178SOPE   H6R20273   3.371  -0.520   9.827 -0.2947 -0.6706 -1.2296
  178SOPE   H6S20274   3.521  -0.481   9.743 -0.0940  1.1001  0.4109
  178SOPE   C2720275   3.438  -0.678   9.701  0.1098  0.3452  0.3762
  178SOPE   H7R20276   3.534  -0.724   9.669 -0.9221 -0.5467 -1.6205
  178SOPE   H7S20277   3.381  -0.760   9.751  2.0417 -0.6947  0.9798
  178SOPE   C2820278   3.355  -0.639   9.577  0.0972 -0.3545 -0.3597
  178SOPE   H8R20279   3.295  -0.727   9.545  0.1365 -0.1289 -1.0910
  178SOPE   H8S20280   3.283  -0.555   9.586  0.8819  0.8554 -3.8312
  178SOPE   C2920281   3.448  -0.594   9.467 -0.8407 -0.1635 -0.1389
  178SOPE   H9120282   3.497  -0.497   9.487 -1.7251  0.3481 -0.3503
  178SOPE  C21020283   3.468  -0.665   9.355 -0.9651  0.7759 -0.3689
  178SOPE  H10120284   3.537  -0.635   9.275 -0.4815  0.6679  0.0035
  178SOPE  C21120285   3.421  -0.800   9.307 -0.6927  0.0992 -0.6205
  178SOPE  H11R20286   3.323  -0.794   9.255 -1.1115  1.7801  0.2936
  178SOPE  H11S20287   3.408  -0.863   9.398  0.5218  0.0316 -0.4661
  178SOPE  C21220288   3.507  -0.873   9.209  0.0087  0.0618  0.7259
  178SOPE  H12R20289   3.495  -0.984   9.203  0.3052  0.0977 -1.0188
  178SOPE  H12S20290   3.614  -0.849   9.227 -0.0473  0.7252  0.2125
  178SOPE  C21320291   3.492  -0.809   9.064 -0.1798 -0.2169 -0.9152
  178SOPE  H13R20292   3.477  -0.698   9.067  0.2261 -0.1524 -1.1682
  178SOPE  H13S20293   3.406  -0.853   9.009 -0.9917 -0.1406  0.2668
  178SOPE  C21420294   3.619  -0.844   8.974  0.1545 -0.1945 -0.1013
  178SOPE  H14R20295   3.638  -0.953   8.972 -1.6824 -0.5523  0.3685
  178SOPE  H14S20296   3.703  -0.782   9.012 -0.5853  0.2407  0.8539
  178SOPE  C21520297   3.602  -0.810   8.825  0.1661  0.5380  0.3331
  178SOPE  H15R20298   3.582  -0.701   8.821 -0.1859  0.4984  0.9408
  178SOPE  H15S20299   3.516  -0.861   8.776 -1.1840  2.8354  0.1664
  178SOPE  C21620300   3.735  -0.832   8.734 -0.4267  0.3675  0.0235
  178SOPE  H16R20301   3.762  -0.940   8.740 -2.6282 -0.1740  2.0088
  178SOPE  H16S20302   3.815  -0.773   8.784  1.6993 -0.8583 -1.7813
  178SOPE  C21720303   3.727  -0.779   8.596  0.3409  0.5608  0.9510
  178SOPE  H17R20304   3.819  -0.786   8.534 -1.3700  0.5025 -1.7482
  178SOPE  H17S20305   3.718  -0.669   8.615 -0.8103  0.5319  0.6415
  178SOPE  C21820306   3.605  -0.839   8.510 -0.2489  0.1717  0.0414
  178SOPE  H18R20307   3.603  -0.795   8.408 -0.6659 -0.5525 -0.2775
  178SOPE  H18S20308   3.507  -0.824   8.561  0.7789 -0.5304  2.3622
  178SOPE  H18T20309   3.635  -0.946   8.503 -0.0609  0.2924 -1.4618
  178SOPE   C3320310   2.837   0.102  10.111  0.2707 -0.3123 -0.6029
  178SOPE   H3X20311   2.923   0.159  10.152 -0.2103 -0.2659  0.3834
  178SOPE   H3Y20312   2.750   0.110  10.181  0.2358 -0.0091 -0.6829
  178SOPE   C3420313   2.783   0.165   9.980  0.4919 -0.3971 -0.3634
  178SOPE   H4X20314   2.772   0.275   9.984  1.9159 -0.1195 -2.3922
  178SOPE   H4Y20315   2.685   0.120   9.953 -0.3283  0.1746  1.5081
  178SOPE   C3520316   2.871   0.137   9.857 -0.6604 -0.4486 -0.6989
  178SOPE   H5X20317   2.885   0.028   9.847  3.3993 -0.5079  2.7157
  178SOPE   H5Y20318   2.970   0.178   9.886 -0.5624 -2.2224  1.7845
  178SOPE   C3620319   2.825   0.210   9.730  0.1089 -0.3502  0.4080
  178SOPE   H6X20320   2.818   0.318   9.755  2.8688 -0.2507  1.0302
  178SOPE   H6Y20321   2.723   0.171   9.708  0.1189  0.7493 -1.9105
  178SOPE   C3720322   2.920   0.192   9.609  0.6635  0.2801 -0.0407
  178SOPE   H7X20323   2.932   0.088   9.575 -2.0570 -0.4386  0.9400
  178SOPE   H7Y20324   3.011   0.253   9.627  1.1441  0.7535 -3.3951
  178SOPE   C3820325   2.856   0.263   9.483 -0.1556 -0.3894  0.4436
  178SOPE   H8X20326   2.821   0.365   9.508 -2.1290 -0.5388 -1.4625
  178SOPE   H8Y20327   2.768   0.207   9.445  0.9620 -1.0091 -1.4080
  178SOPE   C3920328   2.944   0.270   9.358  0.5963  0.3150  0.3769
  178SOPE   H9X20329   2.972   0.176   9.305 -1.9914 -0.4012  0.1307
  178SOPE   H9Y20330   3.038   0.328   9.374 -0.3330  2.5220 -1.6921
  178SOPE  C31020331   2.863   0.344   9.248 -0.9418 -0.5669 -0.4297
  178SOPE  H10X20332   2.856   0.447   9.290  0.1179 -0.7316  0.1821
  178SOPE  H10Y20333   2.760   0.302   9.241 -1.8247 -0.3207  5.7435
  178SOPE  C31120334   2.938   0.323   9.115 -0.6742  0.3009  0.5229
  178SOPE  H11X20335   2.909   0.218   9.093 -0.9806  0.5413 -0.2791
  178SOPE  H11Y20336   3.048   0.325   9.127 -0.1629  0.0045 -2.9878
  178SOPE  C31220337   2.892   0.426   9.007  0.2109  0.5039  0.9090
  178SOPE  H12X20338   2.935   0.521   9.046  1.9734 -0.2732  0.9690
  178SOPE  H12Y20339   2.783   0.420   8.989  0.5334  0.2562 -1.2394
  178SOPE  C31320340   2.971   0.389   8.877  0.0281  0.1779 -0.1946
  178SOPE  H13X20341   2.899   0.323   8.824 -1.4350 -1.5249  3.6198
  178SOPE  H13Y20342   3.058   0.324   8.900  1.4970  2.6884  1.8075
  178SOPE  C31420343   2.991   0.516   8.795 -0.5071 -0.1615  0.7612
  178SOPE  H14X20344   3.043   0.593   8.857 -1.1138  0.2939  0.7189
  178SOPE  H14Y20345   2.889   0.558   8.779  0.2345  1.3745 -0.2230
  178SOPE  C31520346   3.053   0.483   8.662  0.1672 -0.3127  0.5207
  178SOPE  H15X20347   3.000   0.407   8.600  0.3942  1.7403 -2.3631
  178SOPE  H15Y20348   3.156   0.452   8.688  0.2107 -0.1951  0.4856
  178SOPE  C31620349   3.057   0.609   8.566  1.0519  0.0253 -0.2790
  178SOPE  H16X20350   3.119   0.579   8.479  1.4373 -2.1825  0.7070
  178SOPE  H16Y20351   3.113   0.696   8.607  2.1767  0.9755 -3.4738
  178SOPE  C31720352   2.924   0.670   8.512  0.6931 -0.4678  0.2952
  178SOPE  H17X20353   2.952   0.749   8.439 -3.4985 -1.2624 -2.4954
  178SOPE  H17Y20354   2.877   0.718   8.600  0.8845 -1.5143  0.9888
  178SOPE  C31820355   2.841   0.567   8.436  1.0380 -0.0409 -0.1290
  178SOPE  H18X20356   2.744   0.606   8.400  0.0043 -3.2239 -1.0700
  178SOPE  H18Y20357   2.820   0.487   8.509 -3.7664 -0.2199 -1.3949
  178SOPE  H18Z20358   2.901   0.523   8.353  1.9925  3.4584 -1.4948
  179SOPE     N20359   0.309   3.177   6.146  0.0220  0.7937  0.3729
  179SOPE   HN120360   0.406   3.198   6.178  2.0269  0.1215 -4.4640
  179SOPE   HN220361   0.299   3.239   6.064  0.1570 -2.0754 -1.9937
  179SOPE   HN320362   0.233   3.207   6.211 -1.0904  0.1372 -0.5777
  179SOPE   C1220363   0.301   3.029   6.092 -0.2890  0.7461  0.4323
  179SOPE  H12A20364   0.373   3.016   6.009  1.1173  1.3831  1.4949
  179SOPE  H12B20365   0.197   3.018   6.054 -0.3729 -0.9212  1.0956
  179SOPE   C1120366   0.319   2.924   6.203 -0.2441  0.8624  0.3885
  179SOPE  H11A20367   0.415   2.942   6.254  0.1949  2.6371 -0.9645
  179SOPE  H11B20368   0.316   2.829   6.145  2.8581  0.8062  0.1519
  179SOPE     P20369   0.175   2.810   6.382 -0.3085 -0.2140  0.4442
  179SOPE   O1320370   0.274   2.704   6.355 -0.0210  0.0338 -0.6434
  179SOPE   O1420371   0.037   2.765   6.351 -0.2356  0.0567  0.0785
  179SOPE   O1220372   0.207   2.936   6.297  0.2391  0.0498 -0.4299
  179SOPE   O1120373   0.190   2.854   6.530 -0.4929 -0.4721 -0.5834
  179SOPE    C120374   0.276   2.957   6.573  0.6431  0.1821  0.5569
  179SOPE    HA20375   0.237   3.018   6.657  0.3760  1.3766 -0.4026
  179SOPE    HB20376   0.301   3.029   6.493  0.8501 -0.9742 -0.4425
  179SOPE    C220377   0.409   2.897   6.619  0.4459  0.1142  0.4641
  179SOPE    HS20378   0.449   2.836   6.535  2.6950  2.5774 -0.3906
  179SOPE   O2120379   0.377   2.824   6.747 -0.2030  0.0905 -0.3440
  179SOPE   C2120380   0.459   2.732   6.781  0.2916  0.2143  0.4392
  179SOPE   O2220381   0.568   2.714   6.724 -0.2736  0.2342  0.3183
  179SOPE   C2220382   0.408   2.661   6.904  0.4447  0.1724 -0.2753
  179SOPE   H2R20383   0.435   2.554   6.900  2.2930  0.5519  0.8691
  179SOPE   H2S20384   0.297   2.660   6.911  0.5350 -1.8209  2.5582
  179SOPE    C320385   0.518   3.004   6.632 -0.8155  0.0696  0.1557
  179SOPE    HX20386   0.521   3.062   6.537  0.0185  0.3200  0.3294
  179SOPE    HY20387   0.618   2.957   6.646 -0.9059 -0.9956 -2.1480
  179SOPE   O3120388   0.482   3.104   6.728 -0.6161  0.7020 -0.1493
  179SOPE   C3120389   0.540   3.087   6.853  0.2800  0.8201 -0.0134
  179SOPE   O3220390   0.627   3.007   6.881 -0.3701  0.0810 -0.0282
  179SOPE   C3220391   0.461   3.169   6.952 -0.6680 -0.6530  0.2019
  179SOPE   H2X20392   0.357   3.131   6.951 -1.8050  2.2461 -1.6767
  179SOPE   H2Y20393   0.469   3.272   6.912 -1.2933 -0.8890 -0.5584
  179SOPE   C2320394   0.468   2.737   7.031 -0.3727 -0.4466 -0.4837
  179SOPE   H3R20395   0.439   2.844   7.024  0.2885 -0.2180  0.1196
  179SOPE   H3S20396   0.579   2.735   7.027 -0.3755 -1.7676 -0.1872
  179SOPE   C2420397   0.422   2.651   7.149 -0.1104  0.3933  0.6837
  179SOPE   H4R20398   0.314   2.626   7.136  0.4778 -2.1807  0.3524
  179SOPE   H4S20399   0.478   2.556   7.141 -0.8729 -0.0144  0.0664
  179SOPE   C2520400   0.462   2.716   7.276 -0.0988 -0.3129 -0.6048
  179SOPE   H5R20401   0.572   2.708   7.287 -0.3896 -1.2596  3.1941
  179SOPE   H5S20402   0.437   2.824   7.275 -0.0045 -0.2951 -1.2178
  179SOPE   C2620403   0.396   2.650   7.394 -0.2740 -0.3071  0.0150
  179SOPE   H6R20404   0.285   2.655   7.389 -0.2959  1.8565  1.3591
  179SOPE   H6S20405   0.426   2.544   7.402  2.1260  0.4231  2.1219
  179SOPE   C2720406   0.448   2.727   7.517 -0.2212  1.0612 -0.3459
  179SOPE   H7R20407   0.557   2.748   7.506 -0.3376  1.4236 -0.8310
  179SOPE   H7S20408   0.396   2.825   7.523 -1.4384  0.3498  1.5211
  179SOPE   C2820409   0.426   2.657   7.646 -0.1858  0.9610  0.2156
  179SOPE   H8R20410   0.325   2.611   7.645  0.7869 -1.2999  0.3687
  179SOPE   H8S20411   0.500   2.576   7.664 -1.5386 -0.1669  0.9113
  179SOPE   C2920412   0.433   2.750   7.765 -0.1774 -0.1458  0.4825
  179SOPE   H9120413   0.531   2.794   7.787  0.2838 -1.5031  1.2547
  179SOPE  C21020414   0.331   2.782   7.845  0.4526 -0.3178 -0.0859
  179SOPE  H10120415   0.344   2.862   7.918 -1.9308  0.6886 -0.6670
  179SOPE  C21120416   0.188   2.737   7.844  0.5998  0.2332  0.2881
  179SOPE  H11R20417   0.175   2.639   7.795  0.3137  0.9278 -1.0852
  179SOPE  H11S20418   0.121   2.804   7.784  0.1850  0.0480  0.5387
  179SOPE  C21220419   0.127   2.704   7.983 -0.2542  0.2048  0.2468
  179SOPE  H12R20420   0.185   2.635   8.049 -2.0713 -0.0959  1.6062
  179SOPE  H12S20421   0.032   2.649   7.965 -0.4438  0.5902  0.0693
  179SOPE  C21320422   0.083   2.829   8.072 -0.5274 -0.6915  0.2609
  179SOPE  H13R20423   0.026   2.884   7.994 -0.1813 -0.8148 -0.0814
  179SOPE  H13S20424   0.172   2.891   8.095 -0.6679 -0.1275 -0.6240
  179SOPE  C21420425   0.013   2.797   8.200  0.5178  0.2014  0.3549
  179SOPE  H14R20426  -0.044   2.703   8.191 -0.8093  0.8692  1.5382
  179SOPE  H14S20427  -0.051   2.885   8.223 -1.0837 -0.3436 -1.7331
  179SOPE  C21520428   0.109   2.760   8.313 -0.5961  0.1931  0.7572
  179SOPE  H15R20429   0.184   2.840   8.332  0.2725 -0.3465 -0.2691
  179SOPE  H15S20430   0.163   2.670   8.278 -1.9694 -0.3149 -0.1271
  179SOPE  C21620431   0.046   2.711   8.438 -0.8115  0.1584 -0.7505
  179SOPE  H16R20432   0.135   2.659   8.480  0.4884  2.1089 -0.9555
  179SOPE  H16S20433  -0.036   2.641   8.411 -1.6452  0.6843  0.3228
  179SOPE  C21720434  -0.027   2.813   8.529 -0.2326  0.4650  0.3429
  179SOPE  H17R20435  -0.056   2.766   8.625  1.8877  2.7174  2.2197
  179SOPE  H17S20436  -0.119   2.831   8.469 -0.1590 -1.7516 -0.5305
  179SOPE  C21820437   0.049   2.938   8.577  0.4226 -0.8999  0.4588
  179SOPE  H18R20438   0.136   2.914   8.643  0.3300 -0.6232  0.6812
  179SOPE  H18S20439  -0.022   2.988   8.646  1.4028  0.9749  0.1701
  179SOPE  H18T20440   0.087   2.998   8.492  1.0072 -0.0201  1.3142
  179SOPE   C3320441   0.511   3.156   7.091 -0.3054  0.9836 -0.1055
  179SOPE   H3X20442   0.616   3.192   7.091  2.0250 -4.7102 -0.9865
  179SOPE   H3Y20443   0.526   3.049   7.118 -1.5945  1.2554  1.9415
  179SOPE   C3420444   0.438   3.218   7.209 -0.2325 -0.0415  0.0990
  179SOPE   H4X20445   0.329   3.200   7.202 -0.7764  3.1757 -1.4439
  179SOPE   H4Y20446   0.455   3.327   7.200 -2.8009  0.3471 -0.8044
  179SOPE   C3520447   0.485   3.158   7.347 -0.0050  0.3288 -0.8163
  179SOPE   H5X20448   0.596   3.159   7.352 -0.0392 -0.7824  1.2297
  179SOPE   H5Y20449   0.455   3.051   7.352  1.7349 -0.1459  0.1087
  179SOPE   C3620450   0.437   3.231   7.472  0.3123 -0.0487  0.0246
  179SOPE   H6X20451   0.329   3.251   7.460  0.2911  0.9959  1.6935
  179SOPE   H6Y20452   0.489   3.326   7.494 -1.3244  0.1916  3.4180
  179SOPE   C3720453   0.448   3.164   7.613  0.1018  0.7316  0.5778
  179SOPE   H7X20454   0.549   3.120   7.630  0.4556  1.4836  0.4618
  179SOPE   H7Y20455   0.389   3.071   7.632  0.2054  0.8453  1.4957
  179SOPE   C3820456   0.410   3.259   7.730  0.1605  0.5335  0.1726
  179SOPE   H8X20457   0.307   3.299   7.720 -0.1417  0.0526  1.1907
  179SOPE   H8Y20458   0.488   3.338   7.731 -0.2250  0.9973 -2.2096
  179SOPE   C3920459   0.431   3.188   7.866 -0.0889 -0.0157 -0.9292
  179SOPE   H9X20460   0.538   3.166   7.890 -0.2205  2.3567  2.6883
  179SOPE   H9Y20461   0.380   3.090   7.861  1.8442 -1.2684  1.5049
  179SOPE  C31020462   0.358   3.258   7.991  0.0431 -0.2081 -1.0671
  179SOPE  H10X20463   0.249   3.266   7.972 -0.4718 -0.6899  1.3885
  179SOPE  H10Y20464   0.396   3.363   7.990  1.3883 -0.6365  0.2629
  179SOPE  C31120465   0.377   3.185   8.127 -0.0084  0.7197  0.1461
  179SOPE  H11X20466   0.477   3.202   8.171  0.3752 -1.8347  0.4239
  179SOPE  H11Y20467   0.371   3.078   8.099  0.4023  0.3051  1.5485
  179SOPE  C31220468   0.286   3.216   8.241 -0.3915  0.1314  0.2408
  179SOPE  H12X20469   0.269   3.129   8.308 -0.4494  0.4359  0.6299
  179SOPE  H12Y20470   0.190   3.233   8.189  0.1119 -2.6514 -1.8549
  179SOPE  C31320471   0.343   3.328   8.337 -0.3437  0.5439  0.5416
  179SOPE  H13X20472   0.392   3.408   8.278 -1.2863  0.9838  0.3286
  179SOPE  H13Y20473   0.418   3.283   8.405  0.5242 -0.0216 -0.7444
  179SOPE  C31420474   0.240   3.396   8.430 -0.8289 -0.5376 -0.3403
  179SOPE  H14X20475   0.169   3.319   8.467 -1.6937  0.5396  0.3199
  179SOPE  H14Y20476   0.179   3.469   8.373 -0.0437  2.1161  1.9434
  179SOPE  C31520477   0.304   3.480   8.542  0.8679 -0.0727 -0.0473
  179SOPE  H15X20478   0.226   3.524   8.607 -1.2408 -0.9589 -1.8626
  179SOPE  H15Y20479   0.352   3.569   8.496  0.2059 -0.3387 -1.3005
  179SOPE  C31620480   0.409   3.408   8.632  0.6804 -0.3239 -0.1213
  179SOPE  H16X20481   0.448   3.474   8.712  0.3134  2.0289 -1.7863
  179SOPE  H16Y20482   0.498   3.388   8.569  0.2767  0.4110 -0.9312
  179SOPE  C31720483   0.365   3.274   8.701  0.9381  0.4607  0.1358
  179SOPE  H17X20484   0.311   3.218   8.622 -1.6648 -1.3591  2.9662
  179SOPE  H17Y20485   0.292   3.284   8.784 -1.0361 -1.4323 -1.2745
  179SOPE  C31820486   0.480   3.208   8.769  0.4372 -0.0759  0.8281
  179SOPE  H18X20487   0.449   3.128   8.839 -0.9299 -0.1642  0.1459
  179SOPE  H18Y20488   0.525   3.291   8.828 -1.4276  0.8576  0.9913
  179SOPE  H18Z20489   0.560   3.177   8.697 -1.5178  2.2416 -2.6253
  180SOPE     N20490   5.663   3.110   5.777  0.4752 -0.1302  0.0861
  180SOPE   HN120491   5.680   3.183   5.704  1.2178 -0.7211 -0.3459
  180SOPE   HN220492   5.622   3.030   5.725 -0.7244  0.1729  0.5413
  180SOPE   HN320493   5.609   3.158   5.852  3.1732  0.9033  1.5079
  180SOPE   C1220494   5.799   3.067   5.835  0.8924 -0.0737  0.1692
  180SOPE  H12A20495   5.842   3.164   5.869 -0.4142 -0.0513  1.9265
  180SOPE  H12B20496   5.849   3.018   5.750 -0.8464 -0.7771 -0.4997
  180SOPE   C1120497   5.778   2.984   5.958  0.9606 -0.3533 -0.2371
  180SOPE  H11A20498   5.877   2.962   6.004  0.1265 -0.9288  1.3790
  180SOPE  H11B20499   5.728   2.891   5.924  0.3975  0.3109 -1.2670
  180SOPE     P20500   5.588   3.003   6.138 -0.2175 -0.1796 -0.1555
  180SOPE   O1320501   5.505   2.911   6.060  0.1298  0.5138 -0.0990
  180SOPE   O1420502   5.520   3.115   6.200 -0.2903 -0.1627  0.0402
  180SOPE   O1220503   5.707   3.060   6.055  0.4562 -0.1350  0.1361
  180SOPE   O1120504   5.665   2.919   6.252  0.0360 -0.6263  0.0805
  180SOPE    C120505   5.793   2.964   6.301  0.2547  0.0134  0.5383
  180SOPE    HA20506   5.818   3.071   6.287  0.8179 -0.1917 -0.1006
  180SOPE    HB20507   5.872   2.900   6.256 -0.5323 -0.3192 -0.4112
  180SOPE    C220508   5.801   2.924   6.449  0.2524  0.5658 -0.0642
  180SOPE    HS20509   5.772   2.817   6.455  1.9040  0.1285  1.1011
  180SOPE   O2120510   5.723   3.013   6.527 -0.4660 -0.0465  0.3082
  180SOPE   C2120511   5.699   2.964   6.652 -0.3855  0.9426 -0.0197
  180SOPE   O2220512   5.728   2.854   6.693  0.0389  0.0662 -0.5427
  180SOPE   C2220513   5.623   3.069   6.728 -0.3290  0.6455  0.0059
  180SOPE   H2R20514   5.536   3.096   6.664 -0.1794  1.4941  0.1496
  180SOPE   H2S20515   5.687   3.160   6.730 -1.3866  1.5151 -2.3251
  180SOPE    C320516   5.957   2.936   6.485 -0.0007 -0.0056  0.0595
  180SOPE    HX20517   5.968   3.046   6.477  0.3230 -0.1821 -3.1463
  180SOPE    HY20518   6.022   2.887   6.409 -0.4248 -0.3131 -0.1116
  180SOPE   O3120519   5.988   2.905   6.617 -0.5268  0.2347 -0.2323
  180SOPE   C3120520   6.033   2.775   6.635 -0.1329  0.0060 -0.0311
  180SOPE   O3220521   6.030   2.690   6.543 -0.8464  0.5741 -0.1411
  180SOPE   C3220522   6.065   2.745   6.778  0.2040 -0.1655 -0.4099
  180SOPE   H2X20523   6.126   2.828   6.820  0.5751 -1.1988  1.1927
  180SOPE   H2Y20524   6.127   2.653   6.786  0.7022 -0.0218 -2.1961
  180SOPE   C2320525   5.587   3.022   6.873 -0.2959  0.1526 -0.7694
  180SOPE   H3R20526   5.681   2.999   6.928 -0.9513 -3.8971 -1.0146
  180SOPE   H3S20527   5.527   2.929   6.862  0.3526 -0.4941  0.7894
  180SOPE   C2420528   5.513   3.126   6.949  0.3245 -0.7685  0.2958
  180SOPE   H4R20529   5.574   3.219   6.957 -1.0224  0.1237  0.6654
  180SOPE   H4S20530   5.427   3.154   6.884  0.2244  0.9053  1.0922
  180SOPE   C2520531   5.457   3.096   7.089  0.4505  0.5488 -0.5904
  180SOPE   H5R20532   5.379   3.023   7.059  1.2368 -1.1351  1.2749
  180SOPE   H5S20533   5.543   3.050   7.143  0.6542  0.5398 -0.9185
  180SOPE   C2620534   5.393   3.217   7.170 -0.4870 -0.1514 -0.1893
  180SOPE   H6R20535   5.479   3.279   7.203 -0.0224  0.1362 -1.8489
  180SOPE   H6S20536   5.321   3.284   7.118 -0.5828  1.8798  2.3447
  180SOPE   C2720537   5.325   3.164   7.296  0.2873  0.1109 -0.4096
  180SOPE   H7R20538   5.266   3.248   7.340 -0.5459 -0.7595  0.1823
  180SOPE   H7S20539   5.247   3.093   7.261  0.5230 -0.0271 -0.6555
  180SOPE   C2820540   5.410   3.108   7.411  0.3614 -0.2047  0.3892
  180SOPE   H8R20541   5.360   3.050   7.491  3.8250 -1.5678  1.7810
  180SOPE   H8S20542   5.482   3.031   7.377 -0.7155 -1.0297 -0.0740
  180SOPE   C2920543   5.478   3.222   7.477 -0.1655  0.4510 -0.0564
  180SOPE   H9120544   5.557   3.277   7.423 -2.2652  1.2749 -2.4622
  180SOPE  C21020545   5.446   3.279   7.594 -0.4373  0.8200 -0.7760
  180SOPE  H10120546   5.502   3.361   7.642 -0.2836 -1.1114  2.7633
  180SOPE  C21120547   5.321   3.241   7.661 -0.0292  0.4360 -0.4468
  180SOPE  H11R20548   5.310   3.132   7.684 -0.5977  0.9176  1.7757
  180SOPE  H11S20549   5.236   3.285   7.605 -1.1625 -1.1375 -0.0469
  180SOPE  C21220550   5.325   3.300   7.804 -0.9132  0.2463 -0.3426
  180SOPE  H12R20551   5.221   3.276   7.834 -1.2029  1.0618 -0.6418
  180SOPE  H12S20552   5.331   3.411   7.804 -1.1641  0.2660  0.9408
  180SOPE  C21320553   5.432   3.234   7.897 -0.1046 -0.1569  0.4857
  180SOPE  H13R20554   5.533   3.266   7.863 -0.8733  1.1189 -0.7248
  180SOPE  H13S20555   5.425   3.124   7.884  0.0565 -0.1051 -0.0638
  180SOPE  C21420556   5.412   3.265   8.041 -0.6635  0.3747  0.0725
  180SOPE  H14R20557   5.308   3.241   8.073  0.2295 -1.2823  1.9347
  180SOPE  H14S20558   5.436   3.374   8.039  0.2298  0.1715 -1.0460
  180SOPE  C21520559   5.502   3.205   8.150 -0.4623 -0.6345 -0.0333
  180SOPE  H15R20560   5.605   3.218   8.112 -0.6636 -1.0710 -0.7469
  180SOPE  H15S20561   5.486   3.095   8.147  2.6724 -1.2407  1.5079
  180SOPE  C21620562   5.482   3.265   8.288  0.4616  0.8534 -0.4172
  180SOPE  H16R20563   5.383   3.229   8.324  1.4066 -1.5832 -0.0559
  180SOPE  H16S20564   5.493   3.375   8.299  0.0663  0.8177  0.4604
  180SOPE  C21720565   5.580   3.190   8.391  0.0972  0.0297  0.6551
  180SOPE  H17R20566   5.569   3.080   8.376  0.5269  0.1963 -1.1940
  180SOPE  H17S20567   5.541   3.217   8.491 -1.7927 -0.5680  0.1209
  180SOPE  C21820568   5.724   3.228   8.389  0.5307 -0.3508 -0.0664
  180SOPE  H18R20569   5.744   3.337   8.388  1.0122 -0.3581  2.6396
  180SOPE  H18S20570   5.767   3.184   8.296  0.4912  1.4758 -0.9937
  180SOPE  H18T20571   5.782   3.176   8.467 -0.1755  1.3355  1.6516
  180SOPE   C3320572   5.934   2.753   6.868 -0.9675 -0.5463 -0.3534
  180SOPE   H3X20573   5.856   2.685   6.829 -1.9893  2.0535 -3.2412
  180SOPE   H3Y20574   5.894   2.857   6.860 -2.8550 -0.9661  2.1963
  180SOPE   C3420575   5.971   2.734   7.022  0.0812 -0.4926 -0.3394
  180SOPE   H4X20576   6.064   2.786   7.055 -0.7943  1.3719 -0.6669
  180SOPE   H4Y20577   5.992   2.629   7.051  1.3910 -0.2938 -0.5189
  180SOPE   C3520578   5.855   2.795   7.110  0.0814  0.0069 -0.1897
  180SOPE   H5X20579   5.757   2.743   7.104 -0.5925  1.0410  1.2189
  180SOPE   H5Y20580   5.836   2.896   7.067 -0.1530 -1.2317 -3.2508
  180SOPE   C3620581   5.880   2.801   7.259  0.1026 -0.2457 -0.3916
  180SOPE   H6X20582   5.982   2.844   7.269 -0.5972  1.5228 -0.5461
  180SOPE   H6Y20583   5.878   2.703   7.313  0.6257 -0.3266 -0.5144
  180SOPE   C3720584   5.785   2.897   7.330 -0.6738  0.1002 -0.2882
  180SOPE   H7X20585   5.692   2.837   7.337  1.4781 -3.5200  0.0885
  180SOPE   H7Y20586   5.768   2.989   7.270  1.2722 -0.3306 -1.6012
  180SOPE   C3820587   5.835   2.934   7.469 -0.4319 -0.1080 -0.5323
  180SOPE   H8X20588   5.749   2.994   7.507  0.6978  1.2472 -0.0232
  180SOPE   H8Y20589   5.923   3.002   7.459 -0.5867  0.0938 -0.5449
  180SOPE   C3920590   5.869   2.817   7.563  0.2667 -0.4441 -0.1370
  180SOPE   H9X20591   5.903   2.864   7.657 -2.4032 -0.6746  1.0236
  180SOPE   H9Y20592   5.955   2.758   7.524 -1.5365 -1.1898 -3.4045
  180SOPE  C31020593   5.749   2.730   7.575 -0.4194  0.2568  0.0265
  180SOPE  H10X20594   5.727   2.682   7.477 -3.0179  2.6611 -0.7115
  180SOPE  H10Y20595   5.659   2.787   7.608 -0.5691 -1.3715  2.6870
  180SOPE  C31120596   5.769   2.630   7.688 -0.4182  0.0402  0.1251
  180SOPE  H11X20597   5.674   2.592   7.732  0.0207  0.8793  1.9073
  180SOPE  H11Y20598   5.817   2.689   7.770 -0.8869 -0.3853  0.7213
  180SOPE  C31220599   5.858   2.512   7.651 -0.0403  0.1720 -0.0077
  180SOPE  H12X20600   5.964   2.542   7.640  0.6828 -2.0428  0.3530
  180SOPE  H12Y20601   5.817   2.471   7.557  1.0617  1.8424 -1.2655
  180SOPE  C31320602   5.842   2.392   7.745 -0.3412  0.4421  0.0551
  180SOPE  H13X20603   5.909   2.312   7.707 -0.4578  0.9113 -1.1811
  180SOPE  H13Y20604   5.736   2.358   7.745  0.2542 -1.5410  0.9020
  180SOPE  C31420605   5.896   2.438   7.888  0.4224 -0.7983  0.2993
  180SOPE  H14X20606   5.822   2.485   7.957  0.5881 -1.2792  0.8099
  180SOPE  H14Y20607   5.963   2.524   7.866  0.7536 -1.3014 -0.7011
  180SOPE  C31520608   5.965   2.335   7.976  1.5712  0.3382  0.1176
  180SOPE  H15X20609   6.040   2.281   7.915  0.3775  0.4303 -1.4895
  180SOPE  H15Y20610   5.892   2.253   7.998  0.2265  1.0452 -1.4941
  180SOPE  C31620611   6.023   2.401   8.101  0.4900 -0.4258 -0.5750
  180SOPE  H16X20612   5.956   2.470   8.157  0.9942 -1.1122  0.9344
  180SOPE  H16Y20613   6.113   2.461   8.077  0.3186  0.8509  1.6601
  180SOPE  C31720614   6.078   2.306   8.204  0.5366 -0.6460  0.6312
  180SOPE  H17X20615   6.122   2.224   8.144  1.3632  1.1376 -1.3058
  180SOPE  H17Y20616   5.988   2.263   8.252 -0.0720 -0.2034 -0.0939
  180SOPE  C31820617   6.177   2.363   8.307  0.1842  0.5400  0.0079
  180SOPE  H18X20618   6.120   2.427   8.378  1.3269  2.6872 -0.9062
  180SOPE  H18Y20619   6.253   2.430   8.261 -0.2346  1.1006  0.1084
  180SOPE  H18Z20620   6.222   2.279   8.364 -1.3643  0.0392  0.5483
  181SOPE     N20621   5.743   5.933   5.635 -0.2377  0.1208  0.5159
  181SOPE   HN120622   5.763   5.924   5.736  0.2343  0.5713  0.4691
  181SOPE   HN220623   5.833   5.900   5.594 -0.6612 -0.8312  0.3263
  181SOPE   HN320624   5.720   6.031   5.608 -2.6354 -0.1226  1.4540
  181SOPE   C1220625   5.638   5.827   5.605 -0.1833  0.4526 -0.7984
  181SOPE  H12A20626   5.655   5.774   5.508 -3.2676 -0.2525 -1.0489
  181SOPE  H12B20627   5.536   5.870   5.602 -0.6756 -0.6892 -1.9242
  181SOPE   C1120628   5.638   5.733   5.728 -0.9013  0.2494  0.3551
  181SOPE  H11A20629   5.734   5.677   5.731  0.1775  2.0001 -0.1974
  181SOPE  H11B20630   5.554   5.662   5.711  0.2641 -0.9423 -0.6105
  181SOPE     P20631   5.480   5.829   5.911  0.3448  0.0574 -0.2610
  181SOPE   O1320632   5.420   5.704   5.952 -0.2528  0.7218  0.3914
  181SOPE   O1420633   5.400   5.908   5.816  0.0476 -0.3482  0.2546
  181SOPE   O1220634   5.626   5.804   5.845  0.1253 -0.1343  0.6193
  181SOPE   O1120635   5.503   5.921   6.036 -0.4435 -0.0354  0.0952
  181SOPE    C120636   5.599   5.902   6.137  0.1053 -0.0891  0.0794
  181SOPE    HA20637   5.696   5.871   6.093  1.2658  0.1036  2.3347
  181SOPE    HB20638   5.570   5.816   6.200 -1.3148  0.7749  0.6487
  181SOPE    C220639   5.608   6.032   6.214 -0.4922 -0.3224  0.2491
  181SOPE    HS20640   5.650   6.112   6.149  2.8606 -0.1659  2.3614
  181SOPE   O2120641   5.691   6.012   6.326 -0.2779 -0.2347  0.4669
  181SOPE   C2120642   5.751   6.124   6.365 -0.6789 -0.8346  0.0999
  181SOPE   O2220643   5.744   6.234   6.316  0.1153  0.0377  0.4102
  181SOPE   C2220644   5.823   6.089   6.494  0.3045  0.0370  0.1976
  181SOPE   H2R20645   5.872   5.991   6.475 -0.0823 -0.1677  0.2561
  181SOPE   H2S20646   5.747   6.077   6.574 -1.5102  0.7529 -1.3430
  181SOPE    C320647   5.465   6.062   6.267  0.0036  0.1361 -0.3499
  181SOPE    HX20648   5.427   5.968   6.313  2.1721 -1.6385 -1.9767
  181SOPE    HY20649   5.411   6.082   6.173 -1.6744  5.3237  1.3558
  181SOPE   O3120650   5.449   6.169   6.367 -0.0373 -0.3802  0.0258
  181SOPE   C3120651   5.319   6.197   6.379  0.4031  0.5933 -0.2051
  181SOPE   O3220652   5.231   6.148   6.312  0.1277  0.0947 -0.2309
  181SOPE   C3220653   5.309   6.277   6.501  0.2694 -0.5065  0.8975
  181SOPE   H2X20654   5.368   6.369   6.482  1.8501 -0.8403  3.5702
  181SOPE   H2Y20655   5.362   6.214   6.575  0.5406 -0.3081  0.8724
  181SOPE   C2320656   5.933   6.196   6.538 -0.1927  0.2755 -1.0394
  181SOPE   H3R20657   5.889   6.298   6.535  0.4786  0.6202  0.0523
  181SOPE   H3S20658   6.024   6.187   6.475  0.4722  0.5594 -0.1427
  181SOPE   C2420659   5.984   6.176   6.682  0.1644 -0.2028  0.0474
  181SOPE   H4R20660   5.894   6.153   6.744  1.6175 -1.6561  1.7433
  181SOPE   H4S20661   6.034   6.077   6.679  1.3019  0.3654 -0.0956
  181SOPE   C2520662   6.075   6.287   6.723 -0.3143 -0.1933 -0.3919
  181SOPE   H5R20663   6.158   6.305   6.651 -0.8388 -1.1844 -1.2823
  181SOPE   H5S20664   6.034   6.390   6.726  1.3543  0.5679 -1.9350
  181SOPE   C2620665   6.136   6.267   6.866  0.0075  0.3623 -0.1319
  181SOPE   H6R20666   6.201   6.177   6.876  1.3342  1.0138 -2.0585
  181SOPE   H6S20667   6.213   6.346   6.878  3.2174 -2.5839  0.3352
  181SOPE   C2720668   6.029   6.266   6.973 -0.1442  0.7026 -0.1792
  181SOPE   H7R20669   5.964   6.356   6.961 -1.7085 -0.4166 -0.3967
  181SOPE   H7S20670   5.959   6.181   6.963 -0.0148  0.1467  2.7644
  181SOPE   C2820671   6.074   6.262   7.124  0.3297 -0.1428  0.1022
  181SOPE   H8R20672   6.025   6.182   7.184  1.2040 -0.5839  0.2382
  181SOPE   H8S20673   6.179   6.227   7.119  1.4518  3.0117 -1.6416
  181SOPE   C2920674   6.070   6.388   7.208  0.3241 -0.6493  0.8654
  181SOPE   H9120675   6.108   6.480   7.161 -0.0599 -1.2382 -0.6435
  181SOPE  C21020676   6.029   6.403   7.337  0.0901 -0.0625  0.5029
  181SOPE  H10120677   6.025   6.505   7.379  0.3383  0.7332 -1.2765
  181SOPE  C21120678   5.977   6.287   7.424 -0.3029 -0.4169  0.0494
  181SOPE  H11R20679   6.039   6.196   7.409  0.2503  0.1274 -1.1060
  181SOPE  H11S20680   5.873   6.278   7.386 -0.8396  3.8780  0.0541
  181SOPE  C21220681   5.960   6.327   7.572 -0.4830  0.3385  0.7031
  181SOPE  H12R20682   5.908   6.239   7.616 -0.8281 -0.9204 -1.9966
  181SOPE  H12S20683   5.895   6.416   7.584  1.4043  1.9383 -0.2686
  181SOPE  C21320684   6.089   6.351   7.638 -0.3560 -0.3470  0.8213
  181SOPE  H13R20685   6.135   6.449   7.612 -0.1689 -0.8625 -0.9663
  181SOPE  H13S20686   6.154   6.261   7.623 -1.7552 -1.0884 -1.1688
  181SOPE  C21420687   6.062   6.368   7.785 -0.0347 -0.1686 -0.1798
  181SOPE  H14R20688   6.031   6.267   7.821  1.6723 -0.6975 -0.1120
  181SOPE  H14S20689   5.977   6.438   7.799 -1.1234 -1.4753  0.0440
  181SOPE  C21520690   6.183   6.404   7.868 -0.3964 -0.1570 -0.7314
  181SOPE  H15R20691   6.243   6.483   7.817 -0.4883 -0.3506 -1.1392
  181SOPE  H15S20692   6.257   6.322   7.874 -0.9475 -0.6038  0.0591
  181SOPE  C21620693   6.143   6.478   8.003  0.4176  0.1686  0.1210
  181SOPE  H16R20694   6.061   6.547   7.971 -1.4169 -2.0778 -0.3372
  181SOPE  H16S20695   6.219   6.541   8.052  0.4376 -0.9608  1.5936
  181SOPE  C21720696   6.090   6.376   8.097 -0.3292  0.3637  0.1008
  181SOPE  H17R20697   6.178   6.328   8.144  0.4006  1.5199 -0.0349
  181SOPE  H17S20698   6.025   6.298   8.053  0.1432  0.4038 -0.6815
  181SOPE  C21820699   6.018   6.455   8.209  0.0333  0.2353  0.4674
  181SOPE  H18R20700   5.956   6.543   8.179  0.3760  0.7559  1.2649
  181SOPE  H18S20701   6.087   6.482   8.291 -1.4218 -2.8445  2.9386
  181SOPE  H18T20702   5.956   6.385   8.269 -0.2703  1.4520  1.6206
  181SOPE   C3320703   5.165   6.301   6.548 -0.2148  0.1649 -0.8303
  181SOPE   H3X20704   5.117   6.209   6.585 -0.4710  0.5726 -0.1345
  181SOPE   H3Y20705   5.097   6.349   6.474  1.0579  2.7011 -0.4878
  181SOPE   C3420706   5.167   6.394   6.682 -0.7312  0.5366 -0.3340
  181SOPE   H4X20707   5.175   6.504   6.675 -3.1923  1.0214  2.3633
  181SOPE   H4Y20708   5.249   6.356   6.747 -0.9816  2.0802  0.9260
  181SOPE   C3520709   5.041   6.360   6.764  0.7061  1.2423 -0.3004
  181SOPE   H5X20710   5.025   6.250   6.772  0.0628  1.3250 -0.4102
  181SOPE   H5Y20711   4.953   6.394   6.705 -1.2141 -0.5194  1.3494
  181SOPE   C3620712   5.021   6.435   6.895  0.7739  0.0247 -1.2155
  181SOPE   H6X20713   4.915   6.441   6.928  2.1867  3.2995  3.8996
  181SOPE   H6Y20714   5.060   6.537   6.876  0.7969  0.1691 -0.4051
  181SOPE   C3720715   5.090   6.365   7.013  0.2888  0.2970  0.1628
  181SOPE   H7X20716   5.195   6.354   6.976  0.8513 -1.9014  2.1562
  181SOPE   H7Y20717   5.053   6.260   7.012  1.5222 -0.2296 -2.8083
  181SOPE   C3820718   5.095   6.447   7.142 -0.6770  0.6317  0.6538
  181SOPE   H8X20719   5.140   6.548   7.129  0.9980  0.0056  1.3647
  181SOPE   H8Y20720   5.157   6.397   7.219  1.1254  1.4155 -0.2370
  181SOPE   C3920721   4.960   6.466   7.201  0.1280 -0.3338 -0.1743
  181SOPE   H9X20722   4.909   6.368   7.211  0.3808 -0.2747  2.1180
  181SOPE   H9Y20723   4.891   6.532   7.144  0.5629 -1.4282 -2.0753
  181SOPE  C31020724   4.964   6.535   7.341  0.2835 -0.1026  0.3039
  181SOPE  H10X20725   4.864   6.579   7.360  0.5905  0.9468 -0.4081
  181SOPE  H10Y20726   5.035   6.620   7.330  0.1715 -0.1471 -0.9195
  181SOPE  C31120727   5.009   6.443   7.453 -0.3797 -0.4712  0.6474
  181SOPE  H11X20728   5.109   6.408   7.421 -0.8145 -2.1750  1.0709
  181SOPE  H11Y20729   4.941   6.356   7.459  0.1276 -1.0709 -1.4175
  181SOPE  C31220730   5.015   6.513   7.593  0.0645  0.4032  0.2259
  181SOPE  H12X20731   4.987   6.621   7.583 -0.9517  0.3449  2.0330
  181SOPE  H12Y20732   5.119   6.508   7.632  0.5197  2.4097 -0.5757
  181SOPE  C31320733   4.914   6.456   7.696  0.5731  0.0789  0.1667
  181SOPE  H13X20734   4.953   6.359   7.732  1.9118  0.9120  1.0630
  181SOPE  H13Y20735   4.815   6.454   7.647  0.8228  4.6196 -0.9455
  181SOPE  C31420736   4.906   6.541   7.827 -0.7619  0.1538 -0.0164
  181SOPE  H14X20737   4.872   6.645   7.808  0.5950  0.7850  0.8758
  181SOPE  H14Y20738   5.009   6.549   7.867 -0.4547  0.7025 -0.8997
  181SOPE  C31520739   4.822   6.472   7.923  0.2926  0.7342  0.0330
  181SOPE  H15X20740   4.850   6.365   7.937  3.1474  1.2661 -0.8638
  181SOPE  H15Y20741   4.721   6.458   7.879  0.4978 -0.2124 -0.1708
  181SOPE  C31620742   4.813   6.535   8.070 -0.1116 -0.0568  1.1771
  181SOPE  H16X20743   4.724   6.602   8.072 -1.3931 -1.6674  0.0091
  181SOPE  H16Y20744   4.908   6.588   8.096 -0.6579  1.0042  1.0581
  181SOPE  C31720745   4.798   6.443   8.194  0.2200 -0.3870  0.6189
  181SOPE  H17X20746   4.886   6.376   8.202 -0.6483 -1.3772  2.1821
  181SOPE  H17Y20747   4.713   6.375   8.176 -0.1284  0.2594 -0.2515
  181SOPE  C31820748   4.789   6.516   8.327 -0.1706  0.4368 -0.2431
  181SOPE  H18X20749   4.887   6.560   8.355  0.9068 -2.0502  0.1474
  181SOPE  H18Y20750   4.771   6.438   8.405  0.4055 -0.8001 -1.3149
  181SOPE  H18Z20751   4.701   6.585   8.326  0.6026  1.4296 -0.7891
  182SOPE     N20752   5.935   1.749   6.264 -0.9155 -0.5520 -0.5156
  182SOPE   HN120753   5.901   1.708   6.354  5.1288 -4.6752  0.5413
  182SOPE   HN220754   6.026   1.793   6.288 -0.6251 -1.8363  0.9677
  182SOPE   HN320755   5.870   1.818   6.221  0.7514 -0.2645 -2.7065
  182SOPE   C1220756   5.959   1.636   6.169 -0.4699  0.0798  0.1126
  182SOPE  H12A20757   6.003   1.557   6.233 -1.0997  0.3088  0.8403
  182SOPE  H12B20758   6.028   1.675   6.091  1.4136 -0.2618  1.5537
  182SOPE   C1120759   5.827   1.581   6.104  0.1829 -0.0925  0.2597
  182SOPE  H11A20760   5.853   1.508   6.024  1.0112 -2.3194  2.4210
  182SOPE  H11B20761   5.763   1.663   6.066 -1.8532 -0.1819  3.1232
  182SOPE     P20762   5.762   1.357   6.228  0.1308 -0.3243 -0.7967
  182SOPE   O1320763   5.886   1.322   6.162  0.3087 -0.0942 -0.3828
  182SOPE   O1420764   5.639   1.283   6.188  1.0700  0.2475  0.2931
  182SOPE   O1220765   5.742   1.516   6.203 -0.1027 -0.0371 -0.5204
  182SOPE   O1120766   5.770   1.355   6.383 -0.6906 -0.0620  0.4179
  182SOPE    C120767   5.806   1.225   6.437 -0.2392  0.6209  0.7182
  182SOPE    HA20768   5.915   1.209   6.449 -0.6060 -1.6788  1.5815
  182SOPE    HB20769   5.767   1.141   6.376  0.6566  1.8899 -1.7318
  182SOPE    C220770   5.771   1.205   6.588 -0.1283 -0.1786 -0.1809
  182SOPE    HS20771   5.664   1.224   6.608  0.0180 -0.4805  0.9394
  182SOPE   O2120772   5.857   1.280   6.674 -0.2981  0.9991 -0.1914
  182SOPE   C2120773   5.822   1.408   6.709  0.7641  0.1654 -0.5425
  182SOPE   O2220774   5.720   1.469   6.674 -0.1504  0.3750 -0.1072
  182SOPE   C2220775   5.918   1.457   6.818  0.4367  0.2614  0.1863
  182SOPE   H2R20776   6.022   1.425   6.796  0.6960  0.6103  0.8859
  182SOPE   H2S20777   5.878   1.402   6.906 -1.3177  1.7458  0.3863
  182SOPE    C320778   5.796   1.058   6.614 -0.0793  0.3666 -1.3185
  182SOPE    HX20779   5.906   1.046   6.602  0.0426 -1.9660  1.1050
  182SOPE    HY20780   5.768   0.984   6.535  2.6220 -0.8623 -1.2509
  182SOPE   O3120781   5.768   1.011   6.748 -0.3781 -0.2552  0.9126
  182SOPE   C3120782   5.643   1.018   6.775 -0.3860  0.1567 -0.8755
  182SOPE   O3220783   5.548   1.034   6.701 -0.6040 -0.5010  0.2388
  182SOPE   C3220784   5.629   0.996   6.927  0.5274  0.0694 -0.1903
  182SOPE   H2X20785   5.631   0.886   6.942  0.7978  0.2350  1.1708
  182SOPE   H2Y20786   5.527   1.032   6.950  0.5848  0.2455 -0.2087
  182SOPE   C2320787   5.916   1.609   6.849 -0.3020 -0.1956  0.0290
  182SOPE   H3R20788   5.816   1.625   6.893 -0.5398  1.4660 -1.0415
  182SOPE   H3S20789   5.920   1.658   6.750 -0.0390  1.2639  0.7401
  182SOPE   C2420790   6.021   1.653   6.940  0.0845  0.0437 -0.0733
  182SOPE   H4R20791   6.024   1.574   7.019 -2.3299  0.0912  0.1580
  182SOPE   H4S20792   6.113   1.650   6.879  0.1122 -2.8142 -0.0070
  182SOPE   C2520793   6.001   1.791   7.005  0.0805 -0.2571 -0.4633
  182SOPE   H5R20794   6.092   1.819   7.064 -0.5454  2.0201 -0.4959
  182SOPE   H5S20795   5.975   1.863   6.925 -0.6288 -0.3244 -0.2966
  182SOPE   C2620796   5.887   1.792   7.106  0.0042  0.7227 -0.9747
  182SOPE   H6R20797   5.864   1.898   7.132 -0.3291  0.3136  0.4817
  182SOPE   H6S20798   5.802   1.741   7.056  0.7727 -2.2435  0.5552
  182SOPE   C2720799   5.902   1.704   7.235  0.3097 -0.5178 -0.2423
  182SOPE   H7R20800   5.813   1.721   7.300 -0.1906 -1.0810 -0.7577
  182SOPE   H7S20801   5.921   1.599   7.202  1.9839 -0.2898 -0.0601
  182SOPE   C2820802   6.025   1.732   7.329  0.6052 -0.6230  0.1454
  182SOPE   H8R20803   6.000   1.663   7.412 -2.4289  1.2814  0.9450
  182SOPE   H8S20804   6.112   1.701   7.266  1.0289 -0.4364  0.6372
  182SOPE   C2920805   6.037   1.865   7.391  1.4226 -0.9615 -0.0034
  182SOPE   H9120806   6.084   1.936   7.321  0.1165 -1.3757 -1.3598
  182SOPE  C21020807   5.999   1.915   7.511 -0.6566  0.7211  0.8197
  182SOPE  H10120808   6.023   2.020   7.532 -0.5214  0.6673  0.9352
  182SOPE  C21120809   5.925   1.831   7.614 -0.8622  0.3073 -0.3838
  182SOPE  H11R20810   5.899   1.731   7.573  1.0818 -1.4904  2.4104
  182SOPE  H11S20811   5.830   1.884   7.638  0.2005  1.8037  0.6389
  182SOPE  C21220812   6.010   1.814   7.742 -0.1360 -0.7957  0.1167
  182SOPE  H12R20813   6.108   1.769   7.714 -0.0835  0.1365 -1.3059
  182SOPE  H12S20814   5.960   1.746   7.814 -0.3328 -1.2898 -0.4788
  182SOPE  C21320815   6.037   1.950   7.815  0.1133 -0.0765  0.4857
  182SOPE  H13R20816   5.939   2.000   7.832  1.1264  1.7542  1.2166
  182SOPE  H13S20817   6.091   2.023   7.751 -1.9116  0.5347 -0.6023
  182SOPE  C21420818   6.117   1.934   7.947 -0.1711 -0.2628 -0.1077
  182SOPE  H14R20819   6.158   2.033   7.976  2.2352 -1.7347  1.9155
  182SOPE  H14S20820   6.209   1.873   7.934 -0.8721 -2.6637  4.2355
  182SOPE  C21520821   6.022   1.909   8.065  0.2762 -0.5549  0.6589
  182SOPE  H15R20822   5.946   1.835   8.031  0.6871 -0.2631 -0.9810
  182SOPE  H15S20823   5.969   2.001   8.097  0.6834  0.1125 -0.5228
  182SOPE  C21620824   6.106   1.852   8.178 -0.0891  0.7980  0.3396
  182SOPE  H16R20825   6.173   1.937   8.204 -2.4048  3.0935 -0.7698
  182SOPE  H16S20826   6.173   1.765   8.159 -0.6726 -0.1491  2.3682
  182SOPE  C21720827   6.023   1.816   8.307  0.2727 -0.4638 -0.1015
  182SOPE  H17R20828   5.986   1.712   8.297  0.2023 -0.6395  1.6423
  182SOPE  H17S20829   5.937   1.886   8.317  0.6679  0.1961 -1.1565
  182SOPE  C21820830   6.114   1.815   8.431  0.7050 -0.6990 -0.1450
  182SOPE  H18R20831   6.202   1.750   8.409  1.5546  0.8686 -1.6582
  182SOPE  H18S20832   6.057   1.780   8.519  2.1558 -0.0848  1.0909
  182SOPE  H18T20833   6.158   1.916   8.448  0.8549 -0.8045  0.1023
  182SOPE   C3320834   5.743   1.064   7.014  0.0162 -0.2381  0.3663
  182SOPE   H3X20835   5.845   1.037   6.980  0.4054  0.3372  1.0431
  182SOPE   H3Y20836   5.741   1.013   7.113  1.4137 -0.1016  0.4794
  182SOPE   C3420837   5.705   1.218   7.036  0.7978 -0.2004 -0.3063
  182SOPE   H4X20838   5.597   1.227   7.061  0.3063 -4.3948 -0.3063
  182SOPE   H4Y20839   5.724   1.281   6.946 -0.8113  0.1506 -0.4439
  182SOPE   C3520840   5.792   1.282   7.146 -0.5262  0.6548 -0.9755
  182SOPE   H5X20841   5.775   1.392   7.138 -2.1136  0.7387  1.9614
  182SOPE   H5Y20842   5.897   1.255   7.121 -0.5757 -0.0742 -0.4373
  182SOPE   C3620843   5.760   1.258   7.297 -0.1632  0.4782 -1.2046
  182SOPE   H6X20844   5.756   1.151   7.326  2.7308  0.3815 -0.9436
  182SOPE   H6Y20845   5.660   1.302   7.316  0.0310 -0.1769  1.9266
  182SOPE   C3720846   5.860   1.316   7.403 -0.7044 -0.8597  0.2073
  182SOPE   H7X20847   5.857   1.422   7.370 -1.0679 -1.2442 -1.0632
  182SOPE   H7Y20848   5.962   1.278   7.378 -0.0929  1.5388 -1.3450
  182SOPE   C3820849   5.815   1.323   7.545  0.2483 -0.2873 -0.4467
  182SOPE   H8X20850   5.727   1.389   7.558 -0.1609 -0.5935 -1.4942
  182SOPE   H8Y20851   5.894   1.364   7.612 -1.1049  3.0811 -0.6755
  182SOPE   C3920852   5.778   1.180   7.612  0.2491 -0.3544 -0.5716
  182SOPE   H9X20853   5.871   1.121   7.627  0.6612  0.5148  0.4935
  182SOPE   H9Y20854   5.715   1.126   7.538 -1.2705  0.1787  0.2740
  182SOPE  C31020855   5.706   1.190   7.743 -0.1336  0.0838  0.4467
  182SOPE  H10X20856   5.603   1.229   7.732 -0.1354 -0.3259 -1.2245
  182SOPE  H10Y20857   5.763   1.253   7.814  2.0958  0.9866 -1.9912
  182SOPE  C31120858   5.691   1.049   7.796 -0.1078 -0.1878 -0.3468
  182SOPE  H11X20859   5.790   1.010   7.828  0.1447  0.1567 -0.7051
  182SOPE  H11Y20860   5.661   0.985   7.710  1.0338 -1.2650  0.0151
  182SOPE  C31220861   5.588   1.037   7.915  0.3522 -0.5943  0.2174
  182SOPE  H12X20862   5.494   1.074   7.869 -0.5089 -0.9369  1.6420
  182SOPE  H12Y20863   5.614   1.104   8.000 -2.1294 -0.1003  0.6820
  182SOPE  C31320864   5.559   0.903   7.972  0.3500  0.3261 -0.3094
  182SOPE  H13X20865   5.498   0.914   8.064 -0.8337 -2.7819 -0.5678
  182SOPE  H13Y20866   5.657   0.857   7.995  0.8655  1.5646  0.0037
  182SOPE  C31420867   5.483   0.810   7.868  0.6911 -0.4322  0.4449
  182SOPE  H14X20868   5.561   0.765   7.802 -0.2155  0.1200 -1.0498
  182SOPE  H14Y20869   5.418   0.875   7.806  2.3113 -0.1107 -0.9824
  182SOPE  C31520870   5.397   0.701   7.937  0.3671 -0.2838  0.1894
  182SOPE  H15X20871   5.303   0.742   7.981 -0.2125  0.4121 -1.6224
  182SOPE  H15Y20872   5.463   0.657   8.015  3.4603  2.5044 -0.6164
  182SOPE  C31620873   5.358   0.581   7.850  0.0123  0.7194 -0.3343
  182SOPE  H16X20874   5.265   0.534   7.890 -0.5723  2.3512  0.3007
  182SOPE  H16Y20875   5.449   0.518   7.849  0.5811  1.5294 -0.1134
  182SOPE  C31720876   5.321   0.623   7.703 -0.0665  0.5696  0.2138
  182SOPE  H17X20877   5.412   0.654   7.647 -1.0869 -0.2600 -2.0056
  182SOPE  H17Y20878   5.253   0.711   7.704 -1.0595 -0.1740 -0.3300
  182SOPE  C31820879   5.258   0.516   7.607  0.5722 -0.0713  0.0779
  182SOPE  H18X20880   5.342   0.446   7.589 -0.7126 -1.7919  0.4511
  182SOPE  H18Y20881   5.208   0.571   7.525 -0.7461  0.7438  1.3810
  182SOPE  H18Z20882   5.173   0.463   7.656 -2.5363  2.5159 -2.1124
  183SOPE     N20883   1.704   6.058   6.075 -0.5357 -0.0495  0.1085
  183SOPE   HN120884   1.615   6.012   6.048 -2.1511  3.1413 -0.5363
  183SOPE   HN220885   1.740   6.023   6.166 -0.6608 -0.0274  0.1672
  183SOPE   HN320886   1.665   6.154   6.090 -0.6123  0.0461 -0.6536
  183SOPE   C1220887   1.799   6.057   5.954  0.8359 -0.1539 -0.5483
  183SOPE  H12A20888   1.734   6.093   5.872 -1.4559  0.3216  1.3738
  183SOPE  H12B20889   1.838   5.956   5.930 -0.2906 -0.2926 -1.9115
  183SOPE   C1120890   1.909   6.160   5.959  0.6213  0.4742  0.3480
  183SOPE  H11A20891   1.868   6.263   5.960  1.1356  0.6917 -0.5804
  183SOPE  H11B20892   1.965   6.156   5.864  0.1832  0.3900  0.0897
  183SOPE     P20893   2.116   6.232   6.108  0.0936 -0.4126  0.4595
  183SOPE   O1320894   2.082   6.361   6.041 -0.0461  0.5029  0.3834
  183SOPE   O1420895   2.247   6.166   6.090 -0.4930  0.1960 -0.4390
  183SOPE   O1220896   1.997   6.134   6.071  0.1909  0.1686 -0.0222
  183SOPE   O1120897   2.097   6.255   6.262  0.0509  0.4507 -0.1443
  183SOPE    C120898   1.974   6.329   6.297 -0.0859 -0.5091 -0.7613
  183SOPE    HA20899   1.881   6.273   6.271  0.9623 -0.7065 -4.7179
  183SOPE    HB20900   1.971   6.432   6.255  0.8818  0.6819  1.9102
  183SOPE    C220901   1.961   6.345   6.459  0.0793  0.5512 -0.1360
  183SOPE    HS20902   1.856   6.369   6.486  0.2187 -0.1014  1.0040
  183SOPE   O2120903   2.056   6.436   6.513  0.3380 -0.7943  0.0923
  183SOPE   C2120904   2.027   6.565   6.511  0.3338 -0.1305  1.0509
  183SOPE   O2220905   1.921   6.615   6.477  0.0581 -0.1814 -0.3244
  183SOPE   C2220906   2.148   6.645   6.547 -0.0208  0.1264  0.3291
  183SOPE   H2R20907   2.170   6.706   6.457  1.3220  2.5099  2.1393
  183SOPE   H2S20908   2.235   6.577   6.557  1.2474  1.8753  1.9988
  183SOPE    C320909   1.988   6.205   6.536  0.2774  0.7548  0.4267
  183SOPE    HX20910   2.095   6.180   6.521  0.0642 -1.1808  1.7374
  183SOPE    HY20911   1.913   6.125   6.515 -0.2906  1.6854 -1.2857
  183SOPE   O3120912   1.976   6.219   6.680 -0.3420 -0.2873  0.2032
  183SOPE   C3120913   2.069   6.155   6.759 -0.4722  0.2475  0.2451
  183SOPE   O3220914   2.164   6.086   6.717  0.0644 -0.1534 -0.4422
  183SOPE   C3220915   2.017   6.147   6.907  0.2294  0.2899  0.4913
  183SOPE   H2X20916   2.093   6.183   6.980  0.1543 -1.9862  1.7899
  183SOPE   H2Y20917   2.018   6.036   6.917  1.7689  0.0092 -1.9973
  183SOPE   C2320918   2.114   6.741   6.658  0.3189 -0.1947 -0.4917
  183SOPE   H3R20919   2.004   6.755   6.662  0.1480 -1.7561  2.4575
  183SOPE   H3S20920   2.156   6.840   6.630 -1.1425  1.3740  2.3899
  183SOPE   C2420921   2.158   6.709   6.799 -0.0176  0.4355 -0.2867
  183SOPE   H4R20922   2.267   6.696   6.817  0.0965  1.8426  0.1189
  183SOPE   H4S20923   2.137   6.798   6.862 -2.0132 -0.9343  1.1480
  183SOPE   C2520924   2.086   6.589   6.865 -0.0606 -0.7016  0.3951
  183SOPE   H5R20925   1.977   6.606   6.851  0.3066  3.6506  1.5140
  183SOPE   H5S20926   2.114   6.500   6.806 -1.1789 -0.2214 -0.9222
  183SOPE   C2620927   2.104   6.564   7.015 -0.1901 -0.3296  0.0953
  183SOPE   H6R20928   2.081   6.458   7.037 -0.2673 -0.5466 -0.9790
  183SOPE   H6S20929   2.207   6.579   7.054  0.9234 -1.8265 -2.0527
  183SOPE   C2720930   2.011   6.658   7.099  0.0089  0.0348 -0.5647
  183SOPE   H7R20931   2.035   6.761   7.065  1.1009  0.0292  0.1347
  183SOPE   H7S20932   1.907   6.654   7.062 -0.6623  0.2159  1.2204
  183SOPE   C2820933   2.029   6.644   7.251 -0.6915 -0.2219 -0.9536
  183SOPE   H8R20934   2.138   6.626   7.264 -0.8924 -1.3115 -0.6744
  183SOPE   H8S20935   1.997   6.742   7.293 -2.1391 -0.5383 -1.2481
  183SOPE   C2920936   1.949   6.536   7.316 -0.1769  0.1168 -0.3152
  183SOPE   H9120937   1.943   6.445   7.254  1.5805 -0.0066 -0.3663
  183SOPE  C21020938   1.888   6.530   7.437  0.2387 -0.7593  0.7459
  183SOPE  H10120939   1.851   6.432   7.470  1.1026 -0.1698  3.7397
  183SOPE  C21120940   1.881   6.649   7.530 -0.6503 -0.5555 -0.0635
  183SOPE  H11R20941   1.783   6.657   7.581  0.2454  2.9112  1.4134
  183SOPE  H11S20942   1.888   6.742   7.469  0.3731  0.4560  1.5029
  183SOPE  C21220943   1.993   6.628   7.632 -0.2463  0.1794 -0.2326
  183SOPE  H12R20944   2.098   6.630   7.595 -0.3214 -0.9757 -0.5325
  183SOPE  H12S20945   1.967   6.537   7.689 -1.6410 -1.9206 -3.8675
  183SOPE  C21320946   1.996   6.749   7.731  0.7901  0.2350 -0.0908
  183SOPE  H13R20947   1.893   6.756   7.771 -0.2888 -0.9550 -2.4619
  183SOPE  H13S20948   2.004   6.846   7.677 -1.4450  0.9760  0.8348
  183SOPE  C21420949   2.105   6.735   7.835 -0.0531  0.6046  0.2128
  183SOPE  H14R20950   2.206   6.730   7.790 -0.2511 -0.6321 -0.1371
  183SOPE  H14S20951   2.106   6.631   7.875  1.8451  0.1942 -0.7988
  183SOPE  C21520952   2.114   6.843   7.938  0.5071 -0.4093  0.3746
  183SOPE  H15R20953   2.013   6.888   7.955  1.2613  2.6510 -2.3626
  183SOPE  H15S20954   2.170   6.934   7.909 -1.4862  0.4530 -1.0436
  183SOPE  C21620955   2.185   6.796   8.069 -0.4224 -0.2097 -0.1230
  183SOPE  H16R20956   2.136   6.699   8.094 -0.8550 -0.2080 -0.9258
  183SOPE  H16S20957   2.162   6.868   8.151 -0.2374  0.3671 -0.5703
  183SOPE  C21720958   2.338   6.776   8.058 -0.7722  0.2953  0.1335
  183SOPE  H17R20959   2.380   6.869   8.014  1.6763 -0.2118  1.1995
  183SOPE  H17S20960   2.362   6.686   7.998 -0.8122 -1.2475  2.3170
  183SOPE  C21820961   2.412   6.753   8.191  0.1889 -0.1155 -0.1399
  183SOPE  H18R20962   2.372   6.830   8.260  0.8421 -0.2245  0.3776
  183SOPE  H18S20963   2.523   6.767   8.188  0.3383 -1.3058 -1.7850
  183SOPE  H18T20964   2.400   6.650   8.230  0.9468  0.2374  1.0922
  183SOPE   C3320965   1.882   6.220   6.945  0.5041  0.2424 -0.4402
  183SOPE   H3X20966   1.806   6.225   6.864  0.1168 -2.4546 -0.3202
  183SOPE   H3Y20967   1.899   6.324   6.982 -2.2144  0.4475  0.5502
  183SOPE   C3420968   1.818   6.141   7.066 -0.7699 -0.2539  0.5527
  183SOPE   H4X20969   1.789   6.039   7.035 -0.4277 -0.1410 -0.1500
  183SOPE   H4Y20970   1.725   6.199   7.084 -0.3484  0.0191  1.9984
  183SOPE   C3520971   1.910   6.136   7.190  0.5711  0.4603 -0.2933
  183SOPE   H5X20972   1.956   6.235   7.210  1.0380  0.2206 -0.1485
  183SOPE   H5Y20973   1.992   6.061   7.188  0.3862  0.2396  0.2320
  183SOPE   C3620974   1.835   6.101   7.323  0.2361 -0.6760  0.0864
  183SOPE   H6X20975   1.762   6.019   7.305  1.2769 -1.6835  0.3021
  183SOPE   H6Y20976   1.772   6.188   7.351  1.3532 -0.0468  0.7197
  183SOPE   C3720977   1.923   6.077   7.442 -0.2419 -0.2334  0.2527
  183SOPE   H7X20978   1.990   6.165   7.454  2.3540 -1.8170 -1.5344
  183SOPE   H7Y20979   1.976   5.980   7.427  0.5287  0.4015 -1.3539
  183SOPE   C3820980   1.834   6.077   7.565 -0.7754  0.7131 -1.0201
  183SOPE   H8X20981   1.773   5.984   7.568 -0.7348  0.7077 -0.1323
  183SOPE   H8Y20982   1.763   6.162   7.552 -2.2714 -0.3866 -0.3044
  183SOPE   C3920983   1.887   6.079   7.714 -0.0294 -0.3154  0.4888
  183SOPE   H9X20984   1.987   6.123   7.695  0.2548 -0.7534  0.9251
  183SOPE   H9Y20985   1.898   5.978   7.759  0.3593 -1.5026 -2.1121
  183SOPE  C31020986   1.813   6.176   7.802 -0.1684  0.6508 -0.7098
  183SOPE  H10X20987   1.714   6.133   7.828  0.0716  0.4958 -0.0275
  183SOPE  H10Y20988   1.781   6.269   7.749  0.5220  1.9916  1.0901
  183SOPE  C31120989   1.885   6.210   7.936 -0.2816  0.7093  0.5835
  183SOPE  H11X20990   1.823   6.289   7.984 -0.7894  0.2676  0.6731
  183SOPE  H11Y20991   1.985   6.250   7.910  0.9087 -1.3399  1.7442
  183SOPE  C31220992   1.888   6.093   8.040 -1.1413  0.0373  0.6842
  183SOPE  H12X20993   1.966   6.025   7.999 -0.6312 -0.1293  1.8787
  183SOPE  H12Y20994   1.793   6.037   8.033  0.2667 -2.2755 -2.5345
  183SOPE  C31320995   1.919   6.128   8.184  0.0859 -0.0104 -0.5821
  183SOPE  H13X20996   1.838   6.191   8.226 -0.4514 -0.8252 -0.3785
  183SOPE  H13Y20997   2.008   6.193   8.193 -1.3881  1.7924  3.4539
  183SOPE  C31420998   1.932   6.006   8.279  0.0234  0.3636  0.1182
  183SOPE  H14X20999   2.005   5.939   8.229  1.6300  1.5720  0.7555
  183SOPE  H14Y21000   1.831   5.961   8.290  0.7453 -0.9903  1.7206
  183SOPE  C31521001   1.974   6.032   8.422 -0.1368 -0.0914 -0.2174
  183SOPE  H15X21002   1.982   5.934   8.474  0.8236 -0.0181 -0.2133
  183SOPE  H15Y21003   1.897   6.099   8.466  0.5138 -0.8241  2.2284
  183SOPE  C31621004   2.109   6.104   8.439  0.3047 -0.2447  0.4586
  183SOPE  H16X21005   2.079   6.206   8.407 -3.1928  0.0382  3.8182
  183SOPE  H16Y21006   2.184   6.057   8.371  0.3294  1.6375 -0.8667
  183SOPE  C31721007   2.158   6.108   8.583  0.0946 -0.0842  0.1866
  183SOPE  H17X21008   2.171   6.001   8.613  0.0889 -0.2044 -0.2332
  183SOPE  H17Y21009   2.080   6.160   8.641 -0.6900 -0.3002 -0.6565
  183SOPE  C31821010   2.294   6.177   8.598 -0.5466  0.0313  0.7165
  183SOPE  H18X21011   2.359   6.160   8.509 -0.8843 -1.1043  0.6648
  183SOPE  H18Y21012   2.351   6.145   8.687 -0.5944  0.0571  0.7558
  183SOPE  H18Z21013   2.281   6.287   8.605  1.1444  0.4004 -0.9357
  184SOPE     N21014   1.265   5.435   6.002  0.6554 -0.4936 -0.2681
  184SOPE   HN121015   1.319   5.503   5.945 -1.2702  0.7141 -0.7206
  184SOPE   HN221016   1.331   5.355   6.006  2.0430  0.5757 -0.9056
  184SOPE   HN321017   1.177   5.401   5.957 -0.6392  0.7377  1.2206
  184SOPE   C1221018   1.246   5.502   6.135 -0.8942  0.5782  0.4694
  184SOPE  H12A21019   1.200   5.431   6.206 -1.2080  0.6886  0.3790
  184SOPE  H12B21020   1.168   5.581   6.127 -1.9527 -0.1405  2.8939
  184SOPE   C1121021   1.389   5.554   6.178 -0.4276 -0.1934  0.2284
  184SOPE  H11A21022   1.459   5.468   6.194 -1.0168 -0.7116  0.0754
  184SOPE  H11B21023   1.371   5.593   6.281  0.0823 -1.1630  0.7039
  184SOPE     P21024   1.380   5.812   6.112 -0.2612 -0.3347  0.1140
  184SOPE   O1321025   1.255   5.833   6.039  0.8755  0.3590 -0.1076
  184SOPE   O1421026   1.492   5.902   6.072  0.1342  0.0476 -0.2547
  184SOPE   O1221027   1.434   5.664   6.091 -0.0689 -0.4698  0.4716
  184SOPE   O1121028   1.353   5.828   6.272 -0.0482  0.2827 -0.0595
  184SOPE    C121029   1.472   5.863   6.345  0.2927  0.6779 -0.2169
  184SOPE    HA21030   1.507   5.965   6.316 -0.0026  0.5349 -1.1259
  184SOPE    HB21031   1.558   5.795   6.325 -2.2370 -3.2693  1.1391
  184SOPE    C221032   1.466   5.850   6.495  0.2850  0.1230  0.7341
  184SOPE    HS21033   1.498   5.747   6.522  2.3236  0.4368 -0.2505
  184SOPE   O2121034   1.333   5.888   6.540  0.2018 -0.0589 -0.2769
  184SOPE   C2121035   1.266   5.797   6.612 -0.1579  0.8759  0.2955
  184SOPE   O2221036   1.301   5.683   6.628  0.0238  0.3642  0.1405
  184SOPE   C2221037   1.134   5.857   6.643  0.6049 -0.3619  0.4990
  184SOPE   H2R21038   1.102   5.890   6.541 -0.0908  0.1676  0.8807
  184SOPE   H2S21039   1.158   5.947   6.704  0.3476  0.8084 -1.0660
  184SOPE    C321040   1.575   5.936   6.563 -0.2245  0.3708  0.0440
  184SOPE    HX21041   1.566   6.046   6.553  0.6374  0.5400  0.9766
  184SOPE    HY21042   1.676   5.924   6.519 -0.0356 -2.0649  1.0030
  184SOPE   O3121043   1.583   5.905   6.702  0.3475  0.2718 -0.0500
  184SOPE   C3121044   1.532   5.991   6.791 -0.1240  0.0691 -0.6971
  184SOPE   O3221045   1.491   6.099   6.763 -0.1241 -0.2457  0.4897
  184SOPE   C3221046   1.492   5.919   6.925 -0.6249 -0.3614 -0.3921
  184SOPE   H2X21047   1.585   5.925   6.986 -0.7434  1.7498 -0.3560
  184SOPE   H2Y21048   1.470   5.814   6.895  3.9217 -1.4420 -0.6764
  184SOPE   C2321049   1.035   5.775   6.716 -0.7199 -0.3489  0.0971
  184SOPE   H3R21050   1.011   5.678   6.668  0.1123 -0.8931  0.7561
  184SOPE   H3S21051   0.944   5.837   6.731  1.2804  2.5553  1.4518
  184SOPE   C2421052   1.087   5.740   6.854 -1.3984  0.1020  0.9540
  184SOPE   H4R21053   1.188   5.695   6.854 -1.4860 -0.1217  1.7362
  184SOPE   H4S21054   1.120   5.837   6.899  1.6001  0.1309 -1.0187
  184SOPE   C2521055   0.971   5.678   6.944 -0.3768 -0.0657 -0.1854
  184SOPE   H5R21056   0.877   5.735   6.926 -0.9533 -0.7149  0.7007
  184SOPE   H5S21057   0.949   5.573   6.917 -0.7100 -0.2063  0.6026
  184SOPE   C2621058   1.025   5.671   7.090  0.1480 -0.4019  0.5262
  184SOPE   H6R21059   0.974   5.589   7.145  0.3918  0.2712  1.7895
  184SOPE   H6S21060   1.134   5.649   7.089  0.1618 -0.4092  1.5096
  184SOPE   C2721061   0.993   5.800   7.165 -0.3936 -0.1187  0.1266
  184SOPE   H7R21062   1.051   5.879   7.113 -1.1818 -0.9242 -2.1010
  184SOPE   H7S21063   0.884   5.824   7.157 -0.0858  1.4407  0.2442
  184SOPE   C2821064   1.044   5.794   7.314 -0.6444 -0.1275 -0.0206
  184SOPE   H8R21065   0.976   5.730   7.375 -1.6711 -0.6316 -1.6198
  184SOPE   H8S21066   1.147   5.755   7.312 -0.5470 -0.1305  2.5368
  184SOPE   C2921067   1.032   5.939   7.364  0.5082 -0.2072  0.5754
  184SOPE   H9121068   1.020   6.007   7.278 -0.7357 -0.3393  0.6166
  184SOPE  C21021069   1.015   5.982   7.492 -0.1538 -0.5936  0.1831
  184SOPE  H10121070   0.995   6.089   7.507  0.8932 -0.2488 -0.6888
  184SOPE  C21121071   1.016   5.894   7.612  0.2342 -0.3692 -1.8747
  184SOPE  H11R21072   1.113   5.875   7.662 -1.3304 -1.4382  0.9731
  184SOPE  H11S21073   0.962   5.800   7.586  0.1520 -1.4951  1.8215
  184SOPE  C21221074   0.938   5.949   7.734 -0.0148 -0.3542 -0.4140
  184SOPE  H12R21075   0.835   5.982   7.712 -0.2275 -0.5319  0.2904
  184SOPE  H12S21076   0.995   6.032   7.781  0.6577 -2.6153  3.2210
  184SOPE  C21321077   0.905   5.846   7.844  0.0875  0.0448 -0.0862
  184SOPE  H13R21078   0.860   5.754   7.800 -1.1449  0.7302 -0.3113
  184SOPE  H13S21079   0.835   5.897   7.914  1.7645  2.7809 -0.2398
  184SOPE  C21421080   1.013   5.796   7.939  0.2935 -0.3092  0.0015
  184SOPE  H14R21081   1.042   5.885   7.999  1.8381 -0.8268  0.0620
  184SOPE  H14S21082   1.101   5.768   7.877 -0.0355 -3.2681  0.7183
  184SOPE  C21521083   0.968   5.663   8.015 -0.2315 -0.4812 -0.0482
  184SOPE  H15R21084   1.050   5.630   8.082  0.2789  1.7393  0.4924
  184SOPE  H15S21085   0.943   5.582   7.943 -1.3850 -0.1690 -0.0303
  184SOPE  C21621086   0.841   5.672   8.099  0.3942 -0.4406 -0.6289
  184SOPE  H16R21087   0.763   5.686   8.021 -1.0527 -3.4967  0.1045
  184SOPE  H16S21088   0.828   5.756   8.170 -0.9346 -0.1788 -1.1580
  184SOPE  C21721089   0.802   5.542   8.168 -0.5547 -0.3000  0.0242
  184SOPE  H17R21090   0.892   5.520   8.229  0.1800  0.6120 -0.6872
  184SOPE  H17S21091   0.808   5.466   8.087  2.2947 -0.3907  0.2016
  184SOPE  C21821092   0.677   5.540   8.259  0.8103 -0.3933  0.1545
  184SOPE  H18R21093   0.589   5.555   8.193  0.9719 -0.0765  0.0094
  184SOPE  H18S21094   0.692   5.625   8.329  0.9647  0.6889 -1.1568
  184SOPE  H18T21095   0.672   5.445   8.318 -0.0112 -0.0922  0.5913
  184SOPE   C3321096   1.387   5.990   7.008  0.4276 -0.4923 -0.2975
  184SOPE   H3X21097   1.290   5.992   6.954  0.3071  0.0313 -0.0639
  184SOPE   H3Y21098   1.426   6.093   7.021  0.0875 -0.5019  0.9912
  184SOPE   C3421099   1.351   5.931   7.155  0.3861 -0.5999 -0.0687
  184SOPE   H4X21100   1.310   5.828   7.140 -0.8893 -0.3556  1.4414
  184SOPE   H4Y21101   1.272   5.999   7.194  0.5799  0.3611 -1.3096
  184SOPE   C3521102   1.459   5.921   7.253 -0.3857 -0.4720  0.4437
  184SOPE   H5X21103   1.544   5.991   7.238 -0.9128  0.5194  1.8442
  184SOPE   H5Y21104   1.497   5.819   7.229  1.6601  0.5030 -0.6859
  184SOPE   C3621105   1.400   5.913   7.393  0.4397 -0.0756  0.3788
  184SOPE   H6X21106   1.344   5.819   7.414 -1.4137  0.5333 -1.4311
  184SOPE   H6Y21107   1.325   5.995   7.398  1.4209  0.9119 -0.5596
  184SOPE   C3721108   1.513   5.923   7.494 -0.5441 -0.1891  0.6601
  184SOPE   H7X21109   1.559   6.022   7.474  0.1230 -0.4425  0.9408
  184SOPE   H7Y21110   1.590   5.843   7.488  0.0335  0.1538  2.8091
  184SOPE   C3821111   1.457   5.931   7.637  0.5787 -0.0226 -0.1998
  184SOPE   H8X21112   1.546   5.950   7.700  0.6568  2.6808 -1.0045
  184SOPE   H8Y21113   1.418   5.830   7.665  0.1168 -0.1460 -1.2653
  184SOPE   C3921114   1.350   6.038   7.669 -0.0105 -0.2332 -0.4788
  184SOPE   H9X21115   1.260   6.013   7.608 -0.2779  0.0657 -0.2108
  184SOPE   H9Y21116   1.401   6.133   7.640  1.6967 -0.2600  2.2031
  184SOPE  C31021117   1.314   6.028   7.821  0.2802  0.2520  0.4488
  184SOPE  H10X21118   1.267   5.928   7.835 -3.9225  1.9588  0.2879
  184SOPE  H10Y21119   1.229   6.100   7.832  1.7281  2.1206 -0.1527
  184SOPE  C31121120   1.433   6.039   7.923 -0.7571  0.1086 -0.5846
  184SOPE  H11X21121   1.502   6.110   7.874 -1.4179  1.0390 -0.1916
  184SOPE  H11Y21122   1.480   5.940   7.942 -0.2233  0.6017  0.7307
  184SOPE  C31221123   1.386   6.093   8.058 -0.0145 -0.7372  0.2121
  184SOPE  H12X21124   1.325   6.018   8.112 -0.5529 -0.9457 -0.6673
  184SOPE  H12Y21125   1.321   6.181   8.039  0.4439 -0.9708 -2.8907
  184SOPE  C31321126   1.504   6.134   8.145 -0.5806  0.4454 -0.0108
  184SOPE  H13X21127   1.578   6.205   8.101  0.2052  0.4169  1.2254
  184SOPE  H13Y21128   1.563   6.042   8.166 -2.1947 -0.4615  0.6723
  184SOPE  C31421129   1.477   6.189   8.284  0.3239  0.0378  0.5562
  184SOPE  H14X21130   1.399   6.124   8.328  1.7763 -0.8882  1.8383
  184SOPE  H14Y21131   1.427   6.280   8.244 -0.3682 -1.2389 -1.6470
  184SOPE  C31521132   1.593   6.208   8.381  0.1364  0.1392  0.0293
  184SOPE  H15X21133   1.658   6.293   8.351  0.4281  0.2108  0.8229
  184SOPE  H15Y21134   1.655   6.116   8.375  0.3015  0.2489  0.0304
  184SOPE  C31621135   1.553   6.218   8.531  0.3791 -0.7285 -0.4245
  184SOPE  H16X21136   1.639   6.215   8.602  0.6218 -2.5765 -0.7451
  184SOPE  H16Y21137   1.475   6.142   8.551 -0.0798 -0.2583 -0.3928
  184SOPE  C31721138   1.471   6.355   8.554 -0.7276 -0.0833 -1.0627
  184SOPE  H17X21139   1.365   6.340   8.522 -1.3769  0.1681  0.8568
  184SOPE  H17Y21140   1.513   6.436   8.491  0.4087 -0.3252 -0.6349
  184SOPE  C31821141   1.471   6.397   8.704 -0.3119 -0.3673 -0.7511
  184SOPE  H18X21142   1.438   6.308   8.762 -0.0585 -0.0598 -0.1252
  184SOPE  H18Y21143   1.393   6.472   8.725  0.1043  0.6944 -2.7831
  184SOPE  H18Z21144   1.572   6.432   8.735 -1.4007  3.0893 -0.7572
  185SAPI   C1221145   6.219   3.246  11.031 -0.7167 -0.1825 -0.0937
  185SAPI    H221146   6.118   3.293  11.021 -0.0010  1.9628  1.8339
  185SAPI    O221147   6.257   3.266  11.173  0.6027  0.0018  0.0363
  185SAPI   HO221148   6.169   3.279  11.208 -0.0375  1.2536 -1.8924
  185SAPI   C1321149   6.193   3.103  10.993  0.4957  0.4747  0.8609
  185SAPI    H321150   6.159   3.093  10.888 -3.0015 -0.7200  1.9615
  185SAPI    O321151   6.086   3.039  11.066  0.1102 -0.6799 -0.2793
  185SAPI   HO321152   6.001   3.065  11.031 -0.1003 -0.6584  0.2339
  185SAPI   C1421153   6.312   3.015  11.007  0.1148  0.5548 -0.3836
  185SAPI    H421154   6.341   3.008  11.114 -0.5388  1.2056 -0.1497
  185SAPI    O421155   6.287   2.880  10.968  0.0154 -0.1280  0.4475
  185SAPI   HO421156   6.203   2.854  11.006 -0.9436  1.1687 -0.6828
  185SAPI   C1521157   6.426   3.070  10.934  0.4204 -0.3800 -0.3854
  185SAPI    H521158   6.413   3.059  10.824 -2.4667 -3.4587  0.1000
  185SAPI    O521159   6.540   3.004  10.973  0.1926  0.6615 -0.1627
  185SAPI   HO521160   6.605   3.041  10.912 -0.8073 -0.8698 -2.2900
  185SAPI   C1621161   6.447   3.212  10.980  0.0143  0.7907 -0.1126
  185SAPI    H621162   6.469   3.227  11.088 -0.7926  1.1458  0.0148
  185SAPI    O621163   6.565   3.265  10.914  0.3279  0.3606 -0.3702
  185SAPI   HO621164   6.622   3.312  10.975 -1.7607  0.8200  1.3545
  185SAPI   C1121165   6.325   3.295  10.943  0.5159  0.4625  0.4031
  185SAPI    H121166   6.292   3.273  10.839  2.2658 -0.2429 -0.0524
  185SAPI     P21167   6.257   3.545  10.891 -0.1190  0.2934 -0.4666
  185SAPI   O1321168   6.297   3.680  10.927  0.2815  0.4047 -0.4453
  185SAPI   O1421169   6.111   3.508  10.906 -0.6687 -0.1101  0.5845
  185SAPI   O1221170   6.348   3.436  10.968 -0.2066 -0.0279 -0.3887
  185SAPI   O1121171   6.305   3.518  10.743 -0.7120 -0.1771 -0.8438
  185SAPI    C121172   6.212   3.537  10.643 -0.6438  0.5036  0.7886
  185SAPI    HA21173   6.133   3.615  10.651 -1.3941 -0.0353 -0.9282
  185SAPI    HB21174   6.277   3.552  10.554 -0.4827  0.8751  0.9677
  185SAPI    C221175   6.136   3.407  10.592  0.2498 -0.1500 -0.3718
  185SAPI    HS21176   6.086   3.361  10.681  0.5430  0.3024  0.0316
  185SAPI   O2121177   6.237   3.325  10.534  0.1669 -0.2791 -0.2784
  185SAPI   C2121178   6.208   3.192  10.553  0.1649  0.2646  0.0051
  185SAPI   O2221179   6.115   3.154  10.627 -0.2250 -0.4979  0.5189
  185SAPI   C2221180   6.312   3.105  10.487 -0.0629  0.0756  0.6181
  185SAPI   H2R21181   6.363   3.171  10.413  2.5935 -2.0423  0.4027
  185SAPI   H2S21182   6.371   3.071  10.575 -1.3591  1.7555  2.2133
  185SAPI    C321183   6.032   3.444  10.489  0.5207  0.0857  0.0058
  185SAPI    HX21184   6.062   3.506  10.402  0.5856  1.8578  1.2524
  185SAPI    HY21185   5.957   3.505  10.543  0.2191 -0.5990  0.3759
  185SAPI   O3121186   5.982   3.326  10.423  0.1945 -0.0042 -0.5088
  185SAPI   C3121187   5.849   3.317  10.411  0.6393  0.3935  0.9527
  185SAPI   O3221188   5.770   3.406  10.434 -0.4212  0.3212  0.2394
  185SAPI   C3221189   5.812   3.189  10.325  0.1697  0.1297  0.6766
  185SAPI   H2X21190   5.709   3.157  10.350  0.0001 -1.3515 -1.6402
  185SAPI   H2Y21191   5.879   3.103  10.348 -0.3657 -0.5981 -0.3965
  185SAPI   C2321192   6.264   2.990  10.399  1.5729  0.1542  0.3728
  185SAPI   H3R21193   6.217   2.915  10.466  0.7719 -1.2433 -1.6663
  185SAPI   H3S21194   6.351   2.929  10.366 -0.6361 -3.7834  1.2930
  185SAPI   C2421195   6.169   3.028  10.281 -0.1564  0.4552 -0.4995
  185SAPI   H4R21196   6.213   3.108  10.218  0.8145 -0.5889 -1.1883
  185SAPI   H4S21197   6.073   3.068  10.321 -0.0048  2.5085 -2.0165
  185SAPI   C2521198   6.135   2.910  10.193 -0.2045  0.5438  0.6777
  185SAPI   H5R21199   6.052   2.844  10.224 -0.3336 -0.0519 -0.8720
  185SAPI   C2621200   6.187   2.896  10.064  0.9176  0.7109 -0.2874
  185SAPI   H6R21201   6.140   2.808  10.019 -0.1105  0.4729  1.1828
  185SAPI   C2721202   6.283   2.981   9.989  0.0251 -0.6610  0.0525
  185SAPI   H7R21203   6.323   3.059  10.057 -2.8261  0.5813  0.4723
  185SAPI   H7S21204   6.230   3.030   9.904  1.1066 -1.3642 -1.0589
  185SAPI   C2821205   6.399   2.899   9.937 -0.1632  0.0261  0.1129
  185SAPI   H8R21206   6.468   2.872  10.019  0.8713  1.8121 -0.1091
  185SAPI   C2921207   6.419   2.847   9.814 -0.1179 -0.0645  0.2290
  185SAPI   H9R21208   6.508   2.784   9.801 -0.9253 -0.6324 -3.9558
  185SAPI  C21021209   6.327   2.871   9.693  0.4410  0.3218 -0.1968
  185SAPI  H10R21210   6.379   2.952   9.637 -0.6617  2.5707  1.8596
  185SAPI  H10S21211   6.227   2.907   9.724 -0.4292 -2.2968  0.2598
  185SAPI  C21121212   6.321   2.749   9.605 -0.1810  0.1837  0.7122
  185SAPI  H11R21213   6.413   2.741   9.545 -0.1566  0.0059  0.7730
  185SAPI  C21221214   6.231   2.646   9.603 -0.5930 -0.3140 -0.4385
  185SAPI  H12R21215   6.255   2.559   9.539  0.8824 -1.6189  1.7452
  185SAPI  C21321216   6.117   2.639   9.702  0.5453  0.7428  0.4403
  185SAPI  H13R21217   6.136   2.690   9.799 -1.0959  1.0540  0.6287
  185SAPI  H13S21218   6.102   2.531   9.726  0.0587  0.3348 -1.5060
  185SAPI  C21421219   5.995   2.711   9.644 -1.0034 -0.0828  0.5528
  185SAPI  H14R21220   6.010   2.815   9.613  0.4967 -0.7703 -1.1868
  185SAPI  C21521221   5.879   2.658   9.599  0.3598 -0.0756 -0.0621
  185SAPI  H15R21222   5.800   2.723   9.558  1.3848  2.2851  1.5079
  185SAPI  C21621223   5.843   2.516   9.595 -0.9720  0.2615 -0.1999
  185SAPI  H16R21224   5.736   2.496   9.618 -0.9300  1.0875  0.7754
  185SAPI  H16S21225   5.909   2.448   9.652  2.3902  2.2314 -1.4723
  185SAPI  C21721226   5.871   2.470   9.459 -0.5566 -0.0398 -0.2804
  185SAPI  H17R21227   5.856   2.360   9.461  0.7914 -0.3040  3.0005
  185SAPI  H17S21228   5.980   2.485   9.444 -0.5239  1.9921  1.4754
  185SAPI  C21821229   5.800   2.536   9.339 -0.3706  0.3754  0.7979
  185SAPI  H18R21230   5.797   2.647   9.348  0.8876  0.4479  0.5081
  185SAPI  H18S21231   5.699   2.489   9.335 -0.6955  0.7808  2.9392
  185SAPI  C21921232   5.868   2.507   9.203  0.4391 -0.5761 -0.2962
  185SAPI  H19R21233   5.878   2.399   9.181 -3.0293 -1.1468  0.3297
  185SAPI  H19S21234   5.971   2.549   9.197  0.3877 -0.2716  0.7428
  185SAPI  C22021235   5.777   2.544   9.086  0.0664  0.0430  0.6700
  185SAPI  H20R21236   5.760   2.654   9.080 -1.7500 -0.2585 -0.2067
  185SAPI  H20S21237   5.673   2.508   9.096 -0.1643 -0.0745 -1.6423
  185SAPI  H20T21238   5.823   2.521   8.987 -0.0803 -2.3388  1.1110
  185SAPI   C3321239   5.809   3.225  10.179 -0.4209  0.3990  0.4121
  185SAPI   H3X21240   5.911   3.244  10.138 -0.9972  2.3344 -0.1955
  185SAPI   H3Y21241   5.742   3.313  10.171 -1.6889 -0.4824  1.0687
  185SAPI   C3421242   5.759   3.110  10.088  0.5274  0.2101 -0.1363
  185SAPI   H4X21243   5.654   3.086  10.114  1.4437 -2.9272  1.2456
  185SAPI   H4Y21244   5.819   3.021  10.119  0.0155  0.2832  1.1130
  185SAPI   C3521245   5.776   3.135   9.942  0.1488  0.4119 -0.0876
  185SAPI   H5X21246   5.770   3.033   9.899 -0.8821  0.1172  0.7068
  185SAPI   H5Y21247   5.873   3.181   9.915  0.4888 -0.3178 -0.1006
  185SAPI   C3621248   5.673   3.229   9.886  0.1996 -0.1179  0.6167
  185SAPI   H6X21249   5.710   3.333   9.882  1.9458 -0.7193  0.1163
  185SAPI   H6Y21250   5.594   3.247   9.962 -0.0008  2.4873 -0.1383
  185SAPI   C3721251   5.629   3.192   9.747 -0.0422 -0.0066  0.2769
  185SAPI   H7X21252   5.719   3.176   9.683  0.2608  2.0666  0.1266
  185SAPI   H7Y21253   5.568   3.269   9.696  1.3797 -0.4491 -2.2749
  185SAPI   C3821254   5.552   3.058   9.741 -0.0015 -0.5016  0.0484
  185SAPI   H8X21255   5.445   3.085   9.756  0.2978 -1.0883  5.1626
  185SAPI   H8Y21256   5.574   2.991   9.826  0.0934 -1.9474 -1.0805
  185SAPI   C3921257   5.569   2.974   9.616 -0.1870 -0.1744 -0.7558
  185SAPI   H9X21258   5.466   2.935   9.602 -0.1050 -0.5096 -0.4578
  185SAPI   H9Y21259   5.641   2.891   9.635  0.6739  1.0524  1.7972
  185SAPI  C31021260   5.611   3.051   9.489  0.2607 -0.3309  0.0146
  185SAPI  H10X21261   5.717   3.082   9.493  0.1276  0.0310  0.8205
  185SAPI  H10Y21262   5.544   3.136   9.463  0.1233 -0.8269 -1.3657
  185SAPI  C31121263   5.601   2.952   9.373  0.0374 -0.0303  0.2275
  185SAPI  H11X21264   5.498   2.911   9.376  1.3624 -3.8063 -0.9671
  185SAPI  H11Y21265   5.671   2.867   9.377  0.5594  0.4082  0.6302
  185SAPI  C31221266   5.605   3.023   9.234  0.3975  0.4240  0.7973
  185SAPI  H12X21267   5.702   3.076   9.217  0.2276  0.2262 -0.9612
  185SAPI  H12Y21268   5.527   3.102   9.235  0.2182  0.3089 -1.2380
  185SAPI  C31321269   5.589   2.920   9.119  0.3507 -0.2013  0.3510
  185SAPI  H13X21270   5.502   2.855   9.143 -1.4324  1.1922 -1.9338
  185SAPI  H13Y21271   5.675   2.851   9.106 -0.0104 -0.2615 -2.1545
  185SAPI  C31421272   5.563   2.990   8.986  0.1352  0.6557 -0.3520
  185SAPI  H14X21273   5.573   3.100   8.998  0.8106  0.5540  0.1059
  185SAPI  H14Y21274   5.457   2.971   8.961 -0.1460  2.5055 -0.6842
  185SAPI  C31521275   5.654   2.932   8.873  0.1143  1.1297 -0.2669
  185SAPI  H15X21276   5.633   2.978   8.774 -0.4119  0.8703 -0.2796
  185SAPI  H15Y21277   5.641   2.821   8.872  1.8828  0.8975 -0.0342
  185SAPI  C31621278   5.804   2.961   8.896  0.4233  0.3591 -0.1783
  185SAPI  H16X21279   5.838   2.917   8.992 -0.3205  3.6055  1.7092
  185SAPI  H16Y21280   5.807   3.069   8.921 -0.1520 -0.4554  4.0453
  185SAPI  C31721281   5.887   2.921   8.774  0.1565  0.1584  0.2055
  185SAPI  H17X21282   5.832   2.962   8.687  0.9915  2.3119  0.6352
  185SAPI  H17Y21283   5.870   2.811   8.766 -2.7899  0.6553 -2.2425
  185SAPI  C31821284   6.033   2.946   8.773  0.2680 -0.5568 -0.0843
  185SAPI  H18X21285   6.090   2.888   8.697 -0.9364 -0.6867 -0.9131
  185SAPI  H18Y21286   6.078   2.933   8.873  0.0766 -1.1536 -0.0708
  185SAPI  H18Z21287   6.037   3.056   8.756 -1.0766 -0.3193  1.0005
  186SAPI   C1221288   0.154   1.021  10.557  0.4259 -0.5745 -0.2308
  186SAPI    H221289   0.136   1.126  10.588 -0.5480 -0.8124  0.0525
  186SAPI    O221290   0.138   1.036  10.417  0.0277 -0.2794  0.5374
  186SAPI   HO221291   0.045   1.046  10.393  0.5613  0.1566 -1.6289
  186SAPI   C1321292   0.292   0.970  10.593  0.4643  1.2127 -0.4032
  186SAPI    H321293   0.293   0.972  10.704  0.6073  1.7264 -0.4105
  186SAPI    O321294   0.396   1.060  10.544 -0.7724  0.4191 -0.0004
  186SAPI   HO321295   0.479   1.045  10.591 -0.5111 -2.0043 -1.0893
  186SAPI   C1421296   0.311   0.825  10.553  0.4025  0.1607 -0.5370
  186SAPI    H421297   0.301   0.820  10.443 -1.0300 -0.1450 -0.4177
  186SAPI    O421298   0.435   0.776  10.601 -0.3775 -0.5452 -0.6009
  186SAPI   HO421299   0.432   0.680  10.603  0.4052 -0.5704  0.2760
  186SAPI   C1521300   0.196   0.744  10.614  0.3619 -0.3683  0.0229
  186SAPI    H521301   0.197   0.770  10.722  2.1440  0.2830 -0.1081
  186SAPI    O521302   0.219   0.606  10.607  0.4233 -0.1772 -0.7874
  186SAPI   HO521303   0.193   0.575  10.519  0.6993  1.3599 -1.4434
  186SAPI   C1621304   0.054   0.796  10.578  0.6904  0.1345  0.2642
  186SAPI    H621305   0.024   0.790  10.471  1.5797  0.9114 -0.0460
  186SAPI    O621306  -0.043   0.715  10.640  0.1866  0.1113 -0.2051
  186SAPI   HO621307  -0.086   0.657  10.577 -0.8185  0.1233  0.4308
  186SAPI   C1121308   0.044   0.942  10.620 -0.6393  0.9364 -0.3704
  186SAPI    H121309   0.056   0.932  10.730  1.2763 -0.6278 -0.6621
  186SAPI     P21310  -0.142   1.135  10.645  0.1051 -0.0490  0.3132
  186SAPI   O1321311  -0.076   1.178  10.770  0.1147  0.6644  0.0226
  186SAPI   O1421312  -0.290   1.136  10.641  0.1749  0.0338 -0.1268
  186SAPI   O1221313  -0.086   0.998  10.593 -0.5012  0.0305  0.2356
  186SAPI   O1121314  -0.071   1.220  10.524  0.5898  0.7852  0.5782
  186SAPI    C121315  -0.157   1.267  10.414 -0.0872 -0.3624 -0.0119
  186SAPI    HA21316  -0.236   1.336  10.450 -0.5116 -0.5600 -0.5427
  186SAPI    HB21317  -0.094   1.316  10.336 -1.9073 -0.7643 -1.8085
  186SAPI    C221318  -0.230   1.164  10.319 -0.1679 -0.0063  0.3469
  186SAPI    HS21319  -0.311   1.116  10.378  0.9427 -1.7539  0.5178
  186SAPI   O2121320  -0.136   1.062  10.281 -0.0495  0.4983 -0.6704
  186SAPI   C2121321  -0.181   0.946  10.230 -0.5681  0.1161 -0.0506
  186SAPI   O2221322  -0.295   0.911  10.229  0.6919  0.3975  0.0487
  186SAPI   C2221323  -0.056   0.862  10.181  0.1957  0.4452  0.0627
  186SAPI   H2R21324  -0.020   0.910  10.088 -0.1754  1.2015  0.3070
  186SAPI   H2S21325   0.015   0.872  10.266 -0.1750  1.1740  0.2977
  186SAPI    C321326  -0.297   1.228  10.196 -1.0275 -0.3866 -0.4840
  186SAPI    HX21327  -0.359   1.309  10.241 -0.4321  0.5603 -1.3216
  186SAPI    HY21328  -0.361   1.150  10.149 -1.9494 -1.4850  2.3476
  186SAPI   O3121329  -0.199   1.290  10.107  0.3945 -0.3233  0.0594
  186SAPI   C3121330  -0.155   1.224  10.001 -0.3520 -0.1851 -0.6071
  186SAPI   O3221331  -0.177   1.110   9.978  0.0901 -0.4546 -0.2479
  186SAPI   C3221332  -0.066   1.316   9.918 -0.4976  0.1095  0.5651
  186SAPI   H2X21333   0.035   1.286   9.954 -0.8284 -4.1605 -1.5022
  186SAPI   H2Y21334  -0.082   1.426   9.928 -1.8535 -0.0521  0.2933
  186SAPI   C2321335  -0.073   0.706  10.165 -0.5471 -0.3412 -0.1462
  186SAPI   H3R21336  -0.117   0.675  10.262  1.9901  1.6178  1.8034
  186SAPI   H3S21337   0.029   0.664  10.150 -0.8404 -0.8190 -0.8552
  186SAPI   C2421338  -0.152   0.669  10.042  0.7574 -0.5887  0.0514
  186SAPI   H4R21339  -0.255   0.707  10.062  0.5411 -0.2098 -1.5774
  186SAPI   H4S21340  -0.155   0.558  10.036 -2.7997 -0.5350 -1.5086
  186SAPI   C2521341  -0.111   0.739   9.912 -0.1621  0.2485 -0.1275
  186SAPI   H5R21342  -0.164   0.832   9.887  0.7043  0.5867 -0.7441
  186SAPI   C2621343  -0.045   0.673   9.807 -0.4579  0.0091 -0.5300
  186SAPI   H6R21344  -0.015   0.730   9.718 -1.7551 -1.8883 -2.2930
  186SAPI   C2721345   0.014   0.538   9.805  0.2784  0.6073 -0.1126
  186SAPI   H7R21346  -0.076   0.473   9.802  0.2334  0.6994 -0.8546
  186SAPI   H7S21347   0.061   0.521   9.904  1.1386 -0.7643 -0.7252
  186SAPI   C2821348   0.098   0.501   9.687 -0.4146 -0.1947 -0.6281
  186SAPI   H8R21349   0.203   0.480   9.714 -0.0022  0.4500 -1.6751
  186SAPI   C2921350   0.057   0.481   9.561 -0.0082 -0.5477  0.4288
  186SAPI   H9R21351   0.123   0.445   9.481  0.2682 -0.3231  0.5576
  186SAPI  C21021352  -0.082   0.520   9.517 -0.5270 -0.5711  0.0142
  186SAPI  H10R21353  -0.078   0.623   9.475  1.2490  0.4979  2.5461
  186SAPI  H10S21354  -0.159   0.521   9.597  2.0267  1.4630  2.6746
  186SAPI  C21121355  -0.118   0.430   9.398 -0.4671  0.0866 -0.3960
  186SAPI  H11R21356  -0.151   0.331   9.431  0.6028  0.0823  0.6938
  186SAPI  C21221357  -0.124   0.461   9.269 -1.0281 -0.1605  0.8131
  186SAPI  H12R21358  -0.158   0.388   9.194  1.9416  0.1410 -1.0010
  186SAPI  C21321359  -0.086   0.590   9.192  0.4782 -0.1314  0.1577
  186SAPI  H13R21360  -0.031   0.660   9.259  0.6344  0.0386 -0.1479
  186SAPI  H13S21361  -0.175   0.650   9.167 -0.2536  0.8771  4.3275
  186SAPI  C21421362   0.005   0.564   9.075  0.4003  0.3360  0.5919
  186SAPI  H14R21363   0.111   0.563   9.102  0.2416  0.4159  1.2230
  186SAPI  C21521364  -0.036   0.526   8.950 -0.3093 -1.0215 -0.4791
  186SAPI  H15R21365   0.037   0.490   8.876 -0.0275 -2.6194  0.5304
  186SAPI  C21621366  -0.183   0.504   8.919  0.1223 -0.6903  0.8403
  186SAPI  H16R21367  -0.253   0.504   9.006 -1.9500  1.4388 -0.7014
  186SAPI  H16S21368  -0.204   0.408   8.866 -0.7776 -1.3018  2.2309
  186SAPI  C21721369  -0.225   0.619   8.818 -0.0908 -0.7873  0.1770
  186SAPI  H17R21370  -0.222   0.715   8.874  0.1795 -1.0414  0.6009
  186SAPI  H17S21371  -0.334   0.612   8.795  0.0497 -0.9804 -0.4255
  186SAPI  C21821372  -0.144   0.609   8.685  0.3686  0.2951 -0.0317
  186SAPI  H18R21373  -0.169   0.509   8.643  3.4475 -0.6850  0.1898
  186SAPI  H18S21374  -0.036   0.614   8.711  0.3757  2.0817 -0.2934
  186SAPI  C21921375  -0.158   0.725   8.582 -0.0786 -0.6177  0.2125
  186SAPI  H19R21376  -0.120   0.818   8.630 -1.6562  0.6950 -0.9715
  186SAPI  H19S21377  -0.267   0.723   8.560  0.1758  0.3892 -1.2614
  186SAPI  C22021378  -0.071   0.700   8.458  0.2360 -0.4510 -1.0009
  186SAPI  H20R21379  -0.085   0.786   8.390  3.3987  1.9570  1.1432
  186SAPI  H20S21380  -0.093   0.600   8.414  1.8008 -1.2070 -0.1572
  186SAPI  H20T21381   0.038   0.689   8.478  0.0436 -0.9848 -0.1601
  186SAPI   C3321382  -0.050   1.292   9.762  0.0407 -0.1371 -0.7512
  186SAPI   H3X21383  -0.018   1.188   9.745  0.9867  0.2753 -1.5315
  186SAPI   H3Y21384   0.024   1.366   9.725  3.6649 -2.1517  1.8183
  186SAPI   C3421385  -0.190   1.302   9.693 -0.5140 -0.9636 -1.0154
  186SAPI   H4X21386  -0.227   1.407   9.700 -1.3573 -1.1011 -2.6929
  186SAPI   H4Y21387  -0.256   1.240   9.757  0.6639 -1.7429 -0.5255
  186SAPI   C3521388  -0.188   1.277   9.544 -0.5508 -0.6120  0.3431
  186SAPI   H5X21389  -0.150   1.370   9.496 -2.0518 -0.5244 -0.7181
  186SAPI   H5Y21390  -0.293   1.248   9.527 -0.7396  0.3611 -0.1996
  186SAPI   C3621391  -0.099   1.160   9.507  0.0367  0.2781 -0.4909
  186SAPI   H6X21392  -0.147   1.071   9.553 -0.6431  0.4411 -0.8723
  186SAPI   H6Y21393   0.007   1.165   9.540 -0.0257  1.8050 -0.4659
  186SAPI   C3721394  -0.092   1.138   9.355  0.0625 -0.3611  0.5274
  186SAPI   H7X21395  -0.041   1.220   9.301  1.8264 -1.2242  0.8119
  186SAPI   H7Y21396  -0.192   1.158   9.310  0.5135  0.8859  0.0560
  186SAPI   C3821397  -0.018   1.012   9.311 -0.0465  0.0356  0.7590
  186SAPI   H8X21398  -0.069   0.922   9.351  0.4682 -1.3614 -1.5622
  186SAPI   H8Y21399   0.088   1.024   9.344 -0.0001 -0.5094  0.8178
  186SAPI   C3921400  -0.031   0.987   9.158 -0.4815  0.2113  0.1306
  186SAPI   H9X21401   0.021   0.890   9.141  0.5617  0.7526  0.1867
  186SAPI   H9Y21402   0.020   1.068   9.102  0.2942 -1.6638 -2.0078
  186SAPI  C31021403  -0.174   0.973   9.105  0.2793  0.5274  0.1231
  186SAPI  H10X21404  -0.243   1.041   9.159  0.0309  0.2412  0.1658
  186SAPI  H10Y21405  -0.202   0.866   9.119  2.0925 -0.2829 -1.8769
  186SAPI  C31121406  -0.194   1.004   8.961 -0.7621 -0.2232 -0.5007
  186SAPI  H11X21407  -0.287   0.960   8.920 -1.2467 -0.5353  0.8803
  186SAPI  H11Y21408  -0.109   0.961   8.903  2.3868  0.8740  2.8888
  186SAPI  C31221409  -0.193   1.152   8.923  0.7784  0.3328 -1.1467
  186SAPI  H12X21410  -0.106   1.208   8.962  0.5437  0.7614 -1.2224
  186SAPI  H12Y21411  -0.278   1.208   8.969  0.7433  0.1217 -0.9559
  186SAPI  C31321412  -0.198   1.170   8.772 -0.0207  0.2691  0.8471
  186SAPI  H13X21413  -0.280   1.109   8.728  0.5606  0.7118 -0.8893
  186SAPI  H13Y21414  -0.095   1.137   8.744  0.6896 -1.0276  4.3872
  186SAPI  C31421415  -0.214   1.310   8.724 -0.4733  0.8149 -0.1333
  186SAPI  H14X21416  -0.140   1.378   8.771 -0.5180  2.0926 -1.8366
  186SAPI  H14Y21417  -0.311   1.353   8.756 -0.0107  1.2114  0.7679
  186SAPI  C31521418  -0.202   1.343   8.572 -0.2940 -0.6175 -0.5999
  186SAPI  H15X21419  -0.141   1.263   8.526  0.6915  0.2614 -0.8448
  186SAPI  H15Y21420  -0.153   1.440   8.552  0.9997 -1.4954 -1.8464
  186SAPI  C31621421  -0.350   1.340   8.511  0.1948  0.2478 -0.5515
  186SAPI  H16X21422  -0.417   1.282   8.578  1.4847  0.8706  1.3745
  186SAPI  H16Y21423  -0.347   1.278   8.419  0.5855 -0.1363 -0.2858
  186SAPI  C31721424  -0.422   1.474   8.475 -0.1849  0.6699  0.2153
  186SAPI  H17X21425  -0.460   1.522   8.567 -3.5716 -2.3316  0.5990
  186SAPI  H17Y21426  -0.510   1.451   8.412  0.4242 -1.8598  0.1925
  186SAPI  C31821427  -0.336   1.574   8.394  1.1275 -0.1017 -0.1778
  186SAPI  H18X21428  -0.305   1.517   8.303 -0.7508 -0.7281 -0.4615
  186SAPI  H18Y21429  -0.249   1.612   8.451  0.4128  1.4776 -0.1064
  186SAPI  H18Z21430  -0.401   1.657   8.359  0.3678  0.1470  1.6935
  187SAPI   C1221431   1.302   1.332   6.080 -0.0386  0.2964 -0.6211
  187SAPI    H221432   1.313   1.383   6.178  0.4586  1.4883 -1.2859
  187SAPI    O221433   1.174   1.273   6.066 -0.6407 -0.6821 -0.8095
  187SAPI   HO221434   1.120   1.334   6.117  2.0586  1.0233  0.2545
  187SAPI   C1321435   1.319   1.439   5.966  0.8626 -0.2605  0.2045
  187SAPI    H321436   1.423   1.475   5.981  1.7603 -3.3123  2.4584
  187SAPI    O321437   1.220   1.543   5.972 -0.0959 -0.0630  0.0741
  187SAPI   HO321438   1.152   1.517   6.035 -1.0669  2.9228  0.4146
  187SAPI   C1421439   1.331   1.369   5.827  0.5662  1.1131 -0.7009
  187SAPI    H421440   1.242   1.306   5.808 -0.2777  1.6213  1.4006
  187SAPI    O421441   1.344   1.468   5.724  0.1167  0.1575 -0.4574
  187SAPI   HO421442   1.259   1.498   5.691  0.4488 -1.6132 -3.3354
  187SAPI   C1521443   1.449   1.273   5.832  0.0975  0.3075 -0.7401
  187SAPI    H521444   1.537   1.338   5.848 -0.1735  0.1033  1.9729
  187SAPI    O521445   1.458   1.203   5.709  0.1254 -0.8942 -0.6133
  187SAPI   HO521446   1.455   1.272   5.642  3.6284 -1.1944 -1.2406
  187SAPI   C1621447   1.436   1.171   5.947  0.2526 -0.4083  0.9438
  187SAPI    H621448   1.341   1.118   5.924 -1.1027  2.3415 -0.3673
  187SAPI    O621449   1.543   1.071   5.941  0.1153  0.3940  0.0877
  187SAPI   HO621450   1.508   0.998   5.992  0.4913 -1.7041 -2.4553
  187SAPI   C1121451   1.417   1.233   6.080 -0.6907 -0.2008 -0.4322
  187SAPI    H121452   1.509   1.293   6.100 -0.3642 -0.4360 -1.1631
  187SAPI     P21453   1.489   1.111   6.315  0.0434 -0.5659 -0.4101
  187SAPI   O1321454   1.632   1.107   6.267  0.3083  0.0653 -0.5793
  187SAPI   O1421455   1.439   0.998   6.394  0.1296  0.2922 -0.3371
  187SAPI   O1221456   1.395   1.132   6.180 -0.2408  0.2691  0.1815
  187SAPI   O1121457   1.459   1.238   6.386 -0.6445 -0.1963 -0.1366
  187SAPI    C121458   1.509   1.267   6.513  0.1224 -0.4328  0.1284
  187SAPI    HA21459   1.585   1.189   6.537  1.7521  1.5813  1.8204
  187SAPI    HB21460   1.564   1.363   6.514 -0.6794  0.0659 -1.2562
  187SAPI    C221461   1.399   1.276   6.615  0.1598  0.7157  0.4110
  187SAPI    HS21462   1.322   1.343   6.571 -0.8347 -1.1196 -0.8115
  187SAPI   O2121463   1.458   1.323   6.734  0.9608 -0.1754  0.0725
  187SAPI   C2121464   1.386   1.400   6.815 -0.8938 -0.3335  0.6450
  187SAPI   O2221465   1.271   1.436   6.793 -0.0080 -1.0709  0.0363
  187SAPI   C2221466   1.469   1.440   6.936  0.0736 -0.4892  0.0253
  187SAPI   H2R21467   1.453   1.356   7.007 -1.1658 -0.4002 -0.1210
  187SAPI   H2S21468   1.577   1.453   6.914  0.3399  0.0668  1.5346
  187SAPI    C321469   1.323   1.146   6.647  0.8061 -0.0859 -0.2827
  187SAPI    HX21470   1.379   1.052   6.668 -2.1612 -1.6750  1.0848
  187SAPI    HY21471   1.260   1.130   6.557 -3.8793  2.0848  2.2310
  187SAPI   O3121472   1.239   1.156   6.765 -0.2750 -0.7158 -0.3430
  187SAPI   C3121473   1.118   1.207   6.743 -0.2234 -0.0672 -0.0367
  187SAPI   O3221474   1.074   1.249   6.639  1.1235 -0.1793  0.3765
  187SAPI   C3221475   1.038   1.222   6.880  0.5631 -0.5960  0.6391
  187SAPI   H2X21476   0.944   1.279   6.864  0.8477 -0.1967  0.3679
  187SAPI   H2Y21477   1.118   1.277   6.935 -0.0965 -0.8019  1.8418
  187SAPI   C2321478   1.424   1.576   6.996 -0.5037  0.1772 -1.0272
  187SAPI   H3R21479   1.323   1.554   7.037  0.0927  0.7032  0.8101
  187SAPI   H3S21480   1.418   1.657   6.920 -0.3500  1.2348  0.0667
  187SAPI   C2421481   1.514   1.615   7.112 -0.2598 -0.1720 -0.2760
  187SAPI   H4R21482   1.533   1.528   7.179 -1.3027  0.5297  0.9645
  187SAPI   H4S21483   1.459   1.695   7.166 -3.4767 -0.0618 -3.3279
  187SAPI   C2521484   1.643   1.667   7.063 -0.5148  0.2907 -0.2003
  187SAPI   H5R21485   1.678   1.654   6.960  1.2392  0.4890  0.3475
  187SAPI   C2621486   1.749   1.709   7.140 -1.0547 -0.3017 -0.1377
  187SAPI   H6R21487   1.847   1.716   7.090 -1.3886 -1.8437 -1.0739
  187SAPI   C2721488   1.750   1.717   7.294 -0.2477 -0.1274  0.1385
  187SAPI   H7R21489   1.810   1.639   7.344 -0.7357  1.4544  3.5013
  187SAPI   H7S21490   1.645   1.689   7.318 -1.6378 -0.1158 -4.9072
  187SAPI   C2821491   1.782   1.862   7.342  0.6660  0.4564  0.5320
  187SAPI   H8R21492   1.793   1.936   7.260 -0.3054 -1.1057 -1.0829
  187SAPI   C2921493   1.777   1.906   7.471 -0.4091  0.6246  0.0003
  187SAPI   H9R21494   1.783   2.015   7.484  0.2261  0.7861 -1.4733
  187SAPI  C21021495   1.744   1.823   7.597  0.3940  0.3235  0.0701
  187SAPI  H10R21496   1.719   1.718   7.572  1.5347 -0.1115  0.7064
  187SAPI  H10S21497   1.643   1.847   7.637 -1.3120 -3.7462 -1.2759
  187SAPI  C21121498   1.856   1.855   7.698  0.6087  0.1872 -0.4759
  187SAPI  H11R21499   1.907   1.953   7.693 -0.3060  0.9076  2.2099
  187SAPI  C21221500   1.882   1.775   7.803 -0.1988 -0.3905  0.6425
  187SAPI  H12R21501   1.956   1.812   7.876 -0.4103  1.4527 -0.0271
  187SAPI  C21321502   1.817   1.646   7.847  0.0238 -0.6619  0.4156
  187SAPI  H13R21503   1.888   1.597   7.916  0.0643  1.5775  2.0754
  187SAPI  H13S21504   1.791   1.592   7.753 -0.9122  1.9021 -0.9017
  187SAPI  C21421505   1.698   1.688   7.932  0.3864 -0.4903 -0.1876
  187SAPI  H14R21506   1.637   1.759   7.875  0.0181 -2.0337 -1.8054
  187SAPI  C21521507   1.673   1.653   8.056  0.3151 -0.6024  0.5185
  187SAPI  H15R21508   1.577   1.677   8.102 -0.5718 -2.9026  0.0034
  187SAPI  C21621509   1.756   1.568   8.149 -0.0841 -0.0413  0.4087
  187SAPI  H16R21510   1.816   1.494   8.091  1.4994 -1.4488  3.5799
  187SAPI  H16S21511   1.691   1.500   8.208  0.4425 -2.1851 -1.3542
  187SAPI  C21721512   1.860   1.648   8.235  0.4584 -0.2492  0.2316
  187SAPI  H17R21513   1.896   1.745   8.194 -0.7739  1.8534  3.7281
  187SAPI  H17S21514   1.942   1.577   8.259 -1.1179 -2.0574  0.5088
  187SAPI  C21821515   1.812   1.688   8.374  0.1782 -0.6623  0.0129
  187SAPI  H18R21516   1.766   1.611   8.439 -0.7680  0.3028  0.5054
  187SAPI  H18S21517   1.739   1.770   8.356 -0.4625 -1.2510 -0.0643
  187SAPI  C21921518   1.928   1.751   8.454 -0.4043  0.2403 -0.7482
  187SAPI  H19R21519   1.890   1.791   8.551  1.9146  0.5173  0.1222
  187SAPI  H19S21520   1.983   1.828   8.397  2.7860 -1.1422  0.2112
  187SAPI  C22021521   2.043   1.651   8.505  0.8407  0.1228  0.6337
  187SAPI  H20R21522   1.993   1.580   8.574  0.2363  1.2088  1.3409
  187SAPI  H20S21523   2.131   1.691   8.560  1.4407 -1.3519  0.7831
  187SAPI  H20T21524   2.078   1.592   8.417 -0.5733 -0.9920  0.7890
  187SAPI   C3321525   1.006   1.089   6.946  0.8044  0.4776 -0.0143
  187SAPI   H3X21526   1.099   1.039   6.980 -0.9209 -1.9018  1.5526
  187SAPI   H3Y21527   0.953   1.025   6.872 -0.3917  2.2312 -0.7413
  187SAPI   C3421528   0.910   1.093   7.072 -0.6420 -0.6042  0.4077
  187SAPI   H4X21529   0.807   1.120   7.041 -0.8630 -1.7449  0.1114
  187SAPI   H4Y21530   0.959   1.168   7.138 -0.8137  0.3440 -0.5240
  187SAPI   C3521531   0.893   0.955   7.134  0.0896  0.1224  0.1543
  187SAPI   H5X21532   0.989   0.902   7.151 -1.9635 -3.7187  0.9681
  187SAPI   H5Y21533   0.853   0.883   7.060  2.8380 -1.2493 -0.1236
  187SAPI   C3621534   0.819   0.938   7.271 -0.3989 -0.5506  0.0094
  187SAPI   H6X21535   0.835   0.835   7.308 -0.6720 -0.7904 -0.5333
  187SAPI   H6Y21536   0.709   0.949   7.259 -0.5162  2.2446  2.5073
  187SAPI   C3721537   0.861   1.041   7.377 -0.8890  1.1531  0.2329
  187SAPI   H7X21538   0.873   1.139   7.326 -0.5790  0.7300 -0.5342
  187SAPI   H7Y21539   0.960   1.008   7.415 -2.2298 -0.9972  2.0997
  187SAPI   C3821540   0.765   1.031   7.501 -0.4985  0.7254 -0.0303
  187SAPI   H8X21541   0.750   0.926   7.534 -1.9950  0.8171 -0.3475
  187SAPI   H8Y21542   0.669   1.075   7.466 -0.6600  1.0091  0.7496
  187SAPI   C3921543   0.826   1.095   7.635 -0.6579 -0.3470  0.5336
  187SAPI   H9X21544   0.861   1.197   7.609 -0.6081 -0.8052 -1.3641
  187SAPI   H9Y21545   0.909   1.037   7.680  2.5438  2.7005 -0.9796
  187SAPI  C31021546   0.708   1.122   7.739 -0.3676 -0.4714  0.0103
  187SAPI  H10X21547   0.649   1.028   7.747 -2.6678  0.8909 -0.1337
  187SAPI  H10Y21548   0.635   1.198   7.704 -0.7078 -1.2900 -1.1103
  187SAPI  C31121549   0.765   1.171   7.878  0.5084 -0.3611  0.1562
  187SAPI  H11X21550   0.811   1.271   7.865  2.3766 -1.1931  0.0484
  187SAPI  H11Y21551   0.847   1.106   7.917  2.2832  2.0737  0.7525
  187SAPI  C31221552   0.647   1.178   7.978  0.2761 -0.1911  0.5408
  187SAPI  H12X21553   0.633   1.073   8.011  4.1005 -0.7116  0.9902
  187SAPI  H12Y21554   0.566   1.224   7.918  0.3100  0.0243  0.6577
  187SAPI  C31321555   0.664   1.267   8.097  0.6675 -0.5851 -0.8102
  187SAPI  H13X21556   0.703   1.365   8.062 -0.5711 -0.2613 -1.3716
  187SAPI  H13Y21557   0.726   1.221   8.176 -1.7831 -0.0598  1.5714
  187SAPI  C31421558   0.528   1.307   8.157 -0.2124  0.7433 -1.0695
  187SAPI  H14X21559   0.493   1.225   8.223  1.2379 -1.3800 -2.8082
  187SAPI  H14Y21560   0.454   1.306   8.075 -0.4922 -0.6955 -0.8228
  187SAPI  C31521561   0.517   1.437   8.232 -0.5667 -0.0597  0.1881
  187SAPI  H15X21562   0.584   1.511   8.183  0.1050 -1.2040 -0.6663
  187SAPI  H15Y21563   0.555   1.423   8.336  0.2652 -2.5837 -0.3929
  187SAPI  C31621564   0.374   1.500   8.238 -0.1954 -0.3533  0.3723
  187SAPI  H16X21565   0.340   1.527   8.136 -1.3681 -1.7289  0.3645
  187SAPI  H16Y21566   0.388   1.597   8.289  0.6462 -1.2056  1.8335
  187SAPI  C31721567   0.274   1.413   8.304  0.7631 -0.4180 -0.1604
  187SAPI  H17X21568   0.319   1.408   8.406  2.8390  3.8313 -0.6370
  187SAPI  H17Y21569   0.256   1.312   8.261  0.5639 -0.4837  0.0748
  187SAPI  C31821570   0.136   1.484   8.335 -0.1673  0.7119 -0.6648
  187SAPI  H18X21571   0.157   1.577   8.392  3.7732 -1.5991  2.1262
  187SAPI  H18Y21572   0.079   1.414   8.399 -1.0404  0.4671 -1.6750
  187SAPI  H18Z21573   0.074   1.500   8.244  1.1996  0.4521 -1.6819
  188SAPI   C1221574   2.851   4.757   6.065 -0.6434 -0.3355 -0.2370
  188SAPI    H221575   2.930   4.742   6.141 -0.0330  0.3869 -0.7095
  188SAPI    O221576   2.896   4.845   5.958 -0.1239 -0.3690 -0.3551
  188SAPI   HO221577   2.899   4.931   6.002 -1.8742 -0.1481 -0.6029
  188SAPI   C1321578   2.828   4.614   6.015  0.8063 -0.2523 -0.0510
  188SAPI    H321579   2.796   4.556   6.104 -0.4962  0.2286 -0.1895
  188SAPI    O321580   2.942   4.563   5.957 -0.4059  0.3193  0.2524
  188SAPI   HO321581   2.981   4.633   5.904  0.2751 -1.0779 -1.1795
  188SAPI   C1421582   2.714   4.609   5.917 -0.4027  0.2367  0.6867
  188SAPI    H421583   2.739   4.666   5.825  0.6487 -0.3944  0.5663
  188SAPI    O421584   2.685   4.471   5.873 -0.0465 -0.8175  0.3003
  188SAPI   HO421585   2.754   4.461   5.807  0.3991 -1.7911  0.9002
  188SAPI   C1521586   2.587   4.665   5.977  0.0785  0.5602 -0.4755
  188SAPI    H521587   2.560   4.608   6.068 -0.6055 -0.9212 -1.5495
  188SAPI    O521588   2.474   4.646   5.893 -0.1656 -0.4359  0.1514
  188SAPI   HO521589   2.489   4.696   5.812  0.7661  0.0598  0.6152
  188SAPI   C1621590   2.611   4.804   6.027  0.6747  0.2357  0.5456
  188SAPI    H621591   2.637   4.868   5.940 -1.0413  2.9263  1.8785
  188SAPI    O621592   2.487   4.854   6.072  0.1801 -0.1774 -0.0273
  188SAPI   HO621593   2.483   4.848   6.168  1.8274  0.2233  0.1001
  188SAPI   C1121594   2.724   4.808   6.128 -0.0161  0.0598  0.1458
  188SAPI    H121595   2.693   4.738   6.208 -1.4586 -1.0160 -1.2829
  188SAPI     P21596   2.821   4.953   6.330 -0.2117 -0.2205 -0.5547
  188SAPI   O1321597   2.808   5.096   6.370  0.5345 -0.2669 -0.2830
  188SAPI   O1421598   2.959   4.912   6.313  0.4430 -0.1161  0.4719
  188SAPI   O1221599   2.746   4.937   6.187 -0.2613  0.0218  0.1461
  188SAPI   O1121600   2.738   4.865   6.435 -0.0654  0.3049  0.2649
  188SAPI    C121601   2.769   4.723   6.444  0.0891  0.2292 -0.2519
  188SAPI    HA21602   2.672   4.673   6.424 -0.7757  1.9389 -0.4789
  188SAPI    HB21603   2.847   4.687   6.374  2.4583  1.0082  1.8263
  188SAPI    C221604   2.805   4.693   6.591  0.1095 -0.1905 -0.0885
  188SAPI    HS21605   2.822   4.584   6.578  1.5191 -0.0205  0.1762
  188SAPI   O2121606   2.701   4.733   6.680 -0.1240  0.4133  0.2124
  188SAPI   C2121607   2.677   4.654   6.781  0.3075  0.0600 -0.2359
  188SAPI   O2221608   2.736   4.550   6.802 -0.5173 -0.2442  0.6126
  188SAPI   C2221609   2.583   4.719   6.878  0.3631 -0.0527  0.8110
  188SAPI   H2R21610   2.621   4.819   6.905 -1.9880  1.1429 -0.0167
  188SAPI   H2S21611   2.482   4.717   6.832  1.5387  1.8678 -2.1409
  188SAPI    C321612   2.946   4.758   6.637  0.3925  0.5584  0.3790
  188SAPI    HX21613   2.919   4.865   6.620  0.0693 -0.0363 -3.5778
  188SAPI    HY21614   3.024   4.738   6.561 -0.6484  1.1734 -0.8833
  188SAPI   O3121615   2.975   4.720   6.768 -0.3426  0.6618  0.3921
  188SAPI   C3121616   3.024   4.592   6.783  0.1992 -0.1744  0.1841
  188SAPI   O3221617   3.056   4.515   6.690  0.3595  0.5357  0.3240
  188SAPI   C3221618   3.026   4.543   6.926 -0.1843 -0.1922  0.9261
  188SAPI   H2X21619   3.090   4.453   6.932  0.2409 -0.0640 -1.1117
  188SAPI   H2Y21620   2.923   4.526   6.962 -0.2943 -1.5089  0.0313
  188SAPI   C2321621   2.574   4.647   7.014 -0.0241 -0.0205 -0.1396
  188SAPI   H3R21622   2.599   4.539   7.007  0.0071 -0.3316  3.0496
  188SAPI   H3S21623   2.475   4.661   7.062 -0.5610 -1.3714 -0.8069
  188SAPI   C2421624   2.671   4.701   7.122 -0.0458  0.6913 -0.3507
  188SAPI   H4R21625   2.640   4.805   7.146 -2.1791 -0.0793  0.4977
  188SAPI   H4S21626   2.774   4.712   7.081  1.0556 -2.0562  1.4199
  188SAPI   C2521627   2.669   4.624   7.254  0.3780 -0.3595  0.2077
  188SAPI   H5R21628   2.618   4.528   7.240 -2.2409  0.6425  2.1292
  188SAPI   C2621629   2.713   4.661   7.373 -0.1609 -0.1097 -0.2159
  188SAPI   H6R21630   2.701   4.597   7.461 -0.3315 -0.4896 -0.5110
  188SAPI   C2721631   2.763   4.801   7.405 -0.4470  0.3226 -0.2494
  188SAPI   H7R21632   2.683   4.860   7.455  0.7058  0.6785  1.2877
  188SAPI   H7S21633   2.794   4.851   7.311 -2.7041 -1.9061 -2.2846
  188SAPI   C2821634   2.884   4.800   7.502  0.0943 -0.2465  0.8197
  188SAPI   H8R21635   2.978   4.790   7.446 -0.6641  2.9478 -1.2507
  188SAPI   C2921636   2.883   4.790   7.633 -0.4560 -0.9730 -0.1829
  188SAPI   H9R21637   2.972   4.804   7.695 -0.5793 -0.8996 -0.0198
  188SAPI  C21021638   2.752   4.785   7.712 -0.7267  0.6156 -0.7234
  188SAPI  H10R21639   2.769   4.694   7.774 -2.2941 -0.0513 -1.2073
  188SAPI  H10S21640   2.657   4.773   7.655 -0.5478  1.3038 -1.1709
  188SAPI  C21121641   2.730   4.906   7.806  0.2057 -0.4139  0.3833
  188SAPI  H11R21642   2.782   4.997   7.772 -1.4164 -0.0319 -1.2380
  188SAPI  C21221643   2.669   4.914   7.923  0.1778  0.6866  0.6796
  188SAPI  H12R21644   2.661   5.008   7.979 -1.5540  1.1126 -0.2112
  188SAPI  C21321645   2.610   4.791   7.990  0.5963  0.4059  0.8249
  188SAPI  H13R21646   2.666   4.777   8.084  0.4493  1.2534  1.0528
  188SAPI  H13S21647   2.636   4.701   7.930 -2.0028 -1.4276  2.2618
  188SAPI  C21421648   2.462   4.791   8.029 -0.2422 -0.0113  0.7299
  188SAPI  H14R21649   2.395   4.859   7.974 -1.2999 -0.4762  1.4257
  188SAPI  C21521650   2.422   4.723   8.136  0.3816  0.3196  0.3622
  188SAPI  H15R21651   2.312   4.723   8.145  0.4917  0.9664  2.1767
  188SAPI  C21621652   2.496   4.628   8.229 -0.5465 -0.0273  0.3800
  188SAPI  H16R21653   2.597   4.600   8.191 -0.3791  0.3105  0.5705
  188SAPI  H16S21654   2.453   4.526   8.222  3.0219 -1.6448  0.1379
  188SAPI  C21721655   2.500   4.669   8.377  0.8020  1.1439 -0.4220
  188SAPI  H17R21656   2.537   4.771   8.403 -1.2433  1.1781  3.0420
  188SAPI  H17S21657   2.553   4.594   8.439  0.6680  0.2874 -1.3194
  188SAPI  C21821658   2.361   4.652   8.441 -0.4592  0.3394 -0.2272
  188SAPI  H18R21659   2.324   4.549   8.426 -1.3274  0.8852 -2.0745
  188SAPI  H18S21660   2.289   4.727   8.402 -0.4996  0.4288  0.0138
  188SAPI  C21921661   2.377   4.669   8.591 -0.2007 -0.0935  0.2817
  188SAPI  H19R21662   2.435   4.762   8.608 -2.3585  1.3910 -0.1392
  188SAPI  H19S21663   2.448   4.592   8.630  2.0719 -0.1524 -3.4394
  188SAPI  C22021664   2.239   4.684   8.664  0.0251  0.2485  0.0459
  188SAPI  H20R21665   2.253   4.679   8.774 -0.1602 -0.9035  0.0301
  188SAPI  H20S21666   2.174   4.596   8.643  1.5951 -1.2274  1.1076
  188SAPI  H20T21667   2.187   4.774   8.625 -1.6185 -0.1121  1.2730
  188SAPI   C3321668   3.087   4.643   7.029  0.1330  0.0062  0.2670
  188SAPI   H3X21669   3.044   4.745   7.022 -0.8132 -0.4046 -0.1159
  188SAPI   H3Y21670   3.189   4.658   6.989  0.4669  0.7031  1.3251
  188SAPI   C3421671   3.084   4.591   7.176  0.0318  0.6375  0.1147
  188SAPI   H4X21672   2.977   4.581   7.206 -0.9544 -0.8536 -3.4094
  188SAPI   H4Y21673   3.125   4.671   7.242 -2.8787  1.0358  1.5971
  188SAPI   C3521674   3.159   4.459   7.202 -0.1127  0.3115  0.0710
  188SAPI   H5X21675   3.258   4.478   7.154 -1.3044  1.0496 -2.2004
  188SAPI   H5Y21676   3.131   4.371   7.142  1.3386  0.1970 -0.4767
  188SAPI   C3621677   3.180   4.430   7.351 -0.4671  0.5428  0.0286
  188SAPI   H6X21678   3.087   4.423   7.412  1.0467  0.2450  2.4536
  188SAPI   H6Y21679   3.231   4.519   7.393  0.0645 -1.0729  3.1167
  188SAPI   C3721680   3.272   4.306   7.354  0.2354 -0.0057  0.1677
  188SAPI   H7X21681   3.371   4.320   7.304 -0.3590 -1.7709 -1.6261
  188SAPI   H7Y21682   3.219   4.220   7.309 -2.8763  0.9625  1.7339
  188SAPI   C3821683   3.293   4.260   7.500  0.4279 -0.2112  0.0164
  188SAPI   H8X21684   3.309   4.353   7.559  0.5550 -2.0571  3.0764
  188SAPI   H8Y21685   3.376   4.186   7.498  1.5007  0.9560 -1.5371
  188SAPI   C3921686   3.169   4.194   7.558 -0.0604  0.4887  0.4829
  188SAPI   H9X21687   3.115   4.130   7.485  2.0910 -0.5303 -0.3038
  188SAPI   H9Y21688   3.093   4.271   7.581 -3.8549 -2.4467 -1.1955
  188SAPI  C31021689   3.210   4.107   7.679 -0.2938  0.1002 -0.2305
  188SAPI  H10X21690   3.275   4.167   7.746  0.3362 -2.2027  1.3452
  188SAPI  H10Y21691   3.277   4.029   7.636  1.4984  0.0310  2.4728
  188SAPI  C31121692   3.095   4.047   7.759 -0.7169 -0.3956 -0.0385
  188SAPI  H11X21693   3.060   3.956   7.706 -0.2662 -0.3865 -0.3545
  188SAPI  H11Y21694   3.010   4.119   7.754 -0.0201  0.4204 -0.4406
  188SAPI  C31221695   3.120   4.026   7.907 -0.0665  0.0651 -0.5227
  188SAPI  H12X21696   3.135   4.124   7.958  0.8974 -0.4508  0.2252
  188SAPI  H12Y21697   3.217   3.973   7.914 -0.1981 -0.1563 -0.3803
  188SAPI  C31321698   3.008   3.936   7.965 -0.0643 -0.5149 -0.1695
  188SAPI  H13X21699   3.024   3.841   7.909  0.2026  0.6456 -2.1790
  188SAPI  H13Y21700   2.916   3.988   7.930  1.3459  0.6024 -2.4618
  188SAPI  C31421701   2.999   3.907   8.115 -0.1022 -0.7692  0.8694
  188SAPI  H14X21702   2.941   3.989   8.162 -2.0401 -2.0423  0.8275
  188SAPI  H14Y21703   3.100   3.903   8.162 -0.0054 -2.3488  0.5799
  188SAPI  C31521704   2.926   3.776   8.136  0.0724  0.3110 -0.0479
  188SAPI  H15X21705   2.972   3.683   8.096  1.6711  1.0561 -0.0499
  188SAPI  H15Y21706   2.828   3.774   8.085 -0.0294 -0.7859  0.1655
  188SAPI  C31621707   2.890   3.765   8.286 -0.2283 -0.4281 -0.3319
  188SAPI  H16X21708   2.837   3.858   8.317 -2.4667 -1.0321 -2.0540
  188SAPI  H16Y21709   2.989   3.767   8.336 -0.6390 -1.2568  0.5432
  188SAPI  C31721710   2.826   3.631   8.311  0.0764 -0.5204 -1.1533
  188SAPI  H17X21711   2.878   3.545   8.266  2.2771  0.6577 -0.9706
  188SAPI  H17Y21712   2.739   3.643   8.242 -1.8434  1.9757  1.4320
  188SAPI  C31821713   2.767   3.602   8.449 -0.3656 -0.1149 -0.4058
  188SAPI  H18X21714   2.713   3.690   8.488  1.7162  0.7502  0.7050
  188SAPI  H18Y21715   2.845   3.582   8.526  0.1070  0.9248 -0.6033
  188SAPI  H18Z21716   2.690   3.523   8.438 -0.6919  0.0189  0.8386
  189POPC     N21717   4.867   5.950  11.222  0.0482  0.0317 -0.4594
  189POPC   C1221718   4.868   5.848  11.111  0.2905  0.3678  0.2027
  189POPC  H12A21719   4.770   5.801  11.107  0.0736  0.8857 -2.0788
  189POPC  H12B21720   4.943   5.779  11.145  0.0879  1.4473  3.0663
  189POPC   C1321721   4.999   6.008  11.240 -0.2647 -0.3564 -0.0499
  189POPC  H13A21722   5.075   5.936  11.267 -2.4665 -2.1344  1.8483
  189POPC  H13B21723   5.026   6.055  11.147  1.2061 -0.5028  0.2795
  189POPC  H13C21724   5.005   6.090  11.310  0.8506 -0.5248  0.0755
  189POPC   C1421725   4.764   6.056  11.199 -0.5331  0.1783 -0.5115
  189POPC  H14A21726   4.764   6.136  11.272 -0.9435 -0.5254  0.2840
  189POPC  H14B21727   4.784   6.099  11.102 -0.3960  1.2104 -0.0290
  189POPC  H14C21728   4.671   6.002  11.190  0.2195 -0.9668 -2.0188
  189POPC   C1521729   4.842   5.876  11.352 -0.0820 -0.0462 -0.4816
  189POPC  H15A21730   4.748   5.824  11.346 -1.7658  2.5644  0.8584
  189POPC  H15B21731   4.830   5.954  11.427 -1.3928  0.2494 -0.9806
  189POPC  H15C21732   4.922   5.807  11.373 -0.5053 -0.2855  0.4202
  189POPC   C1121733   4.894   5.892  10.966  0.6067  0.0019 -0.3660
  189POPC  H11A21734   4.909   5.802  10.901 -3.1390 -1.2893  0.3373
  189POPC  H11B21735   4.990   5.949  10.965  0.8999 -0.3882  1.4227
  189POPC     P21736   4.645   5.902  10.872  0.2443 -0.0775  0.3113
  189POPC   O1321737   4.551   6.014  10.841 -0.0211  0.3010 -0.1142
  189POPC   O1421738   4.602   5.803  10.971  0.6238  0.0385  0.5485
  189POPC   O1221739   4.791   5.968  10.913  0.5771 -0.3590 -0.3099
  189POPC   O1121740   4.674   5.836  10.733 -0.8561  0.9271  0.2248
  189POPC    C121741   4.774   5.874  10.639 -0.3450 -0.0932 -0.4858
  189POPC    HA21742   4.871   5.829  10.669 -2.0775 -3.3466  0.7192
  189POPC    HB21743   4.780   5.985  10.641 -1.4095  0.0077 -1.7608
  189POPC    C221744   4.752   5.817  10.491  0.5578  0.6206 -0.0017
  189POPC    HS21745   4.848   5.800  10.438  0.1156 -1.8501 -0.1270
  189POPC   O2121746   4.676   5.912  10.417  0.2195 -0.4382  0.7389
  189POPC   C2121747   4.741   6.020  10.376 -0.0445 -0.3684 -0.2716
  189POPC   O2221748   4.854   6.059  10.392 -0.1271  0.5529 -0.4162
  189POPC   C2221749   4.635   6.092  10.279 -0.5124 -0.7492 -0.2840
  189POPC   H2R21750   4.547   6.124  10.340 -1.5841 -1.1333 -1.5729
  189POPC   H2S21751   4.609   6.008  10.211  1.6122 -1.0470 -0.7841
  189POPC    C321752   4.679   5.679  10.496 -0.0121  0.2729  0.0528
  189POPC    HX21753   4.614   5.661  10.585 -0.6308 -0.1643 -0.4809
  189POPC    HY21754   4.754   5.599  10.514  1.5403  1.3560 -1.3139
  189POPC   O3121755   4.599   5.642  10.378 -0.2688  0.7696 -0.1407
  189POPC   C3121756   4.677   5.591  10.280  0.7194  0.0402 -0.3010
  189POPC   O3221757   4.799   5.571  10.280  0.4752  0.1187 -0.3231
  189POPC   C3221758   4.584   5.553  10.166  0.1152  0.2492 -0.1728
  189POPC   H2X21759   4.501   5.627  10.165 -0.7180 -0.6569  0.1560
  189POPC   H2Y21760   4.538   5.458  10.199  1.5397 -0.4004  0.0259
  189POPC   C2321761   4.699   6.210  10.199  0.3373 -0.0426  0.0224
  189POPC   H3R21762   4.784   6.152  10.156 -0.4915 -2.0553  0.9498
  189POPC   H3S21763   4.749   6.279  10.269  0.3481  0.1730 -0.1977
  189POPC   C2421764   4.625   6.270  10.077  0.1073  0.2935 -0.3757
  189POPC   H4R21765   4.584   6.370  10.102 -0.3034 -0.4062  1.9484
  189POPC   H4S21766   4.543   6.200  10.052  1.6133 -1.1486 -1.5060
  189POPC   C2521767   4.704   6.281   9.945  0.1984 -0.5523 -0.5112
  189POPC   H5R21768   4.734   6.180   9.909  1.0013  0.2168 -2.0506
  189POPC   H5S21769   4.793   6.339   9.978 -1.1393  0.8747  0.7201
  189POPC   C2621770   4.633   6.352   9.828 -0.1326 -0.2279 -0.2299
  189POPC   H6R21771   4.609   6.457   9.855  2.1069 -0.0210  1.1820
  189POPC   H6S21772   4.538   6.295   9.819 -0.2572 -0.4757  2.0128
  189POPC   C2721773   4.717   6.344   9.703  0.1175 -0.5013  0.4020
  189POPC   H7R21774   4.780   6.252   9.700  0.5962 -0.1516 -1.5094
  189POPC   H7S21775   4.775   6.439   9.699  0.2392 -0.6051 -0.5059
  189POPC   C2821776   4.632   6.335   9.570  0.3625 -0.0946 -0.6081
  189POPC   H8R21777   4.694   6.351   9.479 -0.7232  0.5149 -1.2641
  189POPC   H8S21778   4.559   6.418   9.573 -1.5265 -1.6946  0.2338
  189POPC   C2921779   4.550   6.213   9.548  0.1672 -0.5017 -0.0125
  189POPC   H9121780   4.452   6.205   9.598  0.3800  0.1739  0.5236
  189POPC  C21021781   4.581   6.117   9.461 -0.4665  0.2192 -0.2844
  189POPC  H10121782   4.515   6.030   9.445  2.3532 -2.3957  1.1264
  189POPC  C21121783   4.705   6.104   9.370 -0.3151  0.0637  0.1703
  189POPC  H11R21784   4.765   6.019   9.408 -0.6085 -0.6572 -0.9453
  189POPC  H11S21785   4.759   6.201   9.361  1.4420 -0.9626 -1.1942
  189POPC  C21221786   4.673   6.054   9.225 -0.2891  0.6967 -0.1781
  189POPC  H12R21787   4.632   5.951   9.227 -1.5895  1.2042 -0.0506
  189POPC  H12S21788   4.767   6.064   9.167  1.1625 -0.8221  1.7529
  189POPC  C21321789   4.566   6.138   9.163 -0.0297 -0.8201  0.3792
  189POPC  H13R21790   4.591   6.241   9.198 -1.0425 -0.2693 -0.4697
  189POPC  H13S21791   4.463   6.121   9.199 -0.6814  0.4570 -0.7817
  189POPC  C21421792   4.556   6.143   9.014 -0.1160 -0.2728 -0.3488
  189POPC  H14R21793   4.462   6.196   8.989 -0.3788  1.0716  3.0513
  189POPC  H14S21794   4.554   6.038   8.976  1.5753 -0.2345 -0.6300
  189POPC  C21521795   4.661   6.220   8.939 -0.4321  0.0910  0.8619
  189POPC  H15R21796   4.766   6.208   8.973 -0.6329  1.5086  2.0567
  189POPC  H15S21797   4.641   6.328   8.953 -2.3773 -0.2991  1.4249
  189POPC  C21621798   4.663   6.175   8.795 -0.0702  0.1407  1.0758
  189POPC  H16R21799   4.563   6.202   8.754  0.3043 -1.6184 -1.2500
  189POPC  H16S21800   4.667   6.065   8.786  0.4266  0.1300  1.3810
  189POPC  C21721801   4.767   6.254   8.714  0.3626  1.3607  0.0003
  189POPC  H17R21802   4.771   6.193   8.622 -2.1898 -1.7831  1.7749
  189POPC  H17S21803   4.865   6.241   8.765  1.7535  1.3482 -2.5159
  189POPC  C21821804   4.739   6.402   8.696  0.6023 -0.2478  0.0507
  189POPC  H18R21805   4.746   6.455   8.793  0.9263 -1.9746  1.0085
  189POPC  H18S21806   4.641   6.436   8.655  0.8415  0.0549 -0.2750
  189POPC  H18T21807   4.823   6.450   8.642  0.0389  0.9478  0.2050
  189POPC   C3321808   4.651   5.539  10.033 -0.1799  0.2992  0.2910
  189POPC   H3X21809   4.755   5.576  10.019  0.7187 -1.1758  2.5208
  189POPC   H3Y21810   4.586   5.579   9.952  1.7311 -1.0302 -2.0176
  189POPC   C3421811   4.664   5.390   9.984 -0.2490  0.5389  0.2097
  189POPC   H4X21812   4.566   5.339   9.973 -1.5581  2.2676  2.7022
  189POPC   H4Y21813   4.720   5.338  10.065 -2.1674 -2.3331 -0.1786
  189POPC   C3521814   4.743   5.379   9.850 -0.0474 -0.5194  0.3781
  189POPC   H5X21815   4.848   5.395   9.880 -0.4918  3.2850  0.3016
  189POPC   H5Y21816   4.720   5.462   9.780  1.1356  0.7537  1.4470
  189POPC   C3621817   4.726   5.238   9.787  0.4553  0.0983 -0.1119
  189POPC   H6X21818   4.618   5.222   9.766  0.2034  3.1467 -1.7292
  189POPC   H6Y21819   4.744   5.156   9.860 -1.3339  0.7529  1.1036
  189POPC   C3721820   4.793   5.220   9.653  0.7152  0.7247 -0.2092
  189POPC   H7X21821   4.775   5.116   9.618 -1.9399  1.5009 -1.4075
  189POPC   H7Y21822   4.903   5.226   9.669  0.5875  2.2312  0.2663
  189POPC   C3821823   4.733   5.311   9.543  0.2744 -0.8188 -1.0898
  189POPC   H8X21824   4.747   5.417   9.574 -0.8790 -0.4237 -1.8862
  189POPC   H8Y21825   4.627   5.279   9.540  0.1208 -0.7373  1.3513
  189POPC   C3921826   4.792   5.293   9.398  0.1757  0.0988 -0.0963
  189POPC   H9X21827   4.797   5.185   9.370  1.0225  0.5104 -1.6446
  189POPC   H9Y21828   4.894   5.336   9.390  0.4993 -0.2353  1.6927
  189POPC  C31021829   4.708   5.367   9.295  0.3933  0.8825  0.2811
  189POPC  H10X21830   4.686   5.461   9.351 -0.1546  0.7798  0.2454
  189POPC  H10Y21831   4.615   5.314   9.267  0.5625  0.6836  0.0931
  189POPC  C31121832   4.784   5.403   9.165 -0.3464  0.2365  0.3458
  189POPC  H11X21833   4.811   5.312   9.107 -0.0519  0.4686  0.1152
  189POPC  H11Y21834   4.885   5.448   9.178 -0.2174 -0.1674  0.7674
  189POPC  C31221835   4.707   5.491   9.074  0.6622 -0.8115 -0.9192
  189POPC  H12X21836   4.701   5.594   9.115 -1.2577 -1.3157  0.2028
  189POPC  H12Y21837   4.601   5.461   9.059  1.2758 -2.9616 -1.3232
  189POPC  C31321838   4.769   5.512   8.938 -1.1730  0.3070 -0.4700
  189POPC  H13X21839   4.769   5.419   8.877  0.5579  1.3944 -2.2569
  189POPC  H13Y21840   4.877   5.534   8.949 -1.4884  1.5589  0.3070
  189POPC  C31421841   4.706   5.625   8.860  0.2965  0.0795  0.0637
  189POPC  H14X21842   4.711   5.713   8.928  1.7110 -0.5529  0.8203
  189POPC  H14Y21843   4.604   5.611   8.818  0.8562 -1.0081 -0.9708
  189POPC  C31521844   4.779   5.663   8.723 -1.0188 -0.8650  0.1168
  189POPC  H15X21845   4.772   5.579   8.650  1.6728  0.0326 -1.3084
  189POPC  H15Y21846   4.886   5.687   8.746 -1.2635  1.6729 -1.0742
  189POPC  C31621847   4.713   5.781   8.661  0.2720 -0.0748  0.2660
  189POPC  H16X21848   4.605   5.768   8.686  0.5135 -0.9187  0.9259
  189POPC  H16Y21849   4.730   5.774   8.552  2.6197  1.0782  0.4944
  189POPC  H16Z21850   4.740   5.883   8.697  0.2262  0.9735 -2.4557
  190POPC     N21851   1.109   3.233  11.101 -0.0734  0.7634 -0.1413
  190POPC   C1221852   1.081   3.256  10.950 -0.1183  0.3737  0.6434
  190POPC  H12A21853   1.008   3.185  10.916  0.4734 -1.6065  3.1661
  190POPC  H12B21854   1.166   3.225  10.891 -0.7418 -1.0599  0.4607
  190POPC   C1321855   1.142   3.086  11.116 -0.8102 -0.9111  0.4067
  190POPC  H13A21856   1.060   3.018  11.100 -1.4028 -0.0195 -0.4055
  190POPC  H13B21857   1.227   3.073  11.052  0.9639  1.0722  2.1777
  190POPC  H13C21858   1.174   3.078  11.219  2.4713 -0.9943 -0.5051
  190POPC   C1421859   1.218   3.323  11.145  0.1703  0.4285 -0.1714
  190POPC  H14A21860   1.314   3.304  11.100  1.4251  3.2401  1.1510
  190POPC  H14B21861   1.191   3.424  11.118  2.0638  0.6677 -1.3442
  190POPC  H14C21862   1.225   3.312  11.252 -1.8656 -2.6168 -0.2086
  190POPC   C1521863   0.979   3.266  11.179  1.3406  0.8343 -0.3636
  190POPC  H15A21864   0.935   3.360  11.149  0.4119  0.3540 -0.5294
  190POPC  H15B21865   0.988   3.251  11.285  2.2206  3.0119 -0.0766
  190POPC  H15C21866   0.904   3.196  11.145  0.7357  0.8436  0.9093
  190POPC   C1121867   1.050   3.398  10.899  0.1098 -0.0255 -1.0637
  190POPC  H11A21868   1.046   3.399  10.788 -0.3666  1.4904 -1.0614
  190POPC  H11B21869   1.138   3.464  10.918  1.4487 -1.6834 -1.3003
  190POPC     P21870   0.796   3.411  10.893 -0.5001  0.3193  0.6114
  190POPC   O1321871   0.672   3.462  10.964 -0.7437 -0.4279 -0.1121
  190POPC   O1421872   0.800   3.265  10.878  0.4076 -0.5686  0.1831
  190POPC   O1221873   0.934   3.461  10.954  0.9215  0.1371 -0.0858
  190POPC   O1121874   0.788   3.467  10.743  0.3507  0.3357 -0.2465
  190POPC    C121875   0.836   3.603  10.709  0.2224 -0.2856  0.2234
  190POPC    HA21876   0.945   3.589  10.694  0.2881 -1.1311  1.3466
  190POPC    HB21877   0.828   3.670  10.797 -0.2195 -0.5476  0.3863
  190POPC    C221878   0.791   3.657  10.568  1.0186 -0.5891 -0.3730
  190POPC    HS21879   0.688   3.698  10.579  0.4041 -1.8090 -1.3960
  190POPC   O2121880   0.795   3.548  10.479  0.0648  0.2822  0.0215
  190POPC   C2121881   0.685   3.470  10.471  0.4324  0.0792  0.1413
  190POPC   O2221882   0.574   3.492  10.521  0.0814 -0.1766 -0.1623
  190POPC   C2221883   0.722   3.336  10.410 -0.1609  0.5966 -0.5907
  190POPC   H2R21884   0.764   3.277  10.494  2.3329  2.2656 -0.5584
  190POPC   H2S21885   0.796   3.352  10.329 -1.2382 -1.3853 -2.0346
  190POPC    C321886   0.869   3.777  10.520 -0.0733 -0.6831 -0.0130
  190POPC    HX21887   0.972   3.737  10.513  0.1615 -0.2241  0.6969
  190POPC    HY21888   0.873   3.849  10.605  0.4342 -1.8031  0.9388
  190POPC   O3121889   0.808   3.835  10.399  0.6715  0.5816 -0.6801
  190POPC   C3121890   0.908   3.884  10.320 -0.4452 -0.5637  0.1785
  190POPC   O3221891   1.026   3.893  10.350  0.6831 -0.1846 -0.3894
  190POPC   C3221892   0.852   3.919  10.177 -0.0694 -0.1866  0.2435
  190POPC   H2X21893   0.779   3.998  10.205  0.3765  0.5035 -0.4745
  190POPC   H2Y21894   0.807   3.827  10.134 -1.1761  1.1841 -1.7224
  190POPC   C2321895   0.600   3.254  10.357  0.0017 -0.0973 -0.3962
  190POPC   H3R21896   0.521   3.245  10.435  1.5412 -1.7234  1.1036
  190POPC   H3S21897   0.630   3.149  10.332 -1.0842  0.1370 -2.9875
  190POPC   C2421898   0.552   3.321  10.227 -0.3148  0.2852 -0.1845
  190POPC   H4R21899   0.635   3.328  10.154 -0.3040 -2.2990 -0.5131
  190POPC   H4S21900   0.511   3.420  10.255  0.8670  0.0048  2.8662
  190POPC   C2521901   0.433   3.245  10.171 -0.4330  0.1069 -0.2696
  190POPC   H5R21902   0.354   3.243  10.250 -0.9014  1.1829 -0.6940
  190POPC   H5S21903   0.467   3.140  10.156  1.0042  0.6785 -1.1441
  190POPC   C2621904   0.386   3.313  10.040 -0.6067 -0.2781 -0.3200
  190POPC   H6R21905   0.476   3.313   9.975 -1.3219 -0.5514 -1.3331
  190POPC   H6S21906   0.352   3.418  10.058  1.3277  0.1524  1.2499
  190POPC   C2721907   0.274   3.232   9.972  0.9069  0.1092 -0.5093
  190POPC   H7R21908   0.178   3.215  10.026  1.1785  0.5659  0.1317
  190POPC   H7S21909   0.315   3.133   9.944  0.3944 -0.1871 -0.2280
  190POPC   C2821910   0.224   3.296   9.840 -0.3842 -0.1439 -0.9805
  190POPC   H8R21911   0.168   3.219   9.783  0.3339  0.4278 -2.4937
  190POPC   H8S21912   0.311   3.328   9.779  2.0850  1.8943  3.1382
  190POPC   C2921913   0.141   3.418   9.870 -0.4345 -0.5997 -0.3463
  190POPC   H9121914   0.092   3.426   9.969  0.7791  0.9836  0.1652
  190POPC  C21021915   0.137   3.526   9.785  0.1587  0.0376  0.6370
  190POPC  H10121916   0.061   3.599   9.815  0.7874  1.1245 -0.3764
  190POPC  C21121917   0.197   3.546   9.650 -0.2268  0.2974  0.3423
  190POPC  H11R21918   0.296   3.497   9.655  0.5198  1.7918  0.7201
  190POPC  H11S21919   0.227   3.651   9.629  2.3791 -0.5727 -0.6381
  190POPC  C21221920   0.120   3.480   9.535  0.0713 -0.1452  0.3364
  190POPC  H12R21921   0.020   3.528   9.537  0.2894  0.6857 -3.2240
  190POPC  H12S21922   0.093   3.374   9.558  0.1794  0.1255  1.8187
  190POPC  C21321923   0.185   3.493   9.396 -0.5071 -0.1160  0.4336
  190POPC  H13R21924   0.252   3.405   9.392 -1.3551 -0.7353 -2.2875
  190POPC  H13S21925   0.233   3.593   9.385  0.2263 -0.6373 -1.6453
  190POPC  C21421926   0.087   3.476   9.279 -1.0751  0.1005 -0.5378
  190POPC  H14R21927   0.018   3.562   9.286  0.4814  1.2663  2.3759
  190POPC  H14S21928   0.035   3.380   9.300 -0.6356 -0.4825 -2.0109
  190POPC  C21521929   0.162   3.462   9.143 -0.4644  0.0816 -0.0432
  190POPC  H15R21930   0.085   3.425   9.071  0.9042 -0.8313 -1.0882
  190POPC  H15S21931   0.242   3.385   9.149 -0.6574 -0.3844 -2.4789
  190POPC  C21621932   0.232   3.589   9.099  0.6543 -0.0060  0.5484
  190POPC  H16R21933   0.329   3.603   9.151  0.3432 -1.7621  1.7247
  190POPC  H16S21934   0.172   3.677   9.130 -0.4362 -1.0705  1.5824
  190POPC  C21721935   0.255   3.594   8.952 -0.2432  0.1479  0.3833
  190POPC  H17R21936   0.158   3.570   8.904 -0.6603  3.4314 -0.6607
  190POPC  H17S21937   0.314   3.503   8.926 -0.9502  0.3717 -2.2340
  190POPC  C21821938   0.320   3.718   8.898  0.2571 -0.2234  0.2307
  190POPC  H18R21939   0.261   3.809   8.920 -0.0506 -0.3462 -0.0752
  190POPC  H18S21940   0.320   3.714   8.787 -0.5222 -2.1448  0.2593
  190POPC  H18T21941   0.424   3.738   8.929 -0.0109 -0.4595  1.3185
  190POPC   C3321942   0.960   3.967  10.080 -0.5300 -0.1501 -0.6270
  190POPC   H3X21943   1.057   3.919  10.103  0.8284  2.6919  0.0845
  190POPC   H3Y21944   0.989   4.074  10.088 -2.3949  0.4712 -1.4379
  190POPC   C3421945   0.924   3.929   9.932  0.2936 -0.2007  0.3752
  190POPC   H4X21946   0.824   3.971   9.906 -0.9372 -0.2017  4.4407
  190POPC   H4Y21947   0.892   3.823   9.928 -1.0479  0.2160 -1.4126
  190POPC   C3521948   1.026   3.942   9.818 -0.3957  0.1719  0.5340
  190POPC   H5X21949   1.118   3.880   9.831 -0.6273 -0.3946 -0.4199
  190POPC   H5Y21950   1.071   4.043   9.826  1.6244 -0.4422 -1.6556
  190POPC   C3621951   0.961   3.910   9.681 -0.2282  0.5097 -0.1663
  190POPC   H6X21952   0.880   3.985   9.670  0.9539  2.4555  2.9414
  190POPC   H6Y21953   0.919   3.807   9.682  1.3842 -0.2405  2.4734
  190POPC   C3721954   1.061   3.924   9.568  0.5719 -0.1644  0.3557
  190POPC   H7X21955   1.143   3.853   9.588  2.4512  1.5894 -0.7347
  190POPC   H7Y21956   1.109   4.024   9.576  0.4608 -0.1292  0.5756
  190POPC   C3821957   1.016   3.901   9.423  0.4293 -0.1560 -0.2725
  190POPC   H8X21958   0.928   3.964   9.398  0.2573  0.0137  0.7362
  190POPC   H8Y21959   0.972   3.800   9.407 -0.7796  0.1406  0.9915
  190POPC   C3921960   1.129   3.917   9.322  0.9470 -0.0729 -0.2239
  190POPC   H9X21961   1.197   3.829   9.324  0.0045 -0.9286 -2.5779
  190POPC   H9Y21962   1.180   4.007   9.362 -0.4592 -0.5909  3.0490
  190POPC  C31021963   1.076   3.939   9.184 -1.0719  0.0710  0.1687
  190POPC  H10X21964   1.010   4.028   9.182 -0.0324  0.8638  0.4677
  190POPC  H10Y21965   1.022   3.850   9.144 -0.6886  0.8018 -2.1412
  190POPC  C31121966   1.184   3.962   9.077  0.6429 -0.2123 -0.2129
  190POPC  H11X21967   1.260   3.886   9.105  1.4844  1.2953  1.8345
  190POPC  H11Y21968   1.243   4.052   9.104 -0.6568  0.4230  0.6096
  190POPC  C31221969   1.126   3.972   8.933 -0.1041  0.3579 -0.3654
  190POPC  H12X21970   1.016   3.971   8.951 -0.3490  0.6199 -1.7235
  190POPC  H12Y21971   1.144   3.878   8.878 -1.1732 -0.0554 -0.0453
  190POPC  C31321972   1.165   4.099   8.859 -0.1056  0.1253  0.2117
  190POPC  H13X21973   1.130   4.187   8.916 -0.2149  0.7913 -0.8547
  190POPC  H13Y21974   1.103   4.100   8.767 -0.9691  0.7604  0.7814
  190POPC  C31421975   1.308   4.101   8.815 -0.7954 -0.0754  0.0781
  190POPC  H14X21976   1.348   3.999   8.794 -0.1327 -0.1394  1.5555
  190POPC  H14Y21977   1.352   4.160   8.897 -1.9824  2.9993 -1.3545
  190POPC  C31521978   1.329   4.178   8.684  0.3989 -0.4758 -0.5713
  190POPC  H15X21979   1.351   4.282   8.717 -1.4815 -0.8705  2.2766
  190POPC  H15Y21980   1.237   4.182   8.621 -0.5287 -2.6234  0.5517
  190POPC  C31621981   1.439   4.120   8.605 -0.6799  0.3576  0.9320
  190POPC  H16X21982   1.539   4.152   8.641 -1.2260  1.1786  1.7503
  190POPC  H16Y21983   1.435   4.150   8.498 -3.1575  0.1723  0.9207
  190POPC  H16Z21984   1.440   4.010   8.617  0.5005  0.2953  0.4027
  191POPC     N21985   5.284   5.156   6.140  0.4432 -0.0261  0.4534
  191POPC   C1221986   5.256   5.046   6.240  0.1250 -0.1458 -0.0721
  191POPC  H12A21987   5.149   5.042   6.252  0.3745 -2.1392  2.3718
  191POPC  H12B21988   5.294   5.084   6.334 -0.3161  0.4342 -0.1262
  191POPC   C1321989   5.429   5.171   6.110  0.4174 -0.1635  0.3208
  191POPC  H13A21990   5.436   5.250   6.036 -2.9070  0.4348  0.4830
  191POPC  H13B21991   5.474   5.218   6.196 -0.7725  1.2381  0.2210
  191POPC  H13C21992   5.471   5.077   6.076  0.2378  0.3722 -1.5316
  191POPC   C1421993   5.209   5.136   6.009  0.3183 -0.2280  0.2678
  191POPC  H14A21994   5.104   5.141   6.037  0.4453 -0.1547  0.7368
  191POPC  H14B21995   5.222   5.219   5.941 -0.1831  1.3638  2.0229
  191POPC  H14C21996   5.235   5.042   5.963  0.3629  0.3889 -1.0040
  191POPC   C1521997   5.233   5.289   6.192 -0.0363 -0.4020 -0.1252
  191POPC  H15A21998   5.290   5.339   6.270  0.5518  0.0967 -0.8643
  191POPC  H15B21999   5.134   5.284   6.235 -0.7923  1.2933 -1.5127
  191POPC  H15C22000   5.228   5.360   6.111 -0.4987 -0.4750 -0.1621
  191POPC   C1122001   5.311   4.897   6.223  0.1836 -0.4511  0.4392
  191POPC  H11A22002   5.322   4.861   6.328 -0.9162  0.1653  0.7865
  191POPC  H11B22003   5.412   4.891   6.177  0.6947 -0.3536  1.5116
  191POPC     P22004   5.086   4.751   6.218  0.2614  0.2275  0.0109
  191POPC   O1322005   5.054   4.622   6.144 -0.2910 -1.0377  0.0346
  191POPC   O1422006   4.983   4.849   6.249 -0.5231  0.1070  0.2663
  191POPC   O1222007   5.214   4.813   6.154 -0.1446 -0.5385  0.2524
  191POPC   O1122008   5.130   4.705   6.371  0.2850 -0.3995  0.3755
  191POPC    C122009   5.208   4.590   6.405  0.2978  0.1204  0.5426
  191POPC    HA22010   5.301   4.585   6.345  1.5091  2.2279  2.1058
  191POPC    HB22011   5.159   4.491   6.394 -1.4780  1.0848 -0.5716
  191POPC    C222012   5.254   4.587   6.551 -0.5022 -1.7646  0.2101
  191POPC    HS22013   5.330   4.509   6.572  1.1347 -0.7512 -1.5341
  191POPC   O2122014   5.138   4.579   6.644  0.0424 -0.0600  0.2239
  191POPC   C2122015   5.166   4.518   6.767  0.9364 -0.3791 -0.7694
  191POPC   O2222016   5.270   4.464   6.788  0.5360  0.0084  0.1644
  191POPC   C2222017   5.039   4.513   6.846 -0.7497  0.6756  0.3913
  191POPC   H2R22018   4.974   4.437   6.797  0.5366 -1.0276  1.2452
  191POPC   H2S22019   4.990   4.613   6.840 -1.8770  0.0523 -3.0629
  191POPC    C322020   5.335   4.715   6.591 -0.4632 -0.0703  0.3355
  191POPC    HX22021   5.269   4.804   6.582 -1.1365 -0.6909 -1.0918
  191POPC    HY22022   5.418   4.732   6.519 -0.9404  0.5273 -0.0823
  191POPC   O3122023   5.387   4.706   6.723 -0.0673  0.1441  1.0108
  191POPC   C3122024   5.516   4.661   6.749 -0.0762 -0.0990 -0.7463
  191POPC   O3222025   5.586   4.619   6.660 -0.3322  0.0056  0.0054
  191POPC   C3222026   5.551   4.683   6.907 -0.8670 -0.3743  0.3638
  191POPC   H2X22027   5.653   4.725   6.914 -0.4030 -1.4521  0.2863
  191POPC   H2Y22028   5.564   4.574   6.926  0.2805 -0.1153  1.1083
  191POPC   C2322029   5.039   4.471   6.997  0.6512  0.8869  0.2092
  191POPC   H3R22030   5.102   4.384   7.027 -2.9918 -2.0891 -0.0518
  191POPC   H3S22031   4.934   4.448   7.026  0.3883  0.2414 -1.1700
  191POPC   C2422032   5.089   4.584   7.088 -0.1115  0.0032 -0.1443
  191POPC   H4R22033   5.051   4.683   7.056 -1.2938 -0.3495  0.1296
  191POPC   H4S22034   5.200   4.582   7.091 -0.0888  1.8510  1.9528
  191POPC   C2522035   5.045   4.569   7.235  0.8620  0.3609 -0.0061
  191POPC   H5R22036   5.001   4.468   7.246  0.1163  0.3203 -2.7608
  191POPC   H5S22037   4.956   4.633   7.249 -0.1974 -1.1960  0.6316
  191POPC   C2622038   5.149   4.614   7.340 -0.7007  0.4050 -0.9496
  191POPC   H6R22039   5.116   4.711   7.384  0.2760  0.4001 -0.1775
  191POPC   H6S22040   5.247   4.640   7.295  0.3918  0.1964  1.1783
  191POPC   C2722041   5.170   4.504   7.446 -0.2419 -0.3382  0.6174
  191POPC   H7R22042   5.194   4.412   7.388 -2.2040  1.0155 -2.6097
  191POPC   H7S22043   5.068   4.474   7.479 -0.6698  0.9895  0.5417
  191POPC   C2822044   5.274   4.536   7.544  0.5206 -0.0881 -0.3189
  191POPC   H8R22045   5.240   4.612   7.617  0.3996  0.1951 -0.6678
  191POPC   H8S22046   5.361   4.573   7.486  0.0710  0.0313 -0.9270
  191POPC   C2922047   5.312   4.404   7.613  0.5454 -0.7907 -0.8655
  191POPC   H9122048   5.410   4.354   7.602  0.7875 -0.8463  1.1720
  191POPC  C21022049   5.229   4.347   7.701  0.1566 -0.8514 -0.1890
  191POPC  H10122050   5.272   4.271   7.767  2.7188  0.5972 -0.0706
  191POPC  C21122051   5.093   4.402   7.751 -0.2849  0.0794 -0.4883
  191POPC  H11R22052   5.021   4.320   7.730  0.2984 -0.1837 -1.5584
  191POPC  H11S22053   5.061   4.500   7.710  0.5135  0.4014 -0.3625
  191POPC  C21222054   5.101   4.433   7.902 -0.3741  0.6806  0.2961
  191POPC  H12R22055   5.161   4.526   7.915 -0.8807  0.8521  1.5702
  191POPC  H12S22056   5.150   4.345   7.949 -0.2441 -0.1346 -1.2813
  191POPC  C21322057   4.962   4.454   7.964 -0.2405  0.5343  0.0954
  191POPC  H13R22058   4.916   4.524   7.891 -0.9333  0.2780  0.2787
  191POPC  H13S22059   4.963   4.498   8.066  0.4354  0.3058  0.1942
  191POPC  C21422060   4.891   4.327   7.985 -0.0551 -0.1993 -0.2855
  191POPC  H14R22061   4.963   4.266   8.042  2.9329  0.0582 -3.4242
  191POPC  H14S22062   4.867   4.278   7.888  1.7337 -0.5421 -0.5814
  191POPC  C21522063   4.766   4.348   8.068 -0.3283 -0.8871  0.4399
  191POPC  H15R22064   4.690   4.284   8.019 -1.1194  0.1724  0.2555
  191POPC  H15S22065   4.724   4.450   8.063  0.0852 -0.7237  0.2371
  191POPC  C21622066   4.776   4.315   8.216 -0.6990  0.4396 -1.0093
  191POPC  H16R22067   4.864   4.372   8.252 -1.9247  2.6900 -1.3729
  191POPC  H16S22068   4.802   4.207   8.220 -0.1680  0.6028  0.1919
  191POPC  C21722069   4.649   4.340   8.294 -0.7396 -0.0252  0.1328
  191POPC  H17R22070   4.568   4.275   8.254 -0.1119  0.2276 -1.6359
  191POPC  H17S22071   4.616   4.444   8.272  0.8352  0.6472  0.7830
  191POPC  C21822072   4.648   4.306   8.441  0.0882  0.0339 -0.2463
  191POPC  H18R22073   4.687   4.392   8.500  1.0060 -0.2055 -0.4790
  191POPC  H18S22074   4.715   4.222   8.471  1.0498  1.1943  0.9571
  191POPC  H18T22075   4.549   4.279   8.483 -0.6528  1.0890 -1.2498
  191POPC   C3322076   5.470   4.772   7.004  0.4761  0.6970 -0.2163
  191POPC   H3X22077   5.367   4.731   7.015  0.6591  0.3985  0.4640
  191POPC   H3Y22078   5.446   4.870   6.959  0.6567 -0.0496 -2.0127
  191POPC   C3422079   5.539   4.788   7.135  0.2442 -0.0032  0.3470
  191POPC   H4X22080   5.641   4.831   7.126  0.1037  0.3405  0.3766
  191POPC   H4Y22081   5.549   4.685   7.174 -0.9587 -0.2631  0.0006
  191POPC   C3522082   5.450   4.860   7.240 -0.3527 -0.7561 -0.5660
  191POPC   H5X22083   5.342   4.833   7.236 -0.5336 -0.3098  0.9222
  191POPC   H5Y22084   5.454   4.970   7.225 -1.6112 -0.6629 -0.3431
  191POPC   C3622085   5.493   4.848   7.387  0.2666 -0.0167 -0.2767
  191POPC   H6X22086   5.596   4.887   7.394  0.1999  0.0602  0.3054
  191POPC   H6Y22087   5.513   4.742   7.413  0.3922  0.2222  0.6471
  191POPC   C3722088   5.398   4.925   7.480  0.3025 -0.3899 -0.2422
  191POPC   H7X22089   5.291   4.900   7.460 -0.5499  2.1749  0.7574
  191POPC   H7Y22090   5.408   5.033   7.461 -0.5139 -0.1521  0.5636
  191POPC   C3822091   5.429   4.894   7.628  0.5853  0.4910 -0.7598
  191POPC   H8X22092   5.539   4.905   7.635  0.6282  0.8156 -1.7152
  191POPC   H8Y22093   5.402   4.787   7.641 -1.1534  0.7775 -1.7001
  191POPC   C3922094   5.376   4.981   7.750 -0.2208  0.1538  0.1476
  191POPC   H9X22095   5.265   4.972   7.739  0.1657 -2.8048 -3.7276
  191POPC   H9Y22096   5.402   5.087   7.728 -1.4222  0.1672 -1.4021
  191POPC  C31022097   5.444   4.939   7.878  0.2208 -0.3213 -0.1471
  191POPC  H10X22098   5.431   5.021   7.952  1.6794  0.2547 -0.4980
  191POPC  H10Y22099   5.554   4.934   7.868  0.6831  1.3330  2.8745
  191POPC  C31122100   5.375   4.814   7.934  0.5252 -0.0245  0.2587
  191POPC  H11X22101   5.389   4.737   7.855  0.4066 -0.5844  0.7686
  191POPC  H11Y22102   5.267   4.836   7.922  0.6696  1.4605  1.3680
  191POPC  C31222103   5.390   4.778   8.080  0.4734  0.5219 -0.0336
  191POPC  H12X22104   5.316   4.705   8.119 -0.2232  0.9322 -0.5819
  191POPC  H12Y22105   5.388   4.863   8.152  1.7528  1.0292 -0.5584
  191POPC  C31322106   5.530   4.715   8.089 -0.7318 -0.3156  0.0951
  191POPC  H13X22107   5.590   4.807   8.066 -0.9717 -0.4850 -1.2590
  191POPC  H13Y22108   5.551   4.628   8.023  0.0980 -0.8622  1.0504
  191POPC  C31422109   5.554   4.681   8.230  0.0213  0.0271 -0.7494
  191POPC  H14X22110   5.496   4.755   8.289 -1.2933 -0.4785 -1.3606
  191POPC  H14Y22111   5.661   4.678   8.260 -0.4157 -0.7037  0.8271
  191POPC  C31522112   5.491   4.542   8.260 -0.6091  0.1159  0.1632
  191POPC  H15X22113   5.409   4.522   8.189 -1.3312  0.9467  0.7333
  191POPC  H15Y22114   5.443   4.557   8.359  1.9145  4.5920  1.0018
  191POPC  C31622115   5.587   4.430   8.270 -0.2592  0.0064 -0.1650
  191POPC  H16X22116   5.524   4.339   8.285 -2.2526  1.2379 -0.5879
  191POPC  H16Y22117   5.662   4.439   8.352  0.4417 -0.7033 -0.7151
  191POPC  H16Z22118   5.638   4.414   8.173 -0.0578  0.9139 -0.2152
  192POPC     N22119   4.056   6.743   5.935 -0.4083 -0.5434 -0.2681
  192POPC   C1222120   4.192   6.687   5.956 -0.4372  0.1599 -0.2505
  192POPC  H12A22121   4.230   6.665   5.857 -1.3303  0.2771 -0.6272
  192POPC  H12B22122   4.180   6.590   6.002  0.1820  1.5432  3.0674
  192POPC   C1322123   3.971   6.648   5.867 -0.0648 -0.1372  0.3676
  192POPC  H13A22124   3.871   6.686   5.853  0.4516  1.0511 -0.1648
  192POPC  H13B22125   4.006   6.609   5.773  1.1517  4.4209 -1.3338
  192POPC  H13C22126   3.966   6.559   5.930 -0.4018 -1.7405 -1.8179
  192POPC   C1422127   4.002   6.765   6.076  0.1928  0.1223  0.0515
  192POPC  H14A22128   4.053   6.846   6.126  4.1690 -1.6417 -0.7834
  192POPC  H14B22129   3.901   6.804   6.076  0.7054  1.5557 -1.0525
  192POPC  H14C22130   3.994   6.674   6.134 -1.0920 -0.2778 -0.7131
  192POPC   C1522131   4.066   6.880   5.865 -0.1529  0.2356 -0.8484
  192POPC  H15A22132   4.117   6.873   5.769  1.1148  2.9740 -0.4796
  192POPC  H15B22133   4.121   6.953   5.923  1.1028 -0.9133 -0.5419
  192POPC  H15C22134   3.967   6.919   5.847 -0.9049  0.1498  2.5895
  192POPC   C1122135   4.295   6.770   6.035 -0.2742 -0.3802  0.2937
  192POPC  H11A22136   4.380   6.703   6.062 -1.9322 -1.6615  2.6826
  192POPC  H11B22137   4.261   6.807   6.134 -2.1333  0.7782 -0.7323
  192POPC     P22138   4.374   7.020   6.014 -0.3514 -0.1069  0.5022
  192POPC   O1322139   4.248   7.067   6.071 -0.0377 -0.5368  0.7453
  192POPC   O1422140   4.448   7.095   5.909  0.0934 -0.7580  0.2787
  192POPC   O1222141   4.348   6.875   5.953  0.2421  0.2099  0.3386
  192POPC   O1122142   4.484   6.997   6.131  0.1971 -0.5416  0.2803
  192POPC    C122143   4.610   6.936   6.102  0.7005 -0.5515 -0.1219
  192POPC    HA22144   4.674   7.013   6.054 -3.3491  1.6907 -2.4889
  192POPC    HB22145   4.599   6.859   6.023  0.4505  1.3596 -2.0467
  192POPC    C222146   4.675   6.877   6.230  0.3292 -0.4178 -0.3141
  192POPC    HS22147   4.784   6.899   6.222  0.7168 -1.6574  1.0758
  192POPC   O2122148   4.646   6.735   6.234  0.4870 -0.2101 -0.5144
  192POPC   C2122149   4.749   6.656   6.257 -1.2029 -0.6210  0.1874
  192POPC   O2222150   4.859   6.697   6.287  0.2638  0.1652 -0.2554
  192POPC   C2222151   4.711   6.505   6.243 -0.5799 -0.7556  0.1467
  192POPC   H2R22152   4.733   6.466   6.141 -2.1728 -0.7262 -0.2413
  192POPC   H2S22153   4.602   6.503   6.266 -0.3507 -1.6392  1.2494
  192POPC    C322154   4.625   6.948   6.357  0.4965 -0.6097 -0.9613
  192POPC    HX22155   4.516   6.936   6.374  0.1250  2.3203 -0.6556
  192POPC    HY22156   4.633   7.059   6.351  1.5774 -0.6481 -0.5557
  192POPC   O3122157   4.682   6.911   6.482 -0.2396 -0.2168  0.1417
  192POPC   C3122158   4.797   6.979   6.524  0.0341  0.0213 -0.7320
  192POPC   O3222159   4.854   7.063   6.462 -0.4718  0.1227 -0.3490
  192POPC   C3222160   4.838   6.929   6.657 -0.8076 -0.3591  0.3254
  192POPC   H2X22161   4.801   6.825   6.663  0.9804 -1.0749 -0.4132
  192POPC   H2Y22162   4.788   6.987   6.738 -0.1327  1.0222 -0.2092
  192POPC   C2322163   4.791   6.419   6.347  0.1200  0.4859 -0.0163
  192POPC   H3R22164   4.896   6.452   6.360  0.4362  0.2257 -1.7561
  192POPC   H3S22165   4.796   6.321   6.295  1.5218  0.2740  0.4725
  192POPC   C2422166   4.716   6.394   6.482  0.1958 -0.2210 -0.0045
  192POPC   H4R22167   4.753   6.303   6.535  0.2443 -1.3183 -1.8268
  192POPC   H4S22168   4.610   6.378   6.456 -0.3047  1.2601  0.9881
  192POPC   C2522169   4.740   6.510   6.577 -0.1010  0.6501  0.0297
  192POPC   H5R22170   4.676   6.593   6.538 -1.3297 -0.9613 -1.5747
  192POPC   H5S22171   4.847   6.539   6.573 -0.0058  0.5588 -5.1884
  192POPC   C2622172   4.695   6.483   6.730 -0.2691 -0.7144  1.0883
  192POPC   H6R22173   4.762   6.399   6.760  0.4105  0.0255  1.6738
  192POPC   H6S22174   4.589   6.449   6.738 -0.4497 -0.1734  1.0317
  192POPC   C2722175   4.719   6.611   6.814 -0.5465 -0.0855 -0.4638
  192POPC   H7R22176   4.662   6.695   6.770  0.4064  1.1490  0.5788
  192POPC   H7S22177   4.827   6.635   6.805 -0.0882 -1.9888 -0.5694
  192POPC   C2822178   4.676   6.586   6.963  0.0657 -0.9000  0.0340
  192POPC   H8R22179   4.710   6.674   7.021 -1.5488  0.6649 -1.2659
  192POPC   H8S22180   4.727   6.492   6.994  1.0598 -0.6151 -0.6819
  192POPC   C2922181   4.530   6.581   6.984  0.4422  0.1713  0.2568
  192POPC   H9122182   4.467   6.551   6.898  0.2844 -0.0728  0.4550
  192POPC  C21022183   4.469   6.605   7.103 -0.6792  0.2094 -0.3428
  192POPC  H10122184   4.362   6.582   7.102 -0.0728 -3.0347  0.0269
  192POPC  C21122185   4.533   6.639   7.242  0.5145  0.1984 -0.2400
  192POPC  H11R22186   4.477   6.723   7.288  1.9274  1.2568 -0.3812
  192POPC  H11S22187   4.638   6.671   7.225  0.8209 -0.0206  1.1044
  192POPC  C21222188   4.530   6.523   7.338  0.4169 -0.3209 -0.2735
  192POPC  H12R22189   4.595   6.436   7.313 -0.4598 -0.8610 -0.7394
  192POPC  H12S22190   4.423   6.495   7.339  0.2067  0.3792 -1.4231
  192POPC  C21322191   4.550   6.563   7.483  0.7049  0.4998 -0.3874
  192POPC  H13R22192   4.508   6.666   7.484 -3.5847 -0.8741 -4.1652
  192POPC  H13S22193   4.659   6.555   7.503  0.4310 -0.2498  0.9019
  192POPC  C21422194   4.480   6.471   7.586 -1.0355  0.1966 -0.1137
  192POPC  H14R22195   4.544   6.380   7.593  1.9577  2.0761 -1.0164
  192POPC  H14S22196   4.380   6.451   7.542 -0.3911 -0.8043 -1.1981
  192POPC  C21522197   4.470   6.538   7.721 -0.3180 -0.5806  0.1235
  192POPC  H15R22198   4.409   6.630   7.715 -0.0984 -0.4999 -1.3896
  192POPC  H15S22199   4.571   6.574   7.752 -0.1386 -0.1207 -0.9605
  192POPC  C21622200   4.403   6.457   7.836  0.0580  0.5587 -0.5563
  192POPC  H16R22201   4.476   6.385   7.878 -1.8992 -0.5689  1.0530
  192POPC  H16S22202   4.314   6.401   7.801  0.2418 -0.7453  0.9642
  192POPC  C21722203   4.358   6.542   7.952  0.2068  0.1704 -0.2505
  192POPC  H17R22204   4.302   6.631   7.918  0.9770  0.0001 -2.0454
  192POPC  H17S22205   4.447   6.577   8.008  0.3449  0.2155 -0.4991
  192POPC  C21822206   4.265   6.455   8.042  0.1431  0.1115 -0.4207
  192POPC  H18R22207   4.188   6.402   7.980 -0.1856 -0.2527  0.2881
  192POPC  H18S22208   4.206   6.522   8.107  0.7855  0.0051  0.2810
  192POPC  H18T22209   4.330   6.392   8.106  1.9788  2.0746 -0.2556
  192POPC   C3322210   4.998   6.921   6.666 -0.6564 -0.6397  0.3531
  192POPC   H3X22211   5.045   7.022   6.671  1.4987 -1.5204 -0.5840
  192POPC   H3Y22212   5.041   6.873   6.576  1.1343  1.7801 -0.2030
  192POPC   C3422213   5.052   6.834   6.780 -1.0517 -0.0372 -0.0317
  192POPC   H4X22214   5.162   6.847   6.769 -0.9250 -0.9659  0.1092
  192POPC   H4Y22215   5.038   6.728   6.752 -1.0899  0.4419 -1.9744
  192POPC   C3522216   4.999   6.871   6.921 -0.5159 -0.0627 -0.2934
  192POPC   H5X22217   4.904   6.817   6.938  0.1300 -1.3423 -0.6539
  192POPC   H5Y22218   4.976   6.980   6.922  0.4490  0.1608  1.5094
  192POPC   C3622219   5.106   6.841   7.024 -0.5861 -0.2305  1.5295
  192POPC   H6X22220   5.201   6.885   6.989  0.0144 -1.5018  1.4804
  192POPC   H6Y22221   5.110   6.730   7.029  1.1546 -0.2861 -0.0562
  192POPC   C3722222   5.069   6.906   7.158 -0.6308  0.1406 -0.2261
  192POPC   H7X22223   4.987   6.851   7.208  0.1299 -2.6171 -1.7701
  192POPC   H7Y22224   5.032   7.007   7.131 -1.5385 -0.5245 -1.5337
  192POPC   C3822225   5.192   6.916   7.244  0.1574 -0.2179 -0.0233
  192POPC   H8X22226   5.287   6.935   7.190  0.8782 -1.6874  0.6687
  192POPC   H8Y22227   5.212   6.828   7.308 -0.0568  0.4237  0.9587
  192POPC   C3922228   5.180   7.022   7.352 -0.3758 -0.5637 -0.1460
  192POPC   H9X22229   5.117   7.109   7.322 -0.7528  0.3962  2.9884
  192POPC   H9Y22230   5.281   7.057   7.381 -0.1993 -1.1782 -0.0035
  192POPC  C31022231   5.110   6.978   7.486  0.5231 -0.0031  0.2041
  192POPC  H10X22232   5.009   6.935   7.467  0.2267  0.8049 -0.0970
  192POPC  H10Y22233   5.083   7.074   7.534 -2.8124  0.2082 -1.7667
  192POPC  C31122234   5.203   6.903   7.581 -0.0529  0.1200 -0.7568
  192POPC  H11X22235   5.301   6.956   7.585 -0.1773  0.2819  0.8275
  192POPC  H11Y22236   5.209   6.799   7.544 -1.3210 -0.3507  0.3111
  192POPC  C31222237   5.141   6.892   7.723  0.6138  0.3157 -0.3030
  192POPC  H12X22238   5.040   6.853   7.694  0.8187  1.3901 -2.7287
  192POPC  H12Y22239   5.113   6.991   7.764 -2.1208 -0.2990 -0.4744
  192POPC  C31322240   5.206   6.795   7.822  0.2880 -0.0497 -0.3278
  192POPC  H13X22241   5.317   6.800   7.818  0.3278 -0.3142  0.3442
  192POPC  H13Y22242   5.172   6.693   7.795 -1.4297  0.0608  1.2061
  192POPC  C31422243   5.148   6.827   7.960  0.8501  0.3905  0.5542
  192POPC  H14X22244   5.037   6.835   7.960  0.7876 -0.0888 -1.3187
  192POPC  H14Y22245   5.195   6.924   7.988  0.0346  0.5901  1.2674
  192POPC  C31522246   5.190   6.722   8.070 -0.6543  0.0689 -0.2710
  192POPC  H15X22247   5.297   6.696   8.054 -0.5858  0.6056 -0.7129
  192POPC  H15Y22248   5.141   6.625   8.048  1.6490 -0.4718 -4.0408
  192POPC  C31622249   5.156   6.773   8.211  0.0155 -0.1073  0.2086
  192POPC  H16X22250   5.183   6.694   8.284 -1.6964 -0.0575  0.9471
  192POPC  H16Y22251   5.047   6.794   8.225  0.3568  2.7901 -0.7683
  192POPC  H16Z22252   5.212   6.865   8.237  0.0947 -0.5538  1.6928
  193SOD    SOD22253   3.092   4.357   6.029 -0.2173  0.3092 -0.1541
  194SOD    SOD22254   3.116   0.756   3.747  0.2485  0.3231  0.5445
  195SOD    SOD22255   3.471   1.416  12.385 -0.6738  0.3112 -0.3398
  196SOD    SOD22256   2.321   5.299  13.391  0.0192  0.2282  0.1524
  197SOD    SOD22257   2.671   1.809   6.293  0.3942 -0.2422  0.3139
  198SOD    SOD22258   5.711   5.032  15.650  0.6238  0.1328  0.0924
  199SOD    SOD22259   4.998   2.390   2.427 -0.0533  0.1736  0.0748
  200SOD    SOD22260   6.241   4.455  11.649  0.1803 -0.7372  0.1093
  201SOD    SOD22261   3.795   0.549  15.871 -0.2383  0.6820  0.4708
  202SOD    SOD22262   5.258   4.805   4.663 -0.0201 -0.3281 -0.5117
  203SOD    SOD22263   5.571   3.711   6.279  0.0134  0.0871 -0.1820
  204SOD    SOD22264   0.535   6.120  11.066 -0.6845  0.3481 -0.8382
  205SOD    SOD22265   0.645   6.527   4.701 -0.0225 -0.4451  0.1913
  206SOD    SOD22266   5.243   5.754   3.660  0.3177  0.0610  0.2355
  207SOD    SOD22267   2.930   5.841  16.588 -0.1938  0.2367 -0.2038
  208SOD    SOD22268   2.794   2.879   5.960 -0.0192  0.0314 -0.5689
  209SOD    SOD22269   4.601   1.014  11.260  0.0803 -0.1052 -0.1330
  210SOD    SOD22270   0.964   0.312   6.252  0.2364 -0.1870 -0.0177
  211SOD    SOD22271   5.271   4.461   2.124  0.1481 -0.7017  0.0780
  212SOD    SOD22272   0.696   3.729  11.371 -0.2106  0.1086  0.3759
  213SOD    SOD22273   2.701   2.243  11.411 -0.1784 -0.2419 -0.1393
  214SOD    SOD22274   0.739   0.597   1.185 -0.1943 -0.0512  0.1623
  215SOD    SOD22275   6.464   5.176  16.766 -0.5498  0.5252  0.3364
  216SOD    SOD22276   6.130   5.582  13.530  0.1679 -0.2003  0.5810
  217SOD    SOD22277   5.275   6.114  10.556 -0.3143  0.0325  0.4445
  218SOD    SOD22278   1.531   6.395  16.495 -0.0093 -0.4166 -0.1220
  219SOD    SOD22279   0.558   5.911   4.551 -0.3024  0.4392  0.3245
  220SOD    SOD22280   3.367   1.786   0.029  0.1276 -0.1616 -0.2595
  221SOD    SOD22281   3.287   2.891   4.073  0.2056 -0.2380  0.0568
  222SOD    SOD22282   5.668   6.305   5.703  0.1250 -0.2953 -0.1895
  223SOD    SOD22283   0.359   2.139  11.849 -0.5067  0.1774 -0.4245
  224SOD    SOD22284   2.386   3.555   1.155 -0.8565 -0.0481 -0.1520
  225SOD    SOD22285   3.947   4.251  11.508  0.0430 -0.4160 -0.2487
  226SOD    SOD22286   0.263   2.127  13.491 -1.0128 -0.0059  0.1441
  227SOD    SOD22287   0.908   6.612  13.449  0.3126 -0.2874 -0.4477
  228SOD    SOD22288   1.581   2.126   5.818 -0.2027  0.0346  0.2987
  229SOD    SOD22289   4.255   3.779  13.816  0.1310  0.5524  0.1871
  230SOD    SOD22290   0.371   2.051  15.279  0.1516 -0.4589 -0.1862
  231SOD    SOD22291   5.008   0.242  13.860 -0.0648 -0.3411 -0.2230
  232SOD    SOD22292   1.560   2.554   3.584 -0.5987  0.4199 -0.1995
  233SOD    SOD22293   5.976   4.254  16.017  0.0220  0.8750 -0.1021
  234SOD    SOD22294   6.272   1.273   3.688 -0.3281 -0.2009  0.0755
  235SOD    SOD22295   0.187   4.479   2.447  0.0098  0.0546  0.0646
  236SOD    SOD22296   0.255   0.168   5.311  0.0262  0.2762 -0.1075
  237SOD    SOD22297   6.266   6.495  15.152  0.5679 -0.2951 -0.1791
  238SOD    SOD22298   3.647   0.422   1.363  0.2798 -0.1154  0.1504
  239SOD    SOD22299   3.196   3.571   4.752 -0.0356 -0.1742  0.0265
  240SOD    SOD22300   3.138   6.410  16.295 -0.4059  0.0529 -0.6414
  241SOD    SOD22301   4.888   6.021   5.114 -0.1331  0.0404  0.3579
  242SOD    SOD22302   3.189   2.833  14.110  0.1135  0.3865  0.0233
  243SOD    SOD22303   5.025   3.293   4.888 -0.1148  0.2107 -1.0163
  244SOD    SOD22304   4.416   5.191  10.905 -0.3270 -0.4085 -0.0861
  245SOD    SOD22305   5.981   2.469   2.106 -0.5531 -0.0778 -0.3031
  246SOD    SOD22306   4.870   2.455  14.083 -0.0688 -0.0112  0.1985
  247SOD    SOD22307   6.666   4.371   4.896 -0.1914  0.7272  0.2651
  248SOD    SOD22308   4.269   5.406  11.890 -0.4758  0.1607  0.1192
  249SOD    SOD22309   3.360   2.215   5.592 -0.2908 -0.0153  0.4702
  250SOD    SOD22310   6.376   0.105  11.791  0.0558 -0.1401 -0.0966
  251SOD    SOD22311   4.151   5.273   5.272 -0.0478  0.1708 -0.0203
  252SOD    SOD22312   5.900   0.462   4.075  0.0517  0.4500  0.1221
  253SOD    SOD22313   2.387   4.358   5.122  0.1896 -0.3507 -0.2059
  254SOD    SOD22314   6.131   0.980  13.904 -0.0072  0.0570 -0.3984
  255SOD    SOD22315   3.766   1.845  16.110 -0.2258 -0.0913  0.0344
  256SOD    SOD22316   6.487   3.709  13.241 -0.2559 -0.2049 -0.4135
  257SOD    SOD22317   3.297   1.645   4.352 -0.7349  0.0074  0.0247
  258SOD    SOD22318   6.105   1.631  13.144 -0.1952 -0.2456  0.4516
  259SOD    SOD22319   4.460   2.104   6.176  0.6404 -0.6072  0.2993
  260SOD    SOD22320   2.126   3.013   5.894  0.0297 -0.2473  0.3475
  261SOD    SOD22321   1.759   1.164   6.065 -0.7306 -0.3037  0.2379
  262SOD    SOD22322   5.860   2.589   5.552  0.3931 -0.9762  0.1664
  263SOD    SOD22323   3.040   1.430   1.936  0.0825 -0.1609 -0.4145
  264SOD    SOD22324   4.567   1.312  10.425  0.4130  0.0655 -0.2282
  265SOD    SOD22325   1.487   3.059  16.023 -0.3977  0.1142 -0.4482
  266SOD    SOD22326   1.984   0.081  13.807  0.1773  0.3866  0.0750
  267SOD    SOD22327   5.562   4.681   5.401  0.3346 -0.1821  0.2363
  268SOD    SOD22328   6.811   1.228  10.975 -0.1864  0.0010  0.3715
  269SOD    SOD22329   4.472   5.177   1.253 -0.0203  0.0478 -0.0518
  270CLA    CLA22330   0.155   2.457  15.314  0.1866  0.0817  0.0655
  271CLA    CLA22331   4.148   5.492   5.094 -0.2123  0.1875 -0.4206
  272CLA    CLA22332   2.889   1.170   5.860 -0.4415 -0.0053  0.0437
  273CLA    CLA22333   3.582   0.885  15.062 -0.0993  0.1749 -0.0166
  274CLA    CLA22334   4.127   3.565  13.738  0.0607  0.1330  0.1177
  275CLA    CLA22335   6.266   2.908  14.775 -0.2362 -0.2519  0.1464
  276CLA    CLA22336   4.840   0.426   3.650 -0.0931 -0.0451 -0.0843
  277CLA    CLA22337   3.508   3.173   2.685 -0.1334 -0.2790 -0.0347
  278CLA    CLA22338   6.225   0.883  13.683 -0.2170 -0.3699 -0.0662
  279CLA    CLA22339   2.755   3.682  16.060 -0.6921 -0.1458  0.0104
  280CLA    CLA22340   0.295   1.416   4.309  0.0550 -0.1380 -0.1559
  281CLA    CLA22341   5.918   3.007   5.126  0.2850 -0.3913  0.3558
  282CLA    CLA22342   5.550   6.085   3.941  0.1987 -0.3148 -0.2507
  283CLA    CLA22343   6.137   1.104   0.717 -0.1584  0.0028  0.1617
  284CLA    CLA22344   5.379   2.388   4.174  0.5301  0.1651 -0.2590
  285CLA    CLA22345   0.383   3.159  12.614 -0.0241  0.2673 -0.0153
  286CLA    CLA22346   3.523   1.250   3.623  0.2290 -0.0178 -0.0445
  287CLA    CLA22347   5.387   5.432   5.614  0.1700  0.2059 -0.5107
  288CLA    CLA22348   0.617   5.864   4.081 -0.2051  0.1535 -0.0349
  289CLA    CLA22349   1.739   4.603  15.712  0.2555 -0.1235 -0.4365
  290CLA    CLA22350   6.196   5.842  14.561 -0.0420 -0.0436 -0.1586
  291CLA    CLA22351   2.511   0.188  16.583  0.0919 -0.1367  0.3033
  292CLA    CLA22352   1.277   1.704  13.134 -0.2054 -0.2758 -0.3183
  293CLA    CLA22353   3.819   6.386  13.156 -0.3905 -0.0415  0.0259
  294CLA    CLA22354   0.399   6.389  13.572 -0.0491  0.2602 -0.3647
  295CLA    CLA22355   6.680   4.747  16.612  0.0954 -0.0796 -0.4354
  296CLA    CLA22356   3.006   1.813  15.006  0.4297 -0.2817  0.1185
  297CLA    CLA22357   6.091   4.921   4.746  0.6809  0.0132 -0.2544
  298CLA    CLA22358   3.812   2.645  11.801 -0.1415 -0.1288 -0.1903
  299CLA    CLA22359   3.990   2.079  15.645 -0.0071  0.0242  0.3405
  300CLA    CLA22360   4.245   1.265  13.161  0.3387  0.3378  0.2085
  301CLA    CLA22361   1.529   5.792   5.033  0.0987  0.5763  0.0993
  302CLA    CLA22362   6.761   1.191  11.431 -0.1574  0.1837 -0.0349
  303CLA    CLA22363   3.666   6.148  15.708 -0.0834  0.6498  0.2833
  304CLA    CLA22364   4.519   5.262   2.702  0.0959  0.0670 -0.3684
  305CLA    CLA22365   2.330   3.956   4.782 -0.2960  0.3979 -0.0058
  306CLA    CLA22366   4.827   5.813   0.486 -0.4406 -0.1027 -0.0979
  307CLA    CLA22367   5.842   5.742   0.279 -0.1001  0.0069 -0.2644
  308CLA    CLA22368   0.730   5.135   5.365  0.1542  0.1348 -0.1014
  309CLA    CLA22369   4.992   5.196  14.323 -0.4438 -0.3272  0.1556
  310CLA    CLA22370   1.542   2.677   3.055 -0.7107 -0.2328  0.1773
  311CLA    CLA22371   5.442   1.866   2.295  0.3047 -0.0740 -0.6686
  312CLA    CLA22372   0.877   2.403   4.177 -0.1111 -0.2943 -0.4230
  313CLA    CLA22373   5.544   1.827   3.097 -0.1654 -0.1618 -0.3906
  314CLA    CLA22374   3.777   1.506  14.154  0.0047  0.0472  0.2206
  315CLA    CLA22375   5.440   5.018  14.248  0.0301 -0.1922  0.1697
  316CLA    CLA22376   2.991   3.291   0.888 -0.0584  0.2206  0.1052
  317CLA    CLA22377   2.958   2.443   3.315 -0.0052 -0.0793  0.0875
  318CLA    CLA22378   6.545   0.200  12.640 -0.4598  0.3658 -0.0274
  319CLA    CLA22379   1.158   0.001   1.144  0.2357 -0.1466 -0.0765
  320CLA    CLA22380   5.491   5.840   4.370  0.0839  0.2148  0.0902
  321CLA    CLA22381   3.511   1.106  16.931 -0.4856 -0.0241  0.6119
  322CLA    CLA22382   4.147   0.795   0.413 -0.0539 -0.2065  0.1459
  323TIP3   OH222383   5.360   1.701  10.416  0.8192 -0.5184 -0.1360
  323TIP3    H122384   5.416   1.774  10.389  1.0388 -0.3700  0.7140
  323TIP3    H222385   5.386   1.681  10.505 -1.8830  0.9704  1.1239
  324TIP3   OH222386   2.203   1.879   5.919 -0.1220 -0.2654 -0.0533
  324TIP3    H122387   2.187   1.915   6.006 -1.2508 -3.9252  1.4596
  324TIP3    H222388   2.138   1.920   5.863 -0.7132  0.6709  1.2849
  325TIP3   OH222389   2.126   0.173  11.132  0.3347 -0.5988  0.0148
  325TIP3    H122390   2.103   0.120  11.208  0.7270 -3.4877 -1.7243
  325TIP3    H222391   2.045   0.180  11.083  0.1409  1.0303  0.5399
  326TIP3   OH222392   4.106   6.618  12.426 -0.2454  0.0326 -0.4191
  326TIP3    H122393   4.189   6.629  12.474 -0.7979  0.0582  0.5486
  326TIP3    H222394   4.129   6.637  12.335  0.7978  0.1353 -0.1512
  327TIP3   OH222395   4.263   5.137  12.579  0.6381 -0.5290 -0.2346
  327TIP3    H122396   4.229   5.048  12.576 -0.8922 -0.0037  0.3666
  327TIP3    H222397   4.294   5.154  12.490  1.0123 -1.6620 -0.3400
  328TIP3   OH222398   2.042   1.354  13.850 -0.4162 -0.1376 -0.2884
  328TIP3    H122399   2.081   1.360  13.762 -0.9436  0.6534 -0.4787
  328TIP3    H222400   2.102   1.403  13.906 -1.2132  1.2669 -0.6207
  329TIP3   OH222401   6.089   2.587   3.128  0.4142 -0.6683  0.1071
  329TIP3    H122402   6.127   2.530   3.194  0.8200 -0.7140 -0.1590
  329TIP3    H222403   6.093   2.675   3.166 -2.3764 -1.0301  1.5252
  330TIP3   OH222404   5.040   3.456   0.321 -0.5539  0.1472 -0.7526
  330TIP3    H122405   4.999   3.479   0.238 -1.9639  2.3776  0.4450
  330TIP3    H222406   4.967   3.447   0.383  0.4938 -0.5602  0.4379
  331TIP3   OH222407   2.992   3.029  12.512  0.2620  0.3634 -0.0081
  331TIP3    H122408   2.926   3.062  12.574  0.3181 -0.3669  0.4559
  331TIP3    H222409   2.951   3.036  12.426 -0.9985 -1.3932  0.3960
  332TIP3   OH222410   0.958   4.885  10.743  0.0123  0.5480 -0.5626
  332TIP3    H122411   0.869   4.914  10.724 -0.3306 -0.1085 -0.0328
  332TIP3    H222412   0.993   4.859  10.658 -0.6315 -0.0396 -0.6674
  333TIP3   OH222413   6.576   3.665   2.499 -0.0123  0.0117 -0.2033
  333TIP3    H122414   6.663   3.639   2.469  0.1255 -0.4148  0.5532
  333TIP3    H222415   6.588   3.695   2.589 -0.5208  0.7102 -0.3600
  334TIP3   OH222416   0.927   5.839  10.692  0.2688 -0.0379  0.9096
  334TIP3    H122417   0.867   5.764  10.699  2.6013 -1.9935  1.3895
  334TIP3    H222418   0.976   5.822  10.612  0.1730  1.5827  0.4717
  335TIP3   OH222419   5.536   0.911   5.026  0.1981  0.3955  0.3281
  335TIP3    H122420   5.495   0.932   4.942  1.5052  0.2630 -0.3683
  335TIP3    H222421   5.472   0.854   5.070 -1.2133  1.7610  0.1437
  336TIP3   OH222422   2.515   5.798  15.998 -0.1123  0.0078  1.1359
  336TIP3    H122423   2.596   5.767  16.038  0.6633 -0.5729 -0.7764
  336TIP3    H222424   2.542   5.833  15.913 -1.8063  0.2191  0.6481
  337TIP3   OH222425   4.380   1.386   6.043 -0.3311 -0.3865  0.0082
  337TIP3    H122426   4.434   1.324   6.092  1.4699 -0.8342 -2.3855
  337TIP3    H222427   4.399   1.471   6.083 -1.8515 -1.1171  2.4889
  338TIP3   OH222428   4.991   0.606   3.355 -0.9697 -0.4664  0.1428
  338TIP3    H122429   4.925   0.541   3.380 -0.2182 -1.6104 -0.7750
  338TIP3    H222430   5.016   0.582   3.266  0.4615  0.1471  0.3550
  339TIP3   OH222431   1.132   1.873   2.064  0.5743 -0.4306  0.8175
  339TIP3    H122432   1.104   1.782   2.072 -0.7358 -0.0337  0.9202
  339TIP3    H222433   1.103   1.899   1.977  0.7660 -0.0533  0.8659
  340TIP3   OH222434   4.041   0.213   4.760  0.2175  0.3772 -0.3714
  340TIP3    H122435   4.130   0.194   4.788  0.0790 -0.8346 -0.6980
  340TIP3    H222436   3.990   0.136   4.787 -0.6107  0.7943 -0.7093
  341TIP3   OH222437   5.015   5.996   4.022 -0.5088  0.5090  0.3329
  341TIP3    H122438   5.052   6.014   4.109 -0.6405 -0.8187  0.6894
  341TIP3    H222439   5.049   6.066   3.967 -0.4048  1.3691  1.4506
  342TIP3   OH222440   6.287   1.331   3.024  0.4541  0.0699 -0.3623
  342TIP3    H122441   6.308   1.273   2.952  1.0529 -1.4388  0.9814
  342TIP3    H222442   6.275   1.417   2.983  2.9728 -0.2656 -1.9925
  343TIP3   OH222443   1.113   2.965   3.269 -0.2156  0.1487 -0.3822
  343TIP3    H122444   1.154   2.916   3.340 -0.6816 -0.2436 -0.3802
  343TIP3    H222445   1.147   3.054   3.279  0.8584 -0.2268 -0.5637
  344TIP3   OH222446   3.764   5.313   1.336 -0.0402  0.4506  0.0569
  344TIP3    H122447   3.677   5.290   1.305 -0.3984  3.0079 -1.1218
  344TIP3    H222448   3.751   5.391   1.390  1.5386  1.3505 -0.7690
  345TIP3   OH222449   4.483   0.930   0.742  0.3555  0.2388  0.5177
  345TIP3    H122450   4.565   0.899   0.782  1.0372  0.9401 -0.3049
  345TIP3    H222451   4.489   0.902   0.650 -0.7458 -0.4831  0.6351
  346TIP3   OH222452   2.610   6.418   2.870 -0.1636 -0.0246  0.4354
  346TIP3    H122453   2.678   6.408   2.804 -0.2207  0.4194  0.3052
  346TIP3    H222454   2.531   6.384   2.828 -0.5326  1.6017 -0.3041
  347TIP3   OH222455   5.765   2.216   2.385  0.1219  0.1925  0.0374
  347TIP3    H122456   5.753   2.256   2.471  0.5173 -1.3387  0.8523
  347TIP3    H222457   5.762   2.122   2.402  0.7714 -0.1486 -1.5436
  348TIP3   OH222458   5.025   1.859  15.304 -0.2632  0.0290 -0.8578
  348TIP3    H122459   5.035   1.951  15.329 -1.7232  0.0768 -0.3149
  348TIP3    H222460   5.114   1.825  15.301  0.2425  1.1787  0.0677
  349TIP3   OH222461   1.949   6.203  13.521  0.1302 -0.0741 -0.1698
  349TIP3    H122462   1.918   6.114  13.505  1.6148 -0.7037  0.2491
  349TIP3    H222463   2.042   6.200  13.499  0.1466  1.4736 -0.4655
  350TIP3   OH222464   2.851   4.385  11.113  0.3444 -0.0760 -0.7200
  350TIP3    H122465   2.798   4.407  11.037  0.3081  0.5059 -0.5389
  350TIP3    H222466   2.859   4.290  11.111  0.7520 -0.0270 -1.7131
  351TIP3   OH222467   2.430   3.759   1.305 -0.1424  0.1414  0.5152
  351TIP3    H122468   2.504   3.812   1.276 -2.3555  3.3878  0.3427
  351TIP3    H222469   2.424   3.776   1.399 -1.2823  0.7506  0.3395
  352TIP3   OH222470   1.878   6.638  15.901  0.7933  0.3572  0.0944
  352TIP3    H122471   1.912   6.605  15.818  0.6596  0.4322  0.0091
  352TIP3    H222472   1.945   6.700  15.931  1.2414 -0.2868  0.4570
  353TIP3   OH222473   0.380   4.950  12.286  0.0831 -0.1005 -0.5515
  353TIP3    H122474   0.388   4.920  12.377  0.4237  1.4707 -0.0318
  353TIP3    H222475   0.414   4.878  12.234  2.0797 -0.1394  0.7129
  354TIP3   OH222476   1.857   3.033   0.965 -0.8098 -0.5760 -0.0577
  354TIP3    H122477   1.934   3.047   0.909 -1.5298  0.1290 -0.9060
  354TIP3    H222478   1.892   3.029   1.054  0.0215  1.8166 -0.2029
  355TIP3   OH222479   2.024   0.125   1.015 -0.0496 -0.1518  0.4722
  355TIP3    H122480   2.063   0.200   1.059  1.1545 -0.8222  0.5775
  355TIP3    H222481   1.981   0.075   1.085  1.5075 -0.9968  0.8605
  356TIP3   OH222482   1.946   6.658  13.902  0.5275 -0.0369 -0.1524
  356TIP3    H122483   2.008   6.593  13.934  0.7368  0.4535  0.4565
  356TIP3    H222484   1.934   6.636  13.809  2.4094  0.4588 -0.5642
  357TIP3   OH222485   2.443   2.135   2.128 -0.5646 -0.1101  0.8505
  357TIP3    H122486   2.485   2.148   2.214 -0.4571 -1.0167  0.9421
  357TIP3    H222487   2.401   2.219   2.110  0.0976  0.3629  1.4156
  358TIP3   OH222488   5.147   3.086  11.790 -0.4264 -0.6614 -0.5708
  358TIP3    H122489   5.128   3.122  11.704 -1.6838  1.2749  0.4230
  358TIP3    H222490   5.062   3.084  11.834  0.5350  1.4026  1.6300
  359TIP3   OH222491   6.321   2.285  11.349  0.2465 -0.4290  0.3352
  359TIP3    H122492   6.353   2.197  11.328 -2.6068 -1.5493  0.1192
  359TIP3    H222493   6.333   2.335  11.268  0.0767 -1.2458 -0.2101
  360TIP3   OH222494   4.353   6.271   0.745 -0.5772  0.0361  0.1225
  360TIP3    H122495   4.394   6.346   0.702 -2.0132 -0.2319 -1.8397
  360TIP3    H222496   4.265   6.301   0.767 -0.4260 -0.3923  1.4425
  361TIP3   OH222497   3.229   1.278   3.504 -1.3758 -0.1527  0.2656
  361TIP3    H122498   3.167   1.247   3.570  0.3538 -1.0510  1.5341
  361TIP3    H222499   3.314   1.276   3.547 -0.6197  2.7700 -0.8386
  362TIP3   OH222500   0.434   5.159   5.447  0.2086  0.4461  0.4119
  362TIP3    H122501   0.431   5.115   5.532  0.1755  0.8298  0.6119
  362TIP3    H222502   0.524   5.147   5.417 -0.0203 -0.4921  0.0692
  363TIP3   OH222503   1.300   3.541  16.882 -0.1534 -0.1012  0.4249
  363TIP3    H122504   1.233   3.512  16.820 -1.6742 -0.9883  2.3827
  363TIP3    H222505   1.257   3.608  16.934  0.3644 -0.8655  1.8997
  364TIP3   OH222506   2.283   5.149  16.187  0.1324 -0.6007  0.4273
  364TIP3    H122507   2.226   5.093  16.135  0.5288  0.1098 -0.8010
  364TIP3    H222508   2.367   5.147  16.142  0.3449  0.4147  0.7542
  365TIP3   OH222509   2.389   3.280  14.520  0.3476 -0.1732 -0.1300
  365TIP3    H122510   2.447   3.344  14.478  0.2863  1.5310  2.1799
  365TIP3    H222511   2.303   3.298  14.483  0.4097  0.8221  0.1845
  366TIP3   OH222512   0.871   6.509  11.215  0.1209  0.6358 -0.2506
  366TIP3    H122513   0.823   6.590  11.228  0.6356  1.0451 -0.8754
  366TIP3    H222514   0.909   6.517  11.128  0.9040  0.1064  0.0330
  367TIP3   OH222515   5.553   2.665  16.280  0.0288 -0.2080  0.3508
  367TIP3    H122516   5.618   2.595  16.281  1.0818  0.7290 -0.0953
  367TIP3    H222517   5.552   2.699  16.369  1.1743  0.6521  0.0639
  368TIP3   OH222518   3.245   0.887  13.387 -0.0073 -0.4319 -0.2633
  368TIP3    H122519   3.333   0.879  13.350 -0.1330  0.2258 -0.7265
  368TIP3    H222520   3.208   0.964  13.344 -0.3375  0.0680  0.8942
  369TIP3   OH222521   4.275   1.547  10.726  0.4594 -0.0404 -0.5612
  369TIP3    H122522   4.311   1.627  10.690 -0.4575 -0.0047 -1.4571
  369TIP3    H222523   4.188   1.571  10.757  0.9058 -0.2715  0.9202
  370TIP3   OH222524   2.499   4.220  14.618  0.1266  0.1137 -0.6699
  370TIP3    H122525   2.575   4.276  14.632 -0.8968  1.6851 -1.2205
  370TIP3    H222526   2.462   4.206  14.705  2.6633 -3.1870  0.0801
  371TIP3   OH222527   3.517   5.822  15.986 -0.2381 -0.2112  0.3186
  371TIP3    H122528   3.588   5.885  15.975 -0.4712 -0.4329 -3.5174
  371TIP3    H222529   3.559   5.736  15.979 -0.6316 -0.3818  0.0262
  372TIP3   OH222530   6.755   4.809   0.797  0.3274  0.0038 -0.5257
  372TIP3    H122531   6.807   4.801   0.877 -2.5861  0.7734  1.6565
  372TIP3    H222532   6.731   4.718   0.776  0.0631 -0.1427  0.3203
  373TIP3   OH222533   5.512   6.570  15.597 -0.4428  0.8701 -0.3251
  373TIP3    H122534   5.461   6.539  15.522  1.2168 -0.5979 -0.9186
  373TIP3    H222535   5.592   6.519  15.594  0.5220  2.1790  1.3302
  374TIP3   OH222536   2.783   4.152  14.417  0.2468  0.2661  0.4834
  374TIP3    H122537   2.726   4.221  14.451 -0.1639 -0.3317  1.0428
  374TIP3    H222538   2.782   4.085  14.486 -0.6701 -1.0139 -0.7276
  375TIP3   OH222539   3.102   2.610  10.921  0.0358 -0.0460 -0.5395
  375TIP3    H122540   3.172   2.660  10.878  0.6072 -0.1189  0.2861
  375TIP3    H222541   3.096   2.529  10.869 -0.6535  0.6996 -1.6700
  376TIP3   OH222542   5.916   2.263  12.775 -0.0600  0.6325 -0.1036
  376TIP3    H122543   5.986   2.216  12.821 -1.0403 -0.3204  0.4551
  376TIP3    H222544   5.845   2.267  12.839 -0.7019  1.1322 -0.8393
  377TIP3   OH222545   2.581   4.406  16.863 -0.8797 -0.1784  0.5047
  377TIP3    H122546   2.637   4.480  16.886 -0.9746 -0.6718  2.5519
  377TIP3    H222547   2.492   4.442  16.866 -1.0948 -0.6889  3.4229
  378TIP3   OH222548   6.744   1.054  14.733  0.0079  0.2719 -0.1182
  378TIP3    H122549   6.772   1.039  14.824  0.9672 -0.4904 -0.5203
  378TIP3    H222550   6.815   1.106  14.695 -0.1699  0.1966 -0.5552
  379TIP3   OH222551   3.897   3.459   1.550 -0.2502  0.8786 -0.9181
  379TIP3    H122552   3.924   3.479   1.460 -1.8652 -2.1393 -2.2188
  379TIP3    H222553   3.806   3.487   1.555 -0.5334 -0.0377 -0.6621
  380TIP3   OH222554   5.036   2.502   0.081 -0.0227 -0.0059  0.4402
  380TIP3    H122555   5.088   2.442   0.027 -2.0277 -0.6925 -0.8568
  380TIP3    H222556   5.024   2.579   0.025 -2.0255 -0.6767 -0.1661
  381TIP3   OH222557   0.362   6.143   0.199  0.3537 -0.3081 -0.2792
  381TIP3    H122558   0.448   6.130   0.159  0.1395 -0.9403 -0.5466
  381TIP3    H222559   0.303   6.087   0.149 -0.1105 -0.3103  0.2545
  382TIP3   OH222560   5.114   6.036  15.825 -0.4339  0.1718 -0.1020
  382TIP3    H122561   5.032   6.084  15.835  0.7448  1.9713  1.8813
  382TIP3    H222562   5.162   6.084  15.758 -0.5102 -0.1664 -0.4031
  383TIP3   OH222563   1.013   5.616  15.406 -0.2249 -0.0005 -0.0339
  383TIP3    H122564   1.106   5.615  15.430 -0.5074  0.5243  1.1752
  383TIP3    H222565   0.989   5.708  15.407 -0.8531 -0.1606  0.0353
  384TIP3   OH222566   5.157   0.718   3.620  0.6589 -0.1616  0.3768
  384TIP3    H122567   5.142   0.761   3.536 -1.5037  0.9643  1.2487
  384TIP3    H222568   5.134   0.626   3.605  2.0861 -0.3732 -0.6825
  385TIP3   OH222569   0.407   6.263   2.518 -0.0205 -0.6406  0.7635
  385TIP3    H122570   0.358   6.345   2.524  0.1146 -0.4714 -0.2582
  385TIP3    H222571   0.407   6.229   2.607  1.0798  1.1315  1.4969
  386TIP3   OH222572   0.602   0.860  16.623 -0.0176  0.3202  0.1742
  386TIP3    H122573   0.625   0.867  16.715  2.2419 -1.7440 -0.1111
  386TIP3    H222574   0.623   0.945  16.586  1.4859  0.3893  1.1254
  387TIP3   OH222575   4.375   5.536  16.248  0.2421  1.1540  0.5552
  387TIP3    H122576   4.348   5.560  16.337 -0.6751 -0.5773  0.7896
  387TIP3    H222577   4.464   5.501  16.258  0.5069  1.8395  0.6341
  388TIP3   OH222578   3.871   6.143  12.948  0.2318  0.8092 -0.2067
  388TIP3    H122579   3.854   6.208  13.016 -1.6169 -0.4970  0.6803
  388TIP3    H222580   3.964   6.123  12.955  0.7462  2.9909 -0.2224
  389TIP3   OH222581   2.147   5.064  14.088 -0.5989  0.4525 -0.2764
  389TIP3    H122582   2.061   5.025  14.070  0.5017 -2.6318  0.4321
  389TIP3    H222583   2.168   5.034  14.177  1.7320 -0.0427 -0.9317
  390TIP3   OH222584   0.620   1.994  15.302 -0.7624  0.2947 -0.1107
  390TIP3    H122585   0.661   1.908  15.304 -1.3183  0.0303  0.2217
  390TIP3    H222586   0.672   2.044  15.239 -0.5658 -0.3536 -0.4748
  391TIP3   OH222587   2.416   1.727  17.007 -0.4550  0.2241 -0.3580
  391TIP3    H122588   2.337   1.709  16.955 -0.4385 -0.1393 -0.2607
  391TIP3    H222589   2.382   1.760  17.091 -0.5504 -1.0785  0.1327
  392TIP3   OH222590   0.592   1.130   2.886 -0.0214 -0.1921  0.4648
  392TIP3    H122591   0.671   1.087   2.918  1.0417  2.6822  2.1503
  392TIP3    H222592   0.545   1.155   2.966 -1.8486 -0.4517 -0.4788
  393TIP3   OH222593   2.245   3.692  11.328  0.7357 -0.0545 -0.4982
  393TIP3    H122594   2.199   3.732  11.402 -1.6038 -0.5523 -1.5613
  393TIP3    H222595   2.255   3.763  11.264  1.5611  0.0781 -0.2216
  394TIP3   OH222596   1.870   6.048   2.557  0.4334 -0.1754 -0.0397
  394TIP3    H122597   1.851   6.029   2.649  1.4762 -0.8908  0.0417
  394TIP3    H222598   1.822   6.129   2.539  0.5738  0.2190  1.2566
  395TIP3   OH222599   1.144   6.323  13.171 -0.0487  0.7413  0.7866
  395TIP3    H122600   1.191   6.394  13.215  0.1031  2.8576 -2.4229
  395TIP3    H222601   1.069   6.367  13.129 -0.3207 -1.0848 -0.7711
  396TIP3   OH222602   4.375   1.266  13.556 -0.0270 -0.1817 -0.2622
  396TIP3    H122603   4.376   1.199  13.488 -0.3457 -0.1180 -0.3309
  396TIP3    H222604   4.458   1.255  13.602  0.6221  0.4140 -1.2794
  397TIP3   OH222605   5.560   5.840  10.663 -0.3386  0.2079  0.4908
  397TIP3    H122606   5.574   5.769  10.600 -2.6198 -1.8217  2.1061
  397TIP3    H222607   5.517   5.909  10.611  0.1215 -0.3562 -0.6868
  398TIP3   OH222608   4.099   1.449  13.798 -0.1122  1.0484 -0.2157
  398TIP3    H122609   4.071   1.485  13.882 -0.8211  0.8301 -0.3572
  398TIP3    H222610   4.189   1.419  13.814 -1.0138 -1.1313  1.1175
  399TIP3   OH222611   2.926   2.999  16.485  0.2105 -0.3447  0.0162
  399TIP3    H122612   2.988   3.040  16.425  0.4828  0.7727  1.0286
  399TIP3    H222613   2.945   2.905  16.479  2.0635 -0.0296  0.3729
  400TIP3   OH222614   2.196   4.834  11.987 -0.2300 -0.2633 -0.1575
  400TIP3    H122615   2.203   4.883  11.905 -1.0416  0.0149 -0.0708
  400TIP3    H222616   2.255   4.760  11.976  1.0728  0.7550 -0.2721
  401TIP3   OH222617   6.200   6.061   2.912  0.0139 -0.1189 -0.3828
  401TIP3    H122618   6.124   6.011   2.944 -0.0700  0.6821  0.7052
  401TIP3    H222619   6.163   6.146   2.887  0.3220 -0.2409 -1.2784
  402TIP3   OH222620   1.042   6.429  13.478  0.6215 -0.1782  0.6355
  402TIP3    H122621   1.132   6.397  13.481  0.5161 -0.5253  0.1895
  402TIP3    H222622   0.990   6.351  13.459  0.3950  0.3221 -0.8456
  403TIP3   OH222623   1.015   5.957   5.685 -0.2508  0.0375 -0.2069
  403TIP3    H122624   0.967   5.901   5.746 -1.3533  1.6470  0.4675
  403TIP3    H222625   0.991   6.046   5.710  1.6140  0.8450 -1.1159
  404TIP3   OH222626   1.261   6.611   3.514 -0.0684 -0.0639 -0.6578
  404TIP3    H122627   1.202   6.634   3.442 -0.0045 -0.5885 -0.8762
  404TIP3    H222628   1.215   6.542   3.562  0.1057 -0.0552 -0.4792
  405TIP3   OH222629   5.599   4.955  15.827  0.3241  0.0701 -0.2426
  405TIP3    H122630   5.613   5.010  15.904 -1.5650  0.3360 -0.0292
  405TIP3    H222631   5.520   4.904  15.848  1.0870 -1.5354 -1.1014
  406TIP3   OH222632   0.720   6.426   3.499 -0.2517  0.4182  0.4887
  406TIP3    H122633   0.646   6.455   3.553  0.1578 -0.2601  1.4572
  406TIP3    H222634   0.788   6.491   3.514 -0.4578  0.7327  0.0536
  407TIP3   OH222635   1.556   0.413  14.834 -0.0945  0.1494 -0.4315
  407TIP3    H122636   1.532   0.446  14.747 -1.6136 -0.3667 -0.2528
  407TIP3    H222637   1.644   0.446  14.849  0.3754 -0.0930 -2.3417
  408TIP3   OH222638   6.537   0.284  13.346  0.5434  0.0810  0.2679
  408TIP3    H122639   6.460   0.242  13.307  0.7184 -0.5885  0.6408
  408TIP3    H222640   6.611   0.246  13.299  0.6293  1.3146 -0.6544
  409TIP3   OH222641   5.789   2.226  15.242 -0.1366 -0.3650 -0.0514
  409TIP3    H122642   5.786   2.134  15.268 -0.2917 -0.2518  0.3366
  409TIP3    H222643   5.875   2.237  15.202 -0.4979 -0.9173 -1.0016
  410TIP3   OH222644   5.736   2.458  10.550 -0.1828 -0.6105 -0.2620
  410TIP3    H122645   5.679   2.419  10.485 -1.1235 -1.6044  1.0998
  410TIP3    H222646   5.777   2.384  10.594  0.5494  0.0354  0.1716
  411TIP3   OH222647   4.364   2.989  12.220  0.5422  0.8049  0.4632
  411TIP3    H122648   4.335   3.030  12.139 -0.8978 -0.3640  0.3536
  411TIP3    H222649   4.298   2.923  12.239  1.7403 -0.1071  1.6876
  412TIP3   OH222650   6.560   1.571  15.591  0.3687  0.3173  0.1395
  412TIP3    H122651   6.610   1.491  15.583 -1.8890 -1.2749  0.8908
  412TIP3    H222652   6.619   1.632  15.636  2.0559 -0.9731 -0.2282
  413TIP3   OH222653   1.667   5.836   4.738  0.2277  0.1734 -0.4951
  413TIP3    H122654   1.611   5.809   4.811 -0.5871  1.7924 -0.4722
  413TIP3    H222655   1.634   5.787   4.663 -0.7029  0.4990 -0.3077
  414TIP3   OH222656   3.444   2.472  16.650  0.1183  0.0725  0.1437
  414TIP3    H122657   3.517   2.422  16.685  0.2519  0.3033  0.2007
  414TIP3    H222658   3.424   2.537  16.718 -1.3896 -1.1917  0.9663
  415TIP3   OH222659   4.090   0.018  15.317  0.7875  0.1015 -0.7508
  415TIP3    H122660   4.121  -0.072  15.330 -0.9225 -0.3829  0.3422
  415TIP3    H222661   4.061   0.020  15.226 -3.5164 -2.0153  0.3227
  416TIP3   OH222662   2.380   3.830   5.437 -0.4916 -0.0918 -0.6410
  416TIP3    H122663   2.286   3.841   5.421 -0.8350  0.3460  1.4275
  416TIP3    H222664   2.397   3.737   5.419 -0.8885  0.2020 -2.8276
  417TIP3   OH222665   0.899   4.507   3.570 -0.2163  0.4091  0.4710
  417TIP3    H122666   0.824   4.566   3.578 -0.2108  0.7445 -1.5201
  417TIP3    H222667   0.975   4.566   3.567  0.0793  0.1120  1.6786
  418TIP3   OH222668   0.865   1.397  10.855  0.1993 -0.3426 -0.5056
  418TIP3    H122669   0.805   1.470  10.873 -0.2503 -1.0188  0.8916
  418TIP3    H222670   0.937   1.437  10.806 -0.7866  0.7242 -1.1551
  419TIP3   OH222671   3.392   1.569   4.143  0.7941  0.1059 -0.1892
  419TIP3    H122672   3.408   1.583   4.050  1.6601  0.2370 -0.0271
  419TIP3    H222673   3.431   1.484   4.161  1.6763  0.5989  0.2957
  420TIP3   OH222674   0.613   5.601   3.064 -0.0618  0.6012  0.7268
  420TIP3    H122675   0.585   5.657   3.137  0.3449  2.0805 -0.2128
  420TIP3    H222676   0.575   5.641   2.986  0.6792 -0.1429 -0.0385
  421TIP3   OH222677   5.155   5.134  16.530 -0.3483 -0.0268  0.0849
  421TIP3    H122678   5.202   5.214  16.552  0.9662 -0.6986 -0.1353
  421TIP3    H222679   5.093   5.121  16.601 -0.3694  1.0272  0.2642
  422TIP3   OH222680   5.893   1.135  16.466  0.2426  0.3744  0.2041
  422TIP3    H122681   5.883   1.062  16.404  3.3456 -1.1310  1.2716
  422TIP3    H222682   5.932   1.205  16.414  1.0212 -0.1850  0.0208
  423TIP3   OH222683   2.725   5.081  13.635 -0.9545 -0.3059 -0.5722
  423TIP3    H122684   2.692   5.073  13.545  2.2809  1.1785 -2.0642
  423TIP3    H222685   2.736   4.991  13.664 -4.3239 -0.8433 -0.6348
  424TIP3   OH222686   0.539   3.640  13.255 -0.0034  0.3177  0.3926
  424TIP3    H122687   0.502   3.561  13.295 -0.9297 -0.2711 -1.5080
  424TIP3    H222688   0.623   3.652  13.299 -0.7147 -0.6012  2.0812
  425TIP3   OH222689   5.175   2.636  15.995 -0.2988  0.6915  0.1917
  425TIP3    H122690   5.110   2.660  16.061  0.5818  1.6337  0.7478
  425TIP3    H222691   5.257   2.674  16.027  0.7167 -1.1223 -0.0829
  426TIP3   OH222692   5.194   0.435   4.025 -0.2724  0.9607 -0.0587
  426TIP3    H122693   5.205   0.502   3.959 -1.2291  1.4364  0.2419
  426TIP3    H222694   5.195   0.482   4.109 -0.2271  0.5169  0.1967
  427TIP3   OH222695   0.169   1.762  12.388  0.1337 -0.9837  0.2453
  427TIP3    H122696   0.253   1.775  12.345 -0.1899  1.0796  0.1152
  427TIP3    H222697   0.104   1.789  12.323 -0.4026  1.4222  1.6557
  428TIP3   OH222698   0.925   2.528   2.995 -0.2777 -0.4163  0.1288
  428TIP3    H122699   0.844   2.571   3.023  0.5777  1.7429 -0.5507
  428TIP3    H222700   0.987   2.599   2.983  1.5097 -1.9566 -0.1702
  429TIP3   OH222701   2.519   2.739  14.886  0.2795 -0.4380  0.2218
  429TIP3    H122702   2.474   2.712  14.966 -2.1472 -0.7075 -1.1365
  429TIP3    H222703   2.520   2.661  14.832  0.8029  0.0514 -0.4892
  430TIP3   OH222704   6.559   5.272   5.940 -0.5877 -0.3796  0.0273
  430TIP3    H122705   6.472   5.306   5.918 -0.9523 -1.2518  0.0888
  430TIP3    H222706   6.574   5.302   6.030 -2.1721 -2.7353  1.2004
  431TIP3   OH222707   3.970   2.507  12.545  0.1907  0.6954 -0.1482
  431TIP3    H122708   4.030   2.432  12.538  0.0190  0.6726 -1.7971
  431TIP3    H222709   3.903   2.490  12.478 -1.5526  0.8432  1.4882
  432TIP3   OH222710   2.210   3.080   4.508  0.0994  0.1992 -0.6136
  432TIP3    H122711   2.172   3.149   4.563  1.7084 -0.4589  1.4965
  432TIP3    H222712   2.269   3.127   4.449 -1.2599  0.8799 -1.4802
  433TIP3   OH222713   4.981   3.771  11.459 -0.2305  0.0073  0.3735
  433TIP3    H122714   4.939   3.697  11.414  1.6550 -0.2194 -1.1399
  433TIP3    H222715   4.918   3.843  11.450 -1.2630 -0.8889  0.1768
  434TIP3   OH222716   5.636   1.975  12.501  0.6831 -0.3040 -0.8678
  434TIP3    H122717   5.683   2.025  12.435 -0.3436  1.6576 -0.2162
  434TIP3    H222718   5.678   2.000  12.584 -0.1369 -0.1733 -0.4866
  435TIP3   OH222719   3.203   3.604   1.893 -0.0490  0.0497 -0.6416
  435TIP3    H122720   3.139   3.612   1.821 -0.2402  0.2532 -0.4508
  435TIP3    H222721   3.201   3.689   1.936 -0.8407 -0.4568  0.3602
  436TIP3   OH222722   6.445   2.029  13.936 -0.0337 -0.1126 -0.0686
  436TIP3    H122723   6.453   2.098  14.002 -1.6311  1.0578 -1.0366
  436TIP3    H222724   6.533   1.990  13.932  0.5490  0.9245  1.4852
  437TIP3   OH222725   4.771   5.147  13.127  0.0338  0.4466 -0.3548
  437TIP3    H122726   4.778   5.219  13.064 -1.5400  0.2210 -0.8517
  437TIP3    H222727   4.677   5.144  13.148  0.6256  1.1418  2.7919
  438TIP3   OH222728   6.743   5.511   4.399 -0.0513 -0.3910 -0.2369
  438TIP3    H122729   6.771   5.456   4.472  0.4655  0.3004  0.1018
  438TIP3    H222730   6.658   5.476   4.373  1.3357 -2.9290 -1.6842
  439TIP3   OH222731   0.620   1.308  12.537  0.0742 -0.4328  0.2908
  439TIP3    H122732   0.546   1.260  12.575  0.4442 -1.7398 -0.5781
  439TIP3    H222733   0.677   1.327  12.612 -0.2818 -0.9840  0.7124
  440TIP3   OH222734   4.762   2.079  14.016 -0.3072  0.5177  0.0505
  440TIP3    H122735   4.701   2.013  13.983  0.4848  0.2527 -0.9372
  440TIP3    H222736   4.757   2.071  14.111 -0.7784 -0.4512 -0.0410
  441TIP3   OH222737   1.939   2.373   4.026 -0.0745  0.0852 -0.0868
  441TIP3    H122738   1.999   2.328   3.966  0.2245  0.5290 -0.1265
  441TIP3    H222739   1.900   2.302   4.077 -0.6230 -0.3322 -1.0558
  442TIP3   OH222740   3.975   2.788  14.093 -0.3467  0.2731  0.0032
  442TIP3    H122741   4.063   2.797  14.057 -0.3518  1.2924  0.2291
  442TIP3    H222742   3.917   2.817  14.023 -0.5454 -0.7323 -0.2753
  443TIP3   OH222743   4.589   5.653  12.040  0.1719 -0.4270  0.1185
  443TIP3    H122744   4.623   5.701  12.116 -1.1303 -0.0874  0.5070
  443TIP3    H222745   4.567   5.722  11.977 -1.0027 -0.5481  0.3847
  444TIP3   OH222746   1.119   1.340   1.904 -0.1137 -0.2176 -0.1278
  444TIP3    H122747   1.031   1.349   1.869  0.2506  1.4652 -0.7137
  444TIP3    H222748   1.110   1.277   1.975 -1.2667 -2.0928 -1.8341
  445TIP3   OH222749   4.182   2.257  16.143  0.1875  0.0472 -0.7653
  445TIP3    H122750   4.202   2.238  16.051 -0.6205 -1.0415 -0.7429
  445TIP3    H222751   4.086   2.264  16.145  0.2681  1.3082 -0.2139
  446TIP3   OH222752   3.673   6.615   2.164  0.4421  0.0616  0.2039
  446TIP3    H122753   3.710   6.692   2.208 -0.1852  0.8370 -0.5957
  446TIP3    H222754   3.742   6.549   2.169  0.7632  0.4649  1.4476
  447TIP3   OH222755   6.101   2.364   1.926 -0.5038 -0.2805  0.3905
  447TIP3    H122756   6.190   2.351   1.957  0.4911  1.6158 -1.4070
  447TIP3    H222757   6.093   2.308   1.850 -1.2621 -1.2582  1.1601
  448TIP3   OH222758   3.898   2.138   2.082  0.1376 -0.0011 -0.4414
  448TIP3    H122759   3.808   2.134   2.114 -0.0710 -0.6914 -1.0885
  448TIP3    H222760   3.952   2.146   2.161 -0.4535 -0.2024 -0.0127
  449TIP3   OH222761   2.424   2.195  14.173  0.0242  0.3457 -0.4009
  449TIP3    H122762   2.399   2.279  14.211 -1.9569 -0.8526  1.1823
  449TIP3    H222763   2.519   2.191  14.183  0.0836  2.1301  0.0388
  450TIP3   OH222764   4.456   0.583  16.581 -0.3575  0.1931  0.5661
  450TIP3    H122765   4.395   0.513  16.559 -0.2843 -0.0820  1.2089
  450TIP3    H222766   4.509   0.547  16.653  0.6692  0.3644 -0.0901
  451TIP3   OH222767   2.247   5.301   5.639  0.5951 -0.4736 -0.1329
  451TIP3    H122768   2.225   5.212   5.612 -0.3112  0.7095 -3.9040
  451TIP3    H222769   2.333   5.318   5.601  0.3903  0.5129 -0.1964
  452TIP3   OH222770   0.263   1.488   1.547 -0.2161  0.1031  0.2525
  452TIP3    H122771   0.265   1.541   1.626  1.3463  0.3767  0.0605
  452TIP3    H222772   0.205   1.414   1.568 -0.1027  0.3634  1.5164
  453TIP3   OH222773   1.838   6.715   5.707  0.2124 -0.3853 -0.2544
  453TIP3    H122774   1.862   6.669   5.788 -2.1455 -1.2498  0.0340
  453TIP3    H222775   1.814   6.645   5.647 -2.1338  0.3693 -0.2654
  454TIP3   OH222776   3.834   6.485   0.841  0.2825  0.0940  0.1520
  454TIP3    H122777   3.836   6.396   0.876  1.0118  0.3328  0.7515
  454TIP3    H222778   3.754   6.489   0.789 -0.2014 -0.6443  0.8207
  455TIP3   OH222779   4.242   4.600  16.530  0.3656  0.0816 -0.3747
  455TIP3    H122780   4.327   4.580  16.491 -0.7528 -2.1640 -1.8768
  455TIP3    H222781   4.249   4.570  16.620  1.7473  1.7445  0.1175
  456TIP3   OH222782   1.620   3.567  11.633 -0.2807 -0.1492 -0.3017
  456TIP3    H122783   1.577   3.646  11.599 -0.4676  0.1344  0.5786
  456TIP3    H222784   1.553   3.524  11.686  0.2828 -0.1016  0.4659
  457TIP3   OH222785   3.645   3.286   5.440  0.9141  0.1753 -0.3128
  457TIP3    H122786   3.716   3.254   5.384  0.5687 -1.0895 -0.0584
  457TIP3    H222787   3.574   3.224   5.425  0.4145  0.5054  0.6518
  458TIP3   OH222788   1.560   1.354  16.809  0.4760 -0.1392  0.0213
  458TIP3    H122789   1.507   1.276  16.796 -0.8809  0.8558 -0.5532
  458TIP3    H222790   1.629   1.347  16.743  0.9582 -1.3168  0.6132
  459TIP3   OH222791   0.354   0.240   0.249 -0.2099  0.1362  0.0209
  459TIP3    H122792   0.259   0.241   0.249 -0.2236  0.6922 -1.0518
  459TIP3    H222793   0.379   0.276   0.335 -0.9195 -2.3033  1.3399
  460TIP3   OH222794   5.073   0.248   5.558  0.4891  0.1199  0.5137
  460TIP3    H122795   5.039   0.159   5.565  0.1950  0.2405  0.6225
  460TIP3    H222796   5.010   0.302   5.606  0.3261  0.4718 -0.0888
  461TIP3   OH222797   6.358   4.539  13.471  0.2909 -0.3284 -0.4215
  461TIP3    H122798   6.451   4.549  13.495 -0.1811  0.2737  1.3021
  461TIP3    H222799   6.312   4.535  13.555 -1.4828  1.6752 -1.2053
  462TIP3   OH222800   0.281   1.134  16.065 -0.2316  0.6556 -0.0604
  462TIP3    H122801   0.334   1.119  16.143 -1.3012 -0.0859  0.5428
  462TIP3    H222802   0.296   1.226  16.043 -2.0937  1.7557  2.7322
  463TIP3   OH222803   0.389   0.826  15.794 -0.1267  0.1846  0.0659
  463TIP3    H122804   0.337   0.837  15.715 -0.9525 -0.1246  0.5623
  463TIP3    H222805   0.392   0.732  15.809  1.7552  0.0680 -0.7184
  464TIP3   OH222806   5.899   0.707  12.650  0.3775  0.1196  0.2204
  464TIP3    H122807   5.955   0.722  12.574  1.5363 -1.4177  0.7108
  464TIP3    H222808   5.910   0.614  12.670 -0.5220  0.3086  1.7849
  465TIP3   OH222809   4.787   1.406  12.630 -0.6060  0.4948 -0.1752
  465TIP3    H122810   4.785   1.331  12.689  0.8679 -0.8738 -1.7497
  465TIP3    H222811   4.695   1.424  12.610 -0.9668 -1.4642 -0.4224
  466TIP3   OH222812   5.795   3.655   3.838  0.1163  0.2699  0.4989
  466TIP3    H122813   5.818   3.626   3.926 -0.7617  1.4267  1.1494
  466TIP3    H222814   5.775   3.748   3.848  0.7404  0.6089 -1.0761
  467TIP3   OH222815   1.917   6.045  15.424 -0.3995 -0.5656  0.0915
  467TIP3    H122816   1.944   6.135  15.440 -0.1615 -0.8310  1.2077
  467TIP3    H222817   1.975   5.992  15.478 -3.6896 -1.1210  3.5102
  468TIP3   OH222818   3.877   5.526  14.551 -0.2531 -0.6383  0.2038
  468TIP3    H122819   3.947   5.528  14.486 -0.0704  1.4547  0.3986
  468TIP3    H222820   3.923   5.523  14.635 -0.3465  1.1977  0.3470
  469TIP3   OH222821   0.308   6.314  15.180  0.2401  0.5418  0.1927
  469TIP3    H122822   0.271   6.398  15.156 -0.8031  0.4559  1.3925
  469TIP3    H222823   0.266   6.251  15.121 -0.3252  0.6537  0.4664
  470TIP3   OH222824   6.673   0.808  11.785  0.3440  0.4547 -0.6606
  470TIP3    H122825   6.625   0.824  11.704  0.0694 -0.1194 -0.6168
  470TIP3    H222826   6.624   0.738  11.828  1.6091 -0.6372 -0.9488
  471TIP3   OH222827   1.236   6.101  11.133  0.8106 -1.0093 -0.7419
  471TIP3    H122828   1.319   6.087  11.088 -0.1396 -1.5285 -2.4173
  471TIP3    H222829   1.191   6.167  11.080  0.0588 -0.9032  0.0058
  472TIP3   OH222830   5.138   4.636   5.613 -0.1060 -0.5520 -0.1813
  472TIP3    H122831   5.098   4.686   5.685  1.3441  0.5623 -0.1086
  472TIP3    H222832   5.063   4.599   5.566 -1.1465 -0.0408  1.0069
  473TIP3   OH222833   5.519   1.805  15.317  0.1296  0.1068 -0.3917
  473TIP3    H122834   5.486   1.758  15.393 -0.4306  0.1323 -0.6163
  473TIP3    H222835   5.565   1.738  15.266 -1.3307 -0.4007 -1.1034
  474TIP3   OH222836   1.776   3.196   0.463  0.1716 -0.2608  0.1154
  474TIP3    H122837   1.745   3.112   0.430  1.9008 -1.1987  0.7807
  474TIP3    H222838   1.798   3.246   0.384 -0.5219 -0.5492 -0.2719
  475TIP3   OH222839   6.225   3.818   5.672 -0.0630  0.0016  0.7918
  475TIP3    H122840   6.233   3.888   5.737 -1.1144  0.6329  0.2620
  475TIP3    H222841   6.131   3.800   5.668 -0.1238  0.5987 -1.1938
  476TIP3   OH222842   6.577   0.313   1.183 -0.3808  0.4270  0.5444
  476TIP3    H122843   6.579   0.238   1.241 -2.9650  0.5007  0.8377
  476TIP3    H222844   6.588   0.276   1.095  1.8925  0.1470  0.8947
  477TIP3   OH222845   0.820   1.310  17.022 -0.1524  0.1429  0.4122
  477TIP3    H122846   0.904   1.279  16.988 -0.4198  0.2162 -0.3205
  477TIP3    H222847   0.832   1.312  17.117  0.9319  0.8819  0.2766
  478TIP3   OH222848   1.708   1.826  10.713  0.1661 -0.1254 -0.1002
  478TIP3    H122849   1.780   1.865  10.762 -0.0036 -0.3904  0.3693
  478TIP3    H222850   1.643   1.896  10.706  0.5295  0.1657 -0.6711
  479TIP3   OH222851   3.046   5.068   2.541 -0.1532 -0.0588 -0.2509
  479TIP3    H122852   3.099   4.995   2.509  0.3655  0.3641 -0.3490
  479TIP3    H222853   3.098   5.107   2.611 -1.4344 -1.2322  1.4655
  480TIP3   OH222854   4.085   0.228   4.500 -0.3541  0.2440  0.9080
  480TIP3    H122855   4.153   0.294   4.510 -2.5510  3.0086 -0.9227
  480TIP3    H222856   4.045   0.221   4.586  0.3840  0.7658  1.2986
  481TIP3   OH222857   1.894   1.235   6.513  0.5119 -0.2791 -0.2830
  481TIP3    H122858   1.980   1.252   6.474  0.3975 -1.1793 -0.9585
  481TIP3    H222859   1.861   1.158   6.466 -1.4085  1.0218 -1.1876
  482TIP3   OH222860   2.725   2.281  14.794  0.1355  0.1520 -0.3902
  482TIP3    H122861   2.707   2.195  14.832  1.3903 -0.0217 -0.1334
  482TIP3    H222862   2.787   2.263  14.723  0.9431  0.8971  0.1033
  483TIP3   OH222863   0.737   4.344  16.685 -0.3706 -0.2321 -0.4095
  483TIP3    H122864   0.771   4.255  16.696  0.5755  0.1233 -0.3865
  483TIP3    H222865   0.796   4.399  16.736 -0.5235  0.4944 -1.0002
  484TIP3   OH222866   4.892   4.707   1.003 -0.0696 -0.3163  0.5522
  484TIP3    H122867   4.941   4.639   0.957  1.1517  0.6751  0.3211
  484TIP3    H222868   4.949   4.733   1.075  1.4726  3.2556 -1.6761
  485TIP3   OH222869   6.381   2.692  16.120 -0.3320  0.2687  0.5697
  485TIP3    H122870   6.345   2.761  16.064 -1.4950 -0.5600  0.2481
  485TIP3    H222871   6.382   2.615  16.064  2.2699  0.3042  0.4825
  486TIP3   OH222872   4.597   6.069   2.286  0.3773 -0.2143  0.0910
  486TIP3    H122873   4.534   6.126   2.330 -0.4717 -0.9124 -0.1785
  486TIP3    H222874   4.652   6.035   2.356  2.1340  2.3485  0.0785
  487TIP3   OH222875   6.219   0.173  10.803 -0.6661  0.5187 -0.1596
  487TIP3    H122876   6.274   0.173  10.882 -0.9327  0.9072  0.0293
  487TIP3    H222877   6.280   0.194  10.732 -0.5601  0.9168  0.0445
  488TIP3   OH222878   0.908   6.040  12.686  0.3632  0.0559 -0.2868
  488TIP3    H122879   0.914   6.052  12.591  1.5809 -1.8577 -0.4939
  488TIP3    H222880   0.959   6.113  12.722 -1.9547  2.1492 -0.9279
  489TIP3   OH222881   1.673   3.328   5.834 -0.2686  0.1652 -0.5880
  489TIP3    H122882   1.688   3.265   5.904  1.0270  0.0120 -0.9841
  489TIP3    H222883   1.653   3.275   5.757  0.4780  0.2349 -0.8402
  490TIP3   OH222884   0.758   3.743   5.782  0.2362 -0.1911  0.1888
  490TIP3    H122885   0.731   3.724   5.872  2.7430  2.0489  1.5680
  490TIP3    H222886   0.682   3.721   5.729 -1.3922 -1.4800  2.8515
  491TIP3   OH222887   1.166   2.479   0.203 -0.1102  0.0413  0.4040
  491TIP3    H122888   1.099   2.472   0.271 -2.1838  0.9071 -1.4410
  491TIP3    H222889   1.155   2.566   0.167  0.6948 -0.5239 -1.2834
  492TIP3   OH222890   3.268   1.021  14.185 -0.6345  0.0806 -0.0939
  492TIP3    H122891   3.353   1.028  14.141 -0.5053  0.0533  0.1475
  492TIP3    H222892   3.252   1.110  14.219 -2.1628  0.9174 -2.7698
  493TIP3   OH222893   4.624   5.230  12.237 -0.1461  0.4314 -0.1146
  493TIP3    H122894   4.649   5.286  12.163 -1.5435 -0.2291 -1.1282
  493TIP3    H222895   4.704   5.183  12.259  0.7441  1.8987 -0.0441
  494TIP3   OH222896   2.591   2.008   1.934  0.2044 -0.3640 -0.2395
  494TIP3    H122897   2.534   2.004   1.857  0.9459  4.0027 -1.2853
  494TIP3    H222898   2.535   2.046   2.002  0.9598  1.0530 -0.3684
  495TIP3   OH222899   2.942   1.769   3.391  0.0203 -0.2652 -0.0899
  495TIP3    H122900   2.999   1.808   3.326  2.9694  1.9005  3.4173
  495TIP3    H222901   2.999   1.751   3.466 -2.7794 -4.0544  1.4913
  496TIP3   OH222902   1.032   4.610  16.453 -0.5381  0.7109  0.1394
  496TIP3    H122903   1.042   4.685  16.394  0.8127  1.0430  0.7666
  496TIP3    H222904   1.086   4.541  16.414 -2.1811 -0.1440 -0.7148
  497TIP3   OH222905   2.418   1.989   3.257 -0.2832  0.1108 -0.0675
  497TIP3    H122906   2.418   2.018   3.166 -0.0475  0.8908  0.1724
  497TIP3    H222907   2.455   1.901   3.254  0.7601  0.5530 -0.5963
  498TIP3   OH222908   3.514   5.413  14.549 -0.0772  0.1892 -0.2086
  498TIP3    H122909   3.468   5.486  14.590  0.1336 -0.5365  1.3866
  498TIP3    H222910   3.585   5.392  14.610 -1.2868 -2.5917  0.3712
  499TIP3   OH222911   0.673   2.072   2.876  0.0919  0.4179  0.9834
  499TIP3    H122912   0.702   2.081   2.967  0.9838 -0.1617  0.7748
  499TIP3    H222913   0.748   2.102   2.824 -1.0865  2.5645  0.4295
  500TIP3   OH222914   4.916   1.731   1.940  0.1384 -0.0410 -0.3547
  500TIP3    H122915   4.928   1.712   2.033 -1.1448  2.5194  0.4334
  500TIP3    H222916   4.822   1.718   1.924  0.2310  0.1506 -1.1258
  501TIP3   OH222917   6.083   5.734  16.706 -0.2758  0.1310 -0.1775
  501TIP3    H122918   6.139   5.734  16.783 -0.8718  0.3722  0.2692
  501TIP3    H222919   6.128   5.789  16.642  1.6577 -2.3323 -1.0883
  502TIP3   OH222920   4.503   3.761  13.781  0.1726  0.0142  0.1107
  502TIP3    H122921   4.569   3.750  13.849  0.4275 -1.8968 -0.3666
  502TIP3    H222922   4.519   3.847  13.744  1.7929 -0.0357  0.6482
  503TIP3   OH222923   5.025   2.145  14.983  0.0746 -0.8178  0.4775
  503TIP3    H122924   4.977   2.067  14.955  0.2727 -1.1183  0.9687
  503TIP3    H222925   4.975   2.179  15.057 -1.1923  0.7349 -1.0267
  504TIP3   OH222926   6.581   6.542   4.114  0.8329 -0.5191 -0.3517
  504TIP3    H122927   6.529   6.567   4.038 -0.8898 -1.1422  0.5607
  504TIP3    H222928   6.623   6.622   4.142  2.1035 -0.4045 -2.3541
  505TIP3   OH222929   4.191   1.481  14.303 -0.2740 -0.6775  0.5240
  505TIP3    H122930   4.284   1.486  14.325 -0.0802 -0.7025 -0.2400
  505TIP3    H222931   4.164   1.393  14.330 -0.0883 -0.6516  0.7942
  506TIP3   OH222932   0.998   2.988   2.606 -0.0309  0.1967 -0.2222
  506TIP3    H122933   1.038   2.990   2.519  2.5693  1.6800  0.8995
  506TIP3    H222934   1.048   2.923   2.654  0.5453  1.4746  0.9808
  507TIP3   OH222935   6.546   0.657   1.447  0.0242 -0.5671  0.3575
  507TIP3    H122936   6.496   0.733   1.477 -1.4677 -0.7140 -1.5624
  507TIP3    H222937   6.482   0.586   1.446  0.9507 -1.4133  0.3307
  508TIP3   OH222938   3.939   2.751   4.085  0.4217 -0.0733 -0.4977
  508TIP3    H122939   3.860   2.778   4.131  0.2817  0.6445 -1.1322
  508TIP3    H222940   3.935   2.796   4.001  1.7498  0.3828 -0.3507
  509TIP3   OH222941   6.742   4.808  13.712  0.1066 -0.6992  0.2737
  509TIP3    H122942   6.750   4.885  13.768  0.1592 -1.6580  1.6301
  509TIP3    H222943   6.668   4.760  13.749  0.3461 -1.5100 -0.2929
  510TIP3   OH222944   0.926   1.193   3.783 -0.5053 -0.1492 -0.3734
  510TIP3    H122945   0.893   1.279   3.810 -0.0597  0.0891 -0.5828
  510TIP3    H222946   1.006   1.181   3.832 -0.6413 -0.5124 -0.2390
  511TIP3   OH222947   4.989   4.892   1.567  0.2994  0.7282  0.5402
  511TIP3    H122948   5.025   4.957   1.506  0.2062  1.6091  1.3832
  511TIP3    H222949   4.910   4.860   1.524  0.9941  0.2826 -0.4259
  512TIP3   OH222950   4.184   0.401   0.366  0.5114 -0.2924 -0.1348
  512TIP3    H122951   4.160   0.308   0.364 -0.1355 -0.1227 -0.6556
  512TIP3    H222952   4.259   0.407   0.306 -0.1354 -0.3025 -0.9656
  513TIP3   OH222953   5.488   1.797  11.578 -0.4580 -0.0825  0.5749
  513TIP3    H122954   5.471   1.873  11.522  1.4178 -0.9509 -1.3094
  513TIP3    H222955   5.422   1.733  11.552  0.1602 -0.3384 -0.4105
  514TIP3   OH222956   6.645   0.539  13.743  0.4866  0.2517 -0.4492
  514TIP3    H122957   6.682   0.607  13.688  1.6058 -1.3355 -1.7708
  514TIP3    H222958   6.580   0.583  13.797 -0.2665  1.9827 -2.6591
  515TIP3   OH222959   6.339   6.468   4.197  0.1495 -0.7327  0.5960
  515TIP3    H122960   6.429   6.494   4.177  0.0217 -0.5509  0.2352
  515TIP3    H222961   6.289   6.499   4.122 -0.2299 -0.7405  0.8465
  516TIP3   OH222962   3.380   5.252   7.020 -0.0755 -0.1041  0.4484
  516TIP3    H122963   3.341   5.175   7.060 -0.5196  0.9514  2.1819
  516TIP3    H222964   3.428   5.219   6.945 -0.8884 -1.9565  0.6951
  517TIP3   OH222965   5.009   0.092  13.685  0.2499 -0.1877  0.2326
  517TIP3    H122966   4.962   0.009  13.680 -2.1298  1.1541 -2.4167
  517TIP3    H222967   5.070   0.090  13.611  1.8488 -0.4113  1.4956
  518TIP3   OH222968   3.535   2.601  13.062  0.0189 -0.2074  0.2883
  518TIP3    H122969   3.620   2.641  13.083  1.0857 -1.8736 -0.6270
  518TIP3    H222970   3.541   2.581  12.969 -1.9693  0.8927 -0.1435
  519TIP3   OH222971   3.216   1.611  14.573  0.0001 -0.0891  0.7076
  519TIP3    H122972   3.214   1.627  14.667  0.4504 -0.8866  0.8561
  519TIP3    H222973   3.308   1.594  14.553  0.1231  1.3299 -0.1011
  520TIP3   OH222974   0.474   6.254  11.283 -0.1345  0.0582 -0.4566
  520TIP3    H122975   0.506   6.300  11.361  0.4557  1.2681 -1.3703
  520TIP3    H222976   0.388   6.292  11.266  0.8239  1.7563 -1.8744
  521TIP3   OH222977   2.665   0.980   5.085 -0.1525 -0.2034  0.0334
  521TIP3    H122978   2.662   0.895   5.129  0.9998  0.1636  0.8940
  521TIP3    H222979   2.753   0.984   5.048 -0.2149  0.5848 -0.0413
  522TIP3   OH222980   4.001   6.167   1.160 -0.2533  0.1853  0.3129
  522TIP3    H122981   4.067   6.195   1.096 -0.6351 -0.6237 -0.4483
  522TIP3    H222982   3.945   6.106   1.112 -1.2082  0.4024  1.1160
  523TIP3   OH222983   2.469   5.678  16.531 -0.1398 -0.4021 -0.1199
  523TIP3    H122984   2.430   5.752  16.484 -1.1079 -1.2224 -0.6536
  523TIP3    H222985   2.444   5.601  16.479  0.7619 -1.1165  0.4762
  524TIP3   OH222986   3.243   1.754   0.815  0.1121  0.0356 -0.2962
  524TIP3    H122987   3.274   1.791   0.732 -1.7911 -0.7303 -1.4186
  524TIP3    H222988   3.317   1.764   0.874  1.6510  0.3691 -2.1553
  525TIP3   OH222989   5.148   0.619  10.302  0.2466 -0.3498 -0.0446
  525TIP3    H122990   5.096   0.690  10.340 -0.1075  0.1199 -1.3718
  525TIP3    H222991   5.088   0.573  10.243  1.3916  0.4548 -1.9312
  526TIP3   OH222992   1.492   5.027  10.793  0.6711 -0.5179 -0.6748
  526TIP3    H122993   1.566   5.084  10.811 -0.2426  0.5813 -0.2528
  526TIP3    H222994   1.423   5.086  10.762 -0.8804 -1.0968  1.3862
  527TIP3   OH222995   3.820   2.289  11.103  0.3253  0.1650 -0.6070
  527TIP3    H122996   3.815   2.196  11.123 -1.8449  0.5781  1.1769
  527TIP3    H222997   3.905   2.316  11.139  0.1177 -0.7623  0.6598
  528TIP3   OH222998   0.841   2.262  13.065 -0.2786  0.0571  0.3493
  528TIP3    H122999   0.881   2.251  13.151 -0.2329  2.8826  0.7682
  528TIP3    H223000   0.819   2.355  13.060  0.2754  0.1330 -2.9285
  529TIP3   OH223001   6.103   2.266  14.031  0.3729  0.1054  0.0625
  529TIP3    H123002   6.115   2.173  14.015  1.1609  0.3267 -0.7039
  529TIP3    H223003   6.090   2.304  13.944 -0.5684  0.6329  0.4203
  530TIP3   OH223004   5.368   1.715   3.895  0.6792  0.2564  0.3264
  530TIP3    H123005   5.369   1.793   3.950  2.6223 -0.3099  1.1753
  530TIP3    H223006   5.376   1.749   3.806  1.0747  1.0365  0.6484
  531TIP3   OH223007   3.282   5.148   1.369 -0.1340 -0.1430 -0.5132
  531TIP3    H123008   3.226   5.115   1.439 -0.6277 -1.3652 -1.4461
  531TIP3    H223009   3.229   5.217   1.328 -0.3614 -0.2818 -0.4589
  532TIP3   OH223010   6.619   1.279   0.862  0.3645  0.6522  0.0079
  532TIP3    H123011   6.691   1.279   0.799 -0.2284 -0.4585 -0.7041
  532TIP3    H223012   6.588   1.369   0.864  0.4612  0.7185 -1.2266
  533TIP3   OH223013   0.274   5.089  15.386 -0.0451  0.1366  0.7723
  533TIP3    H123014   0.222   5.144  15.327  0.9978  0.8108  0.4515
  533TIP3    H223015   0.360   5.085  15.345  0.1158 -1.1229  1.1940
  534TIP3   OH223016   4.822   5.840  11.966 -0.1613 -0.9766 -0.5279
  534TIP3    H123017   4.857   5.821  11.879 -1.0543  0.3638 -1.2156
  534TIP3    H223018   4.730   5.861  11.951  0.3846  2.5797  0.2018
  535TIP3   OH223019   2.339   1.401   3.451 -0.2860  0.6292  0.2367
  535TIP3    H123020   2.320   1.314   3.418 -1.6617  0.3545  1.6178
  535TIP3    H223021   2.421   1.426   3.408 -1.0016 -0.4041 -1.8979
  536TIP3   OH223022   5.739   1.396   4.249 -0.3165 -0.1116 -0.9409
  536TIP3    H123023   5.828   1.377   4.280 -0.9533 -2.3374 -0.2688
  536TIP3    H223024   5.737   1.361   4.160  0.4014  2.9494 -2.2745
  537TIP3   OH223025   5.031   4.271  13.169  0.2964 -0.1395  0.0058
  537TIP3    H123026   4.975   4.327  13.223  2.6625  3.7774 -1.1891
  537TIP3    H223027   5.107   4.253  13.224  0.6565 -0.0492 -0.4546
  538TIP3   OH223028   5.056   3.835  14.621 -0.0880 -0.0899  0.4381
  538TIP3    H123029   5.132   3.892  14.634  0.9110 -1.0298 -0.9090
  538TIP3    H223030   5.050   3.785  14.702  0.6878  0.0731  0.6112
  539TIP3   OH223031   5.151   1.507   3.749 -0.1506  0.2655 -0.3163
  539TIP3    H123032   5.167   1.490   3.842  0.7637 -0.4073 -0.5817
  539TIP3    H223033   5.068   1.463   3.731  0.3497 -0.7940 -0.1218
  540TIP3   OH223034   5.090   6.500  17.087  0.0907 -0.2713 -0.5468
  540TIP3    H123035   5.106   6.522  17.178  2.1929 -0.8428 -0.7279
  540TIP3    H223036   5.113   6.407  17.080 -1.4755 -0.6452 -1.3680
  541TIP3   OH223037   4.420   1.342   4.195  0.3465  0.2040  0.0604
  541TIP3    H123038   4.447   1.397   4.268 -1.3090  0.4145  0.5740
  541TIP3    H223039   4.457   1.384   4.118  1.4158  0.4609  0.6955
  542TIP3   OH223040   1.673   6.359   0.389 -0.7865 -0.0341 -0.0251
  542TIP3    H123041   1.610   6.362   0.461 -2.1772  0.0707 -1.1971
  542TIP3    H223042   1.627   6.399   0.315  1.5547  2.4609 -0.3148
  543TIP3   OH223043   0.357   1.875  15.126  0.1482 -0.2354  0.2600
  543TIP3    H123044   0.450   1.859  15.112 -0.1891 -1.0846 -1.2449
  543TIP3    H223045   0.318   1.787  15.132 -0.5928  0.1049  0.5867
  544TIP3   OH223046   2.299   4.935   5.904  0.1829 -0.2895 -0.2382
  544TIP3    H123047   2.357   4.870   5.943  0.6460  0.0360 -0.3725
  544TIP3    H223048   2.262   4.983   5.978  1.7430  0.9218 -0.1763
  545TIP3   OH223049   4.702   5.585  11.048 -0.2597  0.3235 -0.0287
  545TIP3    H123050   4.725   5.557  10.960 -0.5560 -1.2586  0.3679
  545TIP3    H223051   4.654   5.667  11.036 -0.0946  0.2455 -1.3102
  546TIP3   OH223052   3.693   5.730   0.676 -0.0131 -0.0177 -0.8051
  546TIP3    H123053   3.627   5.736   0.607 -0.0551  0.7527 -0.7112
  546TIP3    H223054   3.757   5.668   0.641 -0.2923 -0.0274 -1.3223
  547TIP3   OH223055   2.748   2.386   4.635 -0.3896 -0.2395  0.6831
  547TIP3    H123056   2.834   2.347   4.652 -0.3724 -1.4814 -1.8004
  547TIP3    H223057   2.688   2.334   4.689  0.1099 -1.1827  0.3605
  548TIP3   OH223058   4.901   1.420  14.091  0.5439 -0.2911 -0.2211
  548TIP3    H123059   4.833   1.368  14.132  0.7354  1.1359  2.0809
  548TIP3    H223060   4.898   1.395  13.998 -0.9876 -2.5030  0.3497
  549TIP3   OH223061   3.197   3.432   2.141  0.6711  0.1818  0.0118
  549TIP3    H123062   3.145   3.509   2.122  0.5375  0.4787  1.4436
  549TIP3    H223063   3.169   3.404   2.228  1.8935 -0.4858  0.2304
  550TIP3   OH223064   1.151   0.028  14.824  0.4233 -0.1805  0.3718
  550TIP3    H123065   1.125  -0.057  14.860 -0.1725  0.3383  1.1694
  550TIP3    H223066   1.217   0.005  14.758  0.4567 -1.2469  0.7428
  551TIP3   OH223067   5.176   1.332  16.767 -0.5415 -0.0851  0.8175
  551TIP3    H123068   5.140   1.419  16.751  0.0993  0.1886  0.8254
  551TIP3    H223069   5.244   1.346  16.833  1.8425 -0.0468 -1.5081
  552TIP3   OH223070   4.519   3.650   2.828 -0.0279  0.0446 -0.4692
  552TIP3    H123071   4.502   3.572   2.880 -1.1472  1.8997  2.1681
  552TIP3    H223072   4.614   3.653   2.819  0.0181 -1.8430 -1.0916
  553TIP3   OH223073   0.352   4.984  14.530  0.2468 -0.9467  0.2247
  553TIP3    H123074   0.294   5.006  14.604 -0.1028  0.1538 -0.3580
  553TIP3    H223075   0.422   5.049  14.536 -0.7568  0.3905 -1.4793
  554TIP3   OH223076   2.421   4.167  16.911  0.0771 -0.6925 -0.1503
  554TIP3    H123077   2.352   4.214  16.957 -1.2669 -0.9313 -1.7921
  554TIP3    H223078   2.485   4.234  16.887 -1.5047  0.2914 -1.9282
  555TIP3   OH223079   4.870   3.117   2.319 -0.4683  0.0812  0.3192
  555TIP3    H123080   4.948   3.062   2.316 -0.2903  0.3355  0.2140
  555TIP3    H223081   4.847   3.131   2.227 -1.3783 -1.0162  0.3493
  556TIP3   OH223082   3.374   0.241  13.746  1.0751 -0.1159  0.2031
  556TIP3    H123083   3.369   0.154  13.707  0.9351  0.2973 -0.7212
  556TIP3    H223084   3.396   0.299  13.673 -0.8148  0.9136  0.4035
  557TIP3   OH223085   0.710   0.177   6.586  0.5510  0.2437  0.1393
  557TIP3    H123086   0.763   0.112   6.632  0.3124 -1.0154 -1.2904
  557TIP3    H223087   0.740   0.261   6.620  0.6732 -0.5919  2.2580
  558TIP3   OH223088   0.554   5.848  13.607  0.4327 -0.0549 -0.4485
  558TIP3    H123089   0.642   5.849  13.643 -0.0200 -2.5350  0.9152
  558TIP3    H223090   0.496   5.863  13.682 -0.3595  0.9888 -1.2305
  559TIP3   OH223091   3.071   3.475  14.046 -0.1249 -0.0245 -0.3669
  559TIP3    H123092   3.035   3.523  14.120  1.4177 -1.6150  1.4985
  559TIP3    H223093   3.080   3.541  13.977 -3.5002  1.1014  0.0644
  560TIP3   OH223094   2.649   6.367  11.877 -0.2735  0.3013  0.2945
  560TIP3    H123095   2.724   6.311  11.857 -0.1696  0.0824  1.2474
  560TIP3    H223096   2.597   6.368  11.796 -0.7361 -1.8907  0.5115
  561TIP3   OH223097   1.106   6.122   4.875 -0.4525 -0.5109 -0.0817
  561TIP3    H123098   1.152   6.062   4.816 -0.5312 -0.9290  0.2817
  561TIP3    H223099   1.176   6.167   4.922 -0.3912 -1.8734  1.2108
  562TIP3   OH223100   4.910   1.050  13.096 -0.4911  0.2806  0.4976
  562TIP3    H123101   4.851   0.981  13.067 -2.1383  1.8163 -0.0081
  562TIP3    H223102   4.987   1.041  13.040 -1.4329 -0.0612 -0.7980
  563TIP3   OH223103   1.382   1.097   4.599  0.4158  0.4057  0.0748
  563TIP3    H123104   1.336   1.013   4.607  2.1919 -0.6206 -0.0398
  563TIP3    H223105   1.329   1.158   4.651 -0.2680 -1.0641  1.1645
  564TIP3   OH223106   5.815   3.974  11.846  0.1971  0.2613 -0.5691
  564TIP3    H123107   5.720   3.973  11.844  0.1681  1.7422 -0.6500
  564TIP3    H223108   5.842   3.922  11.770 -0.5214 -0.8572 -0.0825
  565TIP3   OH223109   3.016   4.557  16.905  0.7847 -0.3871 -0.2499
  565TIP3    H123110   3.106   4.590  16.912 -0.0739  1.8995  2.0383
  565TIP3    H223111   3.009   4.493  16.976  0.6817 -0.7092 -0.5533
  566TIP3   OH223112   0.830   1.468   2.228  0.2861 -0.0656  0.1830
  566TIP3    H123113   0.905   1.452   2.170  0.4776 -0.0341  0.4195
  566TIP3    H223114   0.854   1.546   2.278 -0.4550  0.7050 -0.6378
  567TIP3   OH223115   4.401   4.133   3.035  0.0828  0.7424 -0.3348
  567TIP3    H123116   4.488   4.094   3.028 -0.5256 -0.7405  0.0766
  567TIP3    H223117   4.410   4.219   2.994  1.2485 -0.1494 -2.0675
  568TIP3   OH223118   0.297   0.882  13.242  0.0526 -0.0523 -0.8374
  568TIP3    H123119   0.273   0.850  13.155  1.3973 -1.5162 -0.7193
  568TIP3    H223120   0.385   0.919  13.230 -0.5567  1.6165 -0.4802
  569TIP3   OH223121   2.859   4.463  15.128  0.1314 -0.1967  0.6439
  569TIP3    H123122   2.864   4.422  15.214  1.4545 -1.2216  0.1215
  569TIP3    H223123   2.944   4.505  15.116  0.8007 -1.8584 -0.9588
  570TIP3   OH223124   4.818   2.980  14.948 -0.0015 -0.2535  0.0871
  570TIP3    H123125   4.729   3.004  14.976 -0.1426 -0.6797  0.0107
  570TIP3    H223126   4.870   3.058  14.965 -0.4743  0.1464 -0.2561
  571TIP3   OH223127   1.580   1.759   2.055  0.2297  0.0084  0.0683
  571TIP3    H123128   1.534   1.714   2.125  0.1714  0.3349  0.2421
  571TIP3    H223129   1.671   1.762   2.084  0.5050 -1.2508 -0.5873
  572TIP3   OH223130   6.512   4.133   5.270  0.0141 -0.0170 -0.0040
  572TIP3    H123131   6.445   4.074   5.304  0.6203 -0.4349  0.4735
  572TIP3    H223132   6.572   4.077   5.222  0.2752  0.2953 -0.0466
  573TIP3   OH223133   3.045   2.095  11.084  0.2174 -0.0704  0.1598
  573TIP3    H123134   3.047   1.999  11.087 -0.6962 -0.1423 -0.9749
  573TIP3    H223135   3.099   2.118  11.008 -1.5424  0.1813 -1.0549
  574TIP3   OH223136   5.974   4.689   2.623  0.3255 -0.0731 -0.4155
  574TIP3    H123137   5.909   4.634   2.666 -0.8759  0.5258 -1.4040
  574TIP3    H223138   6.040   4.706   2.691 -0.6015 -0.6018  0.6484
  575TIP3   OH223139   0.516   2.492   4.378  0.7380 -0.1302  0.1148
  575TIP3    H123140   0.511   2.529   4.290 -0.7199 -1.8677 -0.5990
  575TIP3    H223141   0.486   2.401   4.367  0.2499 -0.2997  2.4524
  576TIP3   OH223142   4.955   0.250   6.219  0.1984  0.3574 -0.4095
  576TIP3    H123143   5.031   0.197   6.245 -0.2385 -0.0794 -0.0002
  576TIP3    H223144   4.899   0.250   6.296 -1.2434 -1.1516 -1.3869
  577TIP3   OH223145   0.145   5.162  14.622  0.4369 -0.9560 -0.4172
  577TIP3    H123146   0.074   5.106  14.654 -0.1969  0.2770  0.3735
  577TIP3    H223147   0.123   5.249  14.654  0.7665 -0.0016 -2.6548
  578TIP3   OH223148   3.855   6.311   2.520  0.3061 -0.5796 -0.1505
  578TIP3    H123149   3.921   6.246   2.497  0.0067 -1.6813  1.8451
  578TIP3    H223150   3.890   6.353   2.599 -0.5824  0.0670 -0.0889
  579TIP3   OH223151   5.861   2.171   4.565  0.3196 -0.3486  0.1165
  579TIP3    H123152   5.781   2.142   4.521  1.1798  0.0001 -1.8153
  579TIP3    H223153   5.839   2.170   4.658 -1.4086 -1.8041 -0.2392
  580TIP3   OH223154   6.619   0.741   4.665 -0.2788 -0.1494  0.5764
  580TIP3    H123155   6.539   0.772   4.708 -0.6183 -0.4465  0.1746
  580TIP3    H223156   6.660   0.821   4.631  1.1262  0.3738  3.2492
  581TIP3   OH223157   4.051   6.158   0.634  0.3751 -0.1090 -0.0589
  581TIP3    H123158   4.082   6.248   0.650 -0.0484  0.0579 -0.1594
  581TIP3    H223159   4.059   6.147   0.540 -1.6652  0.6288 -0.3686
  582TIP3   OH223160   3.793   1.743  11.707  0.0696  1.1467 -0.0414
  582TIP3    H123161   3.775   1.825  11.754  0.6805  1.1140  0.2659
  582TIP3    H223162   3.888   1.734  11.712 -0.1231 -0.7644  1.9888
  583TIP3   OH223163   1.041   2.915   5.621  0.6982 -0.2188 -0.0254
  583TIP3    H123164   0.974   2.919   5.688  1.8378  0.4661  1.1231
  583TIP3    H223165   1.063   2.822   5.614 -0.1713 -0.4156 -0.2383
  584TIP3   OH223166   0.120   3.248  17.099  0.4917 -0.3085 -0.2831
  584TIP3    H123167   0.097   3.340  17.084  0.5864 -0.6090 -2.5285
  584TIP3    H223168   0.097   3.233  17.191 -0.2505  1.7394 -0.0717
  585TIP3   OH223169   1.929   4.216   2.792 -0.4834 -0.1828  0.0262
  585TIP3    H123170   1.964   4.268   2.865  0.0817  1.2402 -1.2261
  585TIP3    H223171   2.006   4.181   2.748 -0.7797 -0.2128 -0.4772
  586TIP3   OH223172   4.148   4.201   3.904  0.3195 -0.1212  0.0187
  586TIP3    H123173   4.145   4.131   3.968  2.4377  1.4777  2.0340
  586TIP3    H223174   4.064   4.247   3.915 -1.0239 -2.1226 -1.2297
  587TIP3   OH223175   4.580   0.480  15.537 -0.4927  0.2534  0.3124
  587TIP3    H123176   4.663   0.472  15.489 -0.2388  0.7420  0.6665
  587TIP3    H223177   4.519   0.520  15.475 -0.5519 -0.3797 -0.0470
  588TIP3   OH223178   1.475   3.290  14.697  0.1693  0.0116 -0.1582
  588TIP3    H123179   1.491   3.200  14.728 -0.1038  1.4756  5.1130
  588TIP3    H223180   1.560   3.333  14.705 -0.0737  0.6656 -0.9742
  589TIP3   OH223181   5.713   2.911   0.771  0.1230  0.3056  0.1948
  589TIP3    H123182   5.773   2.931   0.699 -0.7842  1.8022 -0.1997
  589TIP3    H223183   5.670   2.829   0.746  0.6591  0.2045 -0.4096
  590TIP3   OH223184   2.095   3.137   4.024 -0.2062  0.1265  0.5676
  590TIP3    H123185   2.096   3.047   4.057 -0.1554  0.0700  0.4149
  590TIP3    H223186   2.028   3.181   4.076  0.8507  0.4206  1.7527
  591TIP3   OH223187   0.145   5.238  12.398 -0.5714 -0.0951  0.0212
  591TIP3    H123188   0.081   5.255  12.329  0.9846  0.1914 -1.3869
  591TIP3    H223189   0.230   5.249  12.356  0.4537 -2.3184  1.3723
  592TIP3   OH223190   0.931   2.315   0.713  0.1624  0.1863  0.2317
  592TIP3    H123191   0.910   2.238   0.661  0.5869 -0.7964  1.4673
  592TIP3    H223192   1.025   2.329   0.698 -0.0830  1.0167 -0.6668
  593TIP3   OH223193   0.236   6.335  13.090 -0.1700  0.0887  0.2063
  593TIP3    H123194   0.206   6.399  13.153  0.6616 -1.0490  1.8180
  593TIP3    H223195   0.319   6.303  13.125  1.5498  1.0232 -2.6023
  594TIP3   OH223196   4.712   0.208  12.941  0.0188  0.3235 -0.3660
  594TIP3    H123197   4.703   0.114  12.959 -1.8059  0.7721  1.4513
  594TIP3    H223198   4.700   0.216  12.846 -0.9295 -1.1917 -0.4065
  595TIP3   OH223199   6.145   0.323  11.077 -0.3722 -0.3867  0.3027
  595TIP3    H123200   6.067   0.281  11.043 -0.2521 -0.9427  0.6953
  595TIP3    H223201   6.158   0.283  11.163 -0.6507  0.9420  0.9904
  596TIP3   OH223202   2.305   4.374  11.125 -0.3265  0.1616 -0.2657
  596TIP3    H123203   2.281   4.433  11.197 -0.3619 -0.5451  0.3078
  596TIP3    H223204   2.400   4.367  11.130 -0.3291  0.1072 -0.2938
  597TIP3   OH223205   4.867   1.851  13.861  0.3080 -0.8499 -0.5271
  597TIP3    H123206   4.961   1.831  13.865  0.4930 -0.0165 -0.5723
  597TIP3    H223207   4.859   1.937  13.902 -0.5478 -1.2357  0.1528
  598TIP3   OH223208   0.293   4.155   5.209  0.4573  0.4572  0.3287
  598TIP3    H123209   0.224   4.211   5.246  0.6519  1.1576 -0.3489
  598TIP3    H223210   0.346   4.214   5.155  1.1544 -0.2231  0.2505
  599TIP3   OH223211   6.179   4.166   5.246 -0.0953 -0.4831  0.1136
  599TIP3    H123212   6.188   4.160   5.151 -1.7527 -0.2223 -0.0889
  599TIP3    H223213   6.247   4.228   5.272 -1.0804  1.2608 -1.2148
  600TIP3   OH223214   0.797   5.607   3.266 -0.9587  0.5691  0.4324
  600TIP3    H123215   0.754   5.590   3.183 -1.8872  2.4724  0.4468
  600TIP3    H223216   0.731   5.654   3.318  0.4416  1.7526  1.2408
  601TIP3   OH223217   3.869   1.094  11.922 -0.2202 -0.2317 -0.0370
  601TIP3    H123218   3.819   1.026  11.878  0.3517  0.2561 -1.4870
  601TIP3    H223219   3.920   1.047  11.988  1.3789 -1.4792 -2.0598
  602TIP3   OH223220   6.482   3.965   6.030 -0.2634 -0.4049 -0.4449
  602TIP3    H123221   6.407   3.907   6.048 -0.3215 -0.6642 -1.4617
  602TIP3    H223222   6.502   4.004   6.115 -1.1177 -0.8522 -0.0144
  603TIP3   OH223223   4.604   6.515  11.936  0.0126  0.5230 -0.5073
  603TIP3    H123224   4.583   6.435  11.984 -1.1599  1.0939 -0.0399
  603TIP3    H223225   4.700   6.514  11.929  0.4187  1.0610  3.0489
  604TIP3   OH223226   1.968   1.290   6.157  0.4925  0.1543  0.1715
  604TIP3    H123227   2.031   1.297   6.229  0.4861  1.4912  0.0735
  604TIP3    H223228   2.009   1.339   6.086 -0.9843  1.7735  0.3663
  605TIP3   OH223229   1.256   0.253   0.829 -0.5850 -0.3293 -0.6531
  605TIP3    H123230   1.286   0.226   0.916 -0.5044  0.1450 -0.5318
  605TIP3    H223231   1.162   0.268   0.840 -0.7164 -1.0137 -0.8339
  606TIP3   OH223232   4.491   4.940  16.532 -0.6094  0.2962  0.2800
  606TIP3    H123233   4.467   4.905  16.618 -2.2371 -0.1562 -0.3222
  606TIP3    H223234   4.425   5.006  16.514  0.0673  0.8036 -0.3936
  607TIP3   OH223235   3.997   1.824  15.406 -0.4555 -0.2295 -0.3186
  607TIP3    H123236   3.991   1.885  15.480 -2.4912  0.3766 -0.9295
  607TIP3    H223237   3.939   1.752  15.430 -1.3539  0.1044 -1.4165
  608TIP3   OH223238   3.920   5.258  14.470  0.0965  0.1302 -0.9310
  608TIP3    H123239   3.886   5.182  14.515 -0.4129 -0.1009 -1.6903
  608TIP3    H223240   3.866   5.331  14.500  1.0629  0.3581  0.3774
  609TIP3   OH223241   5.596   1.380  10.117 -0.4513 -0.1518  0.4705
  609TIP3    H123242   5.542   1.386  10.038 -2.6195 -0.2797  1.8570
  609TIP3    H223243   5.540   1.413  10.187  0.9579 -1.1763  2.1831
  610TIP3   OH223244   5.493   1.122  16.767  0.4039 -0.0607 -0.6525
  610TIP3    H123245   5.416   1.158  16.813  0.0087 -1.9302  0.2426
  610TIP3    H223246   5.489   1.160  16.680 -0.0104  1.9759  0.1852
  611TIP3   OH223247   5.914   4.642   5.052  0.6020  0.5055 -0.7346
  611TIP3    H123248   5.821   4.619   5.050  0.6187  0.3826 -0.2677
  611TIP3    H223249   5.958   4.568   5.012  0.5826  0.0819 -0.0052
  612TIP3   OH223250   0.780   3.432  15.924  0.1809 -0.2029  0.6255
  612TIP3    H123251   0.864   3.411  15.883 -0.2614 -0.6831 -0.0543
  612TIP3    H223252   0.795   3.516  15.967  0.6618  0.3179 -0.5239
  613TIP3   OH223253   6.741   2.470  16.527 -0.0218  0.4125  0.3228
  613TIP3    H123254   6.788   2.392  16.497 -1.7736 -0.2181 -0.9888
  613TIP3    H223255   6.779   2.542  16.478 -0.3469 -0.0773 -0.6833
  614TIP3   OH223256   5.276   2.837  11.068 -0.0180  0.3416 -0.1168
  614TIP3    H123257   5.266   2.770  11.135 -1.1216  0.3104 -0.2967
  614TIP3    H223258   5.273   2.920  11.117  1.6978  0.2887  0.1477
  615TIP3   OH223259   6.218   4.119  15.126 -0.2030  0.6084  0.4766
  615TIP3    H123260   6.218   4.190  15.062  0.9579  1.1895  1.0932
  615TIP3    H223261   6.200   4.163  15.210 -1.8422 -0.1548  0.5758
  616TIP3   OH223262   3.166   6.651  15.500  0.0542  0.1331 -0.4808
  616TIP3    H123263   3.113   6.715  15.452  0.4404  1.0250  0.2619
  616TIP3    H223264   3.151   6.671  15.592  0.9168 -0.2313 -0.2483
  617TIP3   OH223265   2.042   0.570  14.208  0.0664 -0.0430  0.3862
  617TIP3    H123266   1.994   0.646  14.239  0.0419  0.4074 -0.7263
  617TIP3    H223267   1.986   0.531  14.141  0.7459 -0.1663 -0.1241
  618TIP3   OH223268   4.088   2.079   5.935 -0.2086 -0.5087  0.3756
  618TIP3    H123269   4.071   2.001   5.989  0.1098  0.4768  1.9766
  618TIP3    H223270   4.178   2.069   5.906 -0.7054 -1.5626 -0.9207
  619TIP3   OH223271   6.494   0.712   3.351  0.3275  0.0906 -0.3617
  619TIP3    H123272   6.486   0.681   3.261 -0.0167  0.9936 -0.6512
  619TIP3    H223273   6.457   0.800   3.349  0.1196  0.0327  0.7129
  620TIP3   OH223274   5.227   6.334   5.752  0.2342 -0.6058  0.0284
  620TIP3    H123275   5.200   6.413   5.799  0.6210 -1.3300  1.5231
  620TIP3    H223276   5.200   6.262   5.808  3.0631 -1.4337  0.5007
  621TIP3   OH223277   6.461   0.506   1.921 -0.1712  0.1703  0.3904
  621TIP3    H123278   6.526   0.506   1.851 -0.9917  0.7419 -0.3985
  621TIP3    H223279   6.496   0.446   1.987  0.3948 -0.7639 -0.7248
  622TIP3   OH223280   4.887   6.644  12.997  0.0766  0.0380 -0.2559
  622TIP3    H123281   4.918   6.714  12.940 -4.3424  1.1809 -1.6517
  622TIP3    H223282   4.940   6.568  12.973  1.9495  1.7757 -1.9817
  623TIP3   OH223283   1.251   0.576   6.030  0.0822  0.3133 -0.3929
  623TIP3    H123284   1.225   0.493   6.070  0.7749  0.5366  0.5318
  623TIP3    H223285   1.197   0.642   6.074  0.8121  0.5530  0.1614
  624TIP3   OH223286   1.780   5.975  17.097  0.2164  1.1802  0.4879
  624TIP3    H123287   1.806   6.066  17.109  0.9509  0.8402  1.5677
  624TIP3    H223288   1.736   5.951  17.178  3.6124 -0.5830  2.0311
  625TIP3   OH223289   5.477   2.319  13.174 -0.4471 -0.7556 -0.0610
  625TIP3    H123290   5.532   2.241  13.178 -0.3221 -0.6349  2.4351
  625TIP3    H223291   5.401   2.294  13.121 -0.9661 -2.9886  1.6140
  626TIP3   OH223292   5.655   3.658   5.380  0.3054  0.3811 -0.4376
  626TIP3    H123293   5.586   3.701   5.330 -0.1852 -1.6337 -1.6099
  626TIP3    H223294   5.618   3.648   5.468 -0.9338 -0.6589 -1.0498
  627TIP3   OH223295   6.075   2.871  15.370 -0.4391  0.3434 -0.0869
  627TIP3    H123296   6.075   2.936  15.441 -1.8525 -0.9342  1.1616
  627TIP3    H223297   6.108   2.919  15.294  0.2671  2.0167  1.2034
  628TIP3   OH223298   3.627   3.360   2.890  0.0495 -0.4767  0.2283
  628TIP3    H123299   3.599   3.307   2.965 -0.8215  0.7061  0.7708
  628TIP3    H223300   3.572   3.329   2.817 -0.4536 -0.3168  0.5401
  629TIP3   OH223301   5.570   6.444  12.685  0.4036  0.6416  0.7221
  629TIP3    H123302   5.514   6.366  12.684  1.0763  0.1493  0.0878
  629TIP3    H223303   5.527   6.506  12.626  0.3450  0.3941  0.5034
  630TIP3   OH223304   0.892   6.655   5.076  0.5915 -0.2891  0.1057
  630TIP3    H123305   0.967   6.629   5.130  0.6611  2.1434  1.3613
  630TIP3    H223306   0.927   6.658   4.987  1.0508 -2.3762  0.1754
  631TIP3   OH223307   3.169   0.886   1.457 -0.3298  0.1905 -0.1680
  631TIP3    H123308   3.165   0.967   1.506 -2.5687  0.8788 -1.3298
  631TIP3    H223309   3.102   0.830   1.496 -0.6852 -0.0401 -1.0638
  632TIP3   OH223310   2.620   5.670   1.232 -0.3913  0.3631  0.5566
  632TIP3    H123311   2.699   5.711   1.198 -0.3686 -0.3178 -0.2484
  632TIP3    H223312   2.651   5.616   1.306 -0.1150  0.1790  0.3093
  633TIP3   OH223313   1.224   1.804   3.725 -0.2360 -0.0449  0.1168
  633TIP3    H123314   1.272   1.759   3.654  0.2030 -0.5994  0.7500
  633TIP3    H223315   1.292   1.853   3.771 -0.2537 -0.8464  1.0292
  634TIP3   OH223316   1.107   2.814  10.760 -0.7379 -0.1882 -0.3176
  634TIP3    H123317   1.195   2.849  10.771  0.2264 -2.6092  0.4569
  634TIP3    H223318   1.049   2.888  10.776  1.1275  1.1125  0.8025
  635TIP3   OH223319   3.657   6.698   5.821  0.2689  0.6283  0.1204
  635TIP3    H123320   3.674   6.655   5.905  1.3609 -0.4547 -0.6113
  635TIP3    H223321   3.579   6.751   5.836  0.5154  0.5549  1.8436
  636TIP3   OH223322   5.459   2.365   3.761  0.4689  0.0461  0.4213
  636TIP3    H123323   5.379   2.401   3.800  0.4168 -0.0108  0.3654
  636TIP3    H223324   5.438   2.354   3.669  0.5540  0.0661  0.3998
  637TIP3   OH223325   5.705   2.639   2.568  0.1124  0.1269 -0.6009
  637TIP3    H123326   5.787   2.604   2.532  0.1382  1.0865 -1.5194
  637TIP3    H223327   5.725   2.729   2.591 -0.3262 -0.0317  0.4814
  638TIP3   OH223328   5.817   3.088   2.944 -0.1703  0.0712  0.0778
  638TIP3    H123329   5.830   3.018   3.007  2.0554  0.8702  0.5980
  638TIP3    H223330   5.761   3.151   2.989 -0.9576 -0.6550  0.1480
  639TIP3   OH223331   3.940   1.430  12.780  0.2927 -0.0672 -0.2584
  639TIP3    H123332   3.876   1.411  12.712 -2.1689 -0.7985  2.1061
  639TIP3    H223333   3.939   1.525  12.788  1.0112  0.0758 -1.5234
  640TIP3   OH223334   5.752   5.613  13.334 -0.3450  0.3621  0.5540
  640TIP3    H123335   5.687   5.656  13.278 -1.4565  1.6695  2.7122
  640TIP3    H223336   5.791   5.684  13.385  1.1523 -0.6901  0.9443
  641TIP3   OH223337   4.365   3.457   1.604 -0.2808 -0.3170  0.6158
  641TIP3    H123338   4.439   3.511   1.631  2.3170 -1.6219 -3.1634
  641TIP3    H223339   4.299   3.519   1.573  0.1739  0.7886  1.7895
  642TIP3   OH223340   5.655   2.539   4.658  0.2975  0.3867  0.1704
  642TIP3    H123341   5.626   2.582   4.577 -0.0436 -1.4368 -0.7355
  642TIP3    H223342   5.747   2.517   4.641  1.0111  2.2571  1.3230
  643TIP3   OH223343   0.107   0.276   4.709 -0.1563 -0.1673  0.0607
  643TIP3    H123344   0.086   0.369   4.718 -0.0248 -0.0923 -0.3971
  643TIP3    H223345   0.182   0.274   4.651  0.1948 -0.5284  0.5212
  644TIP3   OH223346   1.405   5.369  17.071  0.4049 -0.1122 -0.4158
  644TIP3    H123347   1.472   5.318  17.117 -1.0943 -0.3447  1.6683
  644TIP3    H223348   1.359   5.305  17.017 -0.7315 -0.8025  1.3092
  645TIP3   OH223349   2.956   2.183   2.476 -0.0975  0.0055  0.2055
  645TIP3    H123350   3.032   2.130   2.453  0.1485  0.4403  0.0025
  645TIP3    H223351   2.896   2.173   2.402  0.5297  1.0946 -0.4793
  646TIP3   OH223352   5.380   6.809  10.904 -0.5344  0.0172 -0.2756
  646TIP3    H123353   5.452   6.750  10.883 -0.3188  0.7351 -1.7009
  646TIP3    H223354   5.323   6.806  10.827 -0.4370  1.7581 -0.4662
  647TIP3   OH223355   2.111   6.225  16.245 -0.4102 -0.1918 -0.0606
  647TIP3    H123356   2.097   6.312  16.210  1.8628 -0.2279 -1.2599
  647TIP3    H223357   2.029   6.178  16.230 -0.5660  0.7648 -2.4608
  648TIP3   OH223358   2.100   6.717   3.991  0.1383 -0.0200  0.3397
  648TIP3    H123359   2.162   6.667   4.044  2.7876  1.8652 -0.8043
  648TIP3    H223360   2.095   6.668   3.908 -0.0591 -0.2617  0.4915
  649TIP3   OH223361   6.529   1.810   2.921  0.5015  0.2472 -0.2719
  649TIP3    H123362   6.450   1.831   2.871 -0.8236 -2.1049  0.6835
  649TIP3    H223363   6.597   1.796   2.854 -0.7143 -0.8341 -1.3430
  650TIP3   OH223364   1.937   3.381   5.744 -0.1551 -0.0000 -0.0678
  650TIP3    H123365   1.847   3.371   5.775  0.5229 -2.0365  1.5173
  650TIP3    H223366   1.970   3.458   5.789 -1.2602  1.1778 -1.1892
  651TIP3   OH223367   1.046   3.857   5.671 -0.8014 -0.4386 -0.7861
  651TIP3    H123368   0.964   3.806   5.675 -0.0023 -1.7570 -0.3993
  651TIP3    H223369   1.115   3.790   5.663  0.2886  0.6096 -0.4037
  652TIP3   OH223370   5.112   5.577   5.126  0.3669  0.2680  0.2166
  652TIP3    H123371   5.177   5.509   5.111 -1.7197 -1.8405  0.1678
  652TIP3    H223372   5.145   5.626   5.201  2.0956 -0.5714  0.0542
  653TIP3   OH223373   6.456   2.548   3.478  0.0491 -0.2752 -0.1330
  653TIP3    H123374   6.465   2.458   3.445 -0.3146 -0.0812 -0.7777
  653TIP3    H223375   6.546   2.582   3.477  0.2404 -0.7383  0.4425
  654TIP3   OH223376   0.108   2.430  17.001  0.0250  0.2056 -0.7086
  654TIP3    H123377   0.040   2.377  16.959  0.4527 -1.0464  0.1387
  654TIP3    H223378   0.097   2.518  16.963 -0.3743 -0.5856 -2.5317
  655TIP3   OH223379   3.218   4.510  12.311  0.3640  0.0854  0.5678
  655TIP3    H123380   3.255   4.426  12.337  1.3445  0.6218  0.9343
  655TIP3    H223381   3.214   4.561  12.392 -1.9553 -0.2146  0.7068
  656TIP3   OH223382   0.357   0.314  13.068  0.3364 -0.0594  0.2673
  656TIP3    H123383   0.408   0.386  13.106  1.9613 -1.2418  0.4430
  656TIP3    H223384   0.311   0.276  13.143  0.6259 -0.1044  0.4248
  657TIP3   OH223385   4.327   5.085  11.325  0.3157  0.3738 -0.3392
  657TIP3    H123386   4.298   5.164  11.279  1.7752  1.4351  0.4844
  657TIP3    H223387   4.313   5.014  11.262 -2.6268  0.9738 -0.5166
  658TIP3   OH223388   1.282   2.004   1.657  0.5048  0.0915  0.3113
  658TIP3    H123389   1.258   1.980   1.567  1.1955 -0.6334  0.3140
  658TIP3    H223390   1.318   2.092   1.649  1.7163 -0.4417 -0.3235
  659TIP3   OH223391   6.695   1.669  14.468  0.2763  0.2871 -0.2471
  659TIP3    H123392   6.760   1.698  14.403  1.2741  1.4592  1.2038
  659TIP3    H223393   6.678   1.578  14.445 -0.4328  0.9868 -2.9555
  660TIP3   OH223394   5.286   2.726  14.924 -0.0086  0.2951 -0.7501
  660TIP3    H123395   5.198   2.765  14.927 -0.6154 -0.9380 -1.3607
  660TIP3    H223396   5.285   2.661  14.994 -0.1790 -0.8254 -1.7441
  661TIP3   OH223397   5.810   0.942  16.250  0.7791 -0.5517  0.4742
  661TIP3    H123398   5.811   1.003  16.176  1.1817 -0.1783  0.7839
  661TIP3    H223399   5.851   0.863  16.215  2.6213  0.2127  0.7768
  662TIP3   OH223400   2.592   0.189  14.057 -0.4556 -0.2330  0.2405
  662TIP3    H123401   2.543   0.239  14.123 -0.2769 -0.7944  0.8073
  662TIP3    H223402   2.666   0.245  14.035 -2.1845  1.3999 -1.8719
  663TIP3   OH223403   2.319   3.845  15.102  0.2362 -0.3353 -0.1027
  663TIP3    H123404   2.331   3.895  15.182  0.5897  0.2447 -0.5090
  663TIP3    H223405   2.225   3.823  15.101 -0.6561  2.9902 -1.4179
  664TIP3   OH223406   6.145   4.843  14.539  0.2126 -0.0555 -0.0558
  664TIP3    H123407   6.132   4.904  14.466  0.4944  2.2627  1.7224
  664TIP3    H223408   6.110   4.889  14.615  0.3269 -2.2149  1.3785
  665TIP3   OH223409   2.951   5.649   2.287 -0.1606 -0.1544  0.4868
  665TIP3    H123410   2.899   5.630   2.365 -1.3524 -1.2777 -0.5458
  665TIP3    H223411   2.962   5.565   2.243  2.7387 -0.0108  0.7331
  666TIP3   OH223412   0.136   2.580   3.173 -0.4546 -0.3931  0.3846
  666TIP3    H123413   0.162   2.657   3.224 -0.4263  0.1017 -0.3675
  666TIP3    H223414   0.042   2.590   3.160 -0.4303 -0.4350  0.1849
  667TIP3   OH223415   6.485   6.215   0.423 -0.7075 -0.0991 -0.1578
  667TIP3    H123416   6.563   6.231   0.476 -1.2618  2.0832  0.1019
  667TIP3    H223417   6.435   6.151   0.473 -1.1531  1.7863  2.0129
  668TIP3   OH223418   4.650   5.164   5.343 -0.2670  0.1602  0.8084
  668TIP3    H123419   4.676   5.252   5.370 -1.7129  1.0124 -0.3985
  668TIP3    H223420   4.642   5.115   5.425 -0.6301  1.5000  1.6042
  669TIP3   OH223421   1.843   0.120  15.679 -0.1180  0.2688  0.1470
  669TIP3    H123422   1.902   0.046  15.688  0.8201  1.0239  0.4629
  669TIP3    H223423   1.804   0.110  15.592  1.1907  0.2396 -0.4599
  670TIP3   OH223424   3.299   4.908  12.361  0.0747 -0.9790 -0.0770
  670TIP3    H123425   3.335   4.993  12.335  0.2938 -1.2601 -0.7134
  670TIP3    H223426   3.369   4.846  12.342 -0.2336 -1.3528  0.0055
  671TIP3   OH223427   1.985   2.538  15.575 -0.2476  0.2563 -0.1111
  671TIP3    H123428   1.969   2.632  15.566  0.1277  0.3026 -0.3295
  671TIP3    H223429   2.080   2.530  15.571 -0.2538 -0.0880  0.3671
  672TIP3   OH223430   4.838   4.718   4.477  0.2765 -0.8291 -0.3585
  672TIP3    H123431   4.817   4.699   4.386 -1.5877  2.3904 -0.7436
  672TIP3    H223432   4.759   4.759   4.512  1.6672 -0.0454  2.0866
  673TIP3   OH223433   2.951   2.696   5.487 -0.1325  0.1245 -0.0726
  673TIP3    H123434   2.931   2.699   5.580 -1.5981 -0.7418 -0.3245
  673TIP3    H223435   2.999   2.613   5.475  1.5251  1.0103  0.1349
  674TIP3   OH223436   3.990   5.765  11.458 -0.3882 -0.3286  0.0226
  674TIP3    H123437   3.973   5.843  11.510 -0.1348 -0.1904 -0.1021
  674TIP3    H223438   3.908   5.750  11.411 -0.5824 -0.3919  0.3775
  675TIP3   OH223439   4.851   0.379  13.785 -0.5413  0.0453  0.0185
  675TIP3    H123440   4.892   0.383  13.698  2.0168 -0.3131  1.1106
  675TIP3    H223441   4.825   0.469  13.804 -1.5907  0.0473 -1.2776
  676TIP3   OH223442   5.932   0.144   0.992  0.0101 -0.2514 -0.5420
  676TIP3    H123443   5.918   0.237   0.975 -1.5046 -0.4080 -0.2906
  676TIP3    H223444   5.859   0.100   0.947  1.6924 -1.4923 -2.2191
  677TIP3   OH223445   3.706   0.672  16.686  0.2905 -0.3929  0.2492
  677TIP3    H123446   3.706   0.708  16.775  0.7137  1.7991 -0.5974
  677TIP3    H223447   3.619   0.691  16.652  0.2911 -0.7891  0.0160
  678TIP3   OH223448   1.207   0.981   2.061  0.1254  0.0078 -0.0468
  678TIP3    H123449   1.151   0.928   2.118  0.6083 -1.4111 -0.8494
  678TIP3    H223450   1.160   1.064   2.053 -0.9117 -0.4650  0.8251
  679TIP3   OH223451   1.578   6.115   4.916  0.8102  0.5118 -0.4430
  679TIP3    H123452   1.548   6.081   4.832 -1.5339  0.7292  0.2360
  679TIP3    H223453   1.569   6.041   4.977  2.1076  0.4661 -0.2793
  680TIP3   OH223454   6.510   1.942   5.012 -0.1465  0.6171  0.2401
  680TIP3    H123455   6.559   1.944   4.930  1.2576  2.3169  1.0375
  680TIP3    H223456   6.418   1.939   4.986  0.2694  1.0852 -1.3810
  681TIP3   OH223457   4.371   5.048   1.413  0.4370  0.4830  0.3141
  681TIP3    H123458   4.384   4.962   1.452  1.6318 -1.3988 -3.7172
  681TIP3    H223459   4.276   5.056   1.402  0.3732 -0.8091 -0.1832
  682TIP3   OH223460   4.835   4.736  13.513  0.2780  0.2770 -0.2729
  682TIP3    H123461   4.800   4.789  13.585 -0.8769 -1.0158  0.1406
  682TIP3    H223462   4.791   4.770  13.435  0.5806  0.8321 -0.2103
  683TIP3   OH223463   4.576   5.851  11.855  0.2094  0.0415 -0.0408
  683TIP3    H123464   4.528   5.815  11.780 -1.2363 -2.5052  1.9737
  683TIP3    H223465   4.515   5.912  11.896  0.5695  0.5471 -0.2407
  684TIP3   OH223466   3.014   1.488   5.401 -0.0488  0.0128  0.5020
  684TIP3    H123467   2.960   1.499   5.323  1.1338  0.0648 -0.3420
  684TIP3    H223468   2.952   1.484   5.473 -1.1008  1.5623 -0.2673
  685TIP3   OH223469   3.067   6.756  14.004  0.7528 -0.0951  0.4084
  685TIP3    H123470   3.082   6.683  13.945  2.8107  0.5459  0.0464
  685TIP3    H223471   3.057   6.832  13.946 -2.3582 -0.1313  0.7194
  686TIP3   OH223472   5.597   1.397  12.591  0.0101 -0.5942  0.2725
  686TIP3    H123473   5.653   1.413  12.668  0.1064 -0.4411  0.1723
  686TIP3    H223474   5.514   1.438  12.614 -0.3485 -1.5896  0.7807
  687TIP3   OH223475   0.210   5.069  15.670 -0.3657  0.2941  0.0640
  687TIP3    H123476   0.288   5.089  15.721  0.9639 -3.5848 -0.1143
  687TIP3    H223477   0.235   5.088  15.579 -0.0846  0.2911  0.1390
  688TIP3   OH223478   2.576   1.032  14.395  0.2596  0.0610  0.2188
  688TIP3    H123479   2.633   1.013  14.470  0.1515 -0.9260  0.0591
  688TIP3    H223480   2.594   0.962  14.332 -1.4755 -0.5572  0.3675
  689TIP3   OH223481   4.629   4.789  13.368  0.0864  0.2576  0.1852
  689TIP3    H123482   4.547   4.834  13.389 -0.6410 -0.3416 -1.2211
  689TIP3    H223483   4.636   4.795  13.273  2.1543  1.0472  0.3351
  690TIP3   OH223484   4.016   1.039  10.985  0.1170  0.0636 -0.3411
  690TIP3    H123485   3.940   1.035  11.042  0.1026  0.4697 -0.3310
  690TIP3    H223486   3.983   1.014  10.898 -0.2204  1.1154 -0.5298
  691TIP3   OH223487   5.653   1.626   1.823 -0.5870  0.3117 -0.1445
  691TIP3    H123488   5.656   1.530   1.819 -2.5482  0.1818  0.4202
  691TIP3    H223489   5.712   1.649   1.895 -0.5913 -0.5060  0.1276
  692TIP3   OH223490   3.469   3.561  16.631 -0.7797 -0.1537 -0.4493
  692TIP3    H123491   3.543   3.571  16.570 -1.7491  0.0390 -1.6373
  692TIP3    H223492   3.440   3.650  16.649  0.5785 -0.0805  1.7447
  693TIP3   OH223493   2.023   6.237  14.316  0.3468 -0.1946  0.1476
  693TIP3    H123494   2.091   6.228  14.250  0.0328 -1.6116 -0.0115
  693TIP3    H223495   2.016   6.331  14.331  2.5759 -0.0308  0.4269
  694TIP3   OH223496   4.732   0.650  12.281 -0.0702  0.4315  0.5565
  694TIP3    H123497   4.775   0.703  12.348 -0.3907  1.9426 -0.3882
  694TIP3    H223498   4.656   0.702  12.254 -0.2489 -0.3906 -0.5980
  695TIP3   OH223499   3.597   6.097   0.107  0.2233  0.4062  0.1704
  695TIP3    H123500   3.533   6.114   0.038 -0.5714 -0.0944  0.7637
  695TIP3    H223501   3.551   6.039   0.168  1.3358 -0.1638  0.4833
  696TIP3   OH223502   6.084   4.138  16.174  0.6660 -0.1097 -0.0910
  696TIP3    H123503   6.177   4.150  16.193  0.9084  0.8498 -1.7204
  696TIP3    H223504   6.064   4.051  16.208  1.7985  0.1966  1.5029
  697TIP3   OH223505   3.244   0.292  16.290 -0.1211 -0.2390 -0.0902
  697TIP3    H123506   3.281   0.380  16.298 -0.5736  0.0041 -0.6405
  697TIP3    H223507   3.218   0.270  16.380 -0.3324  0.3340 -0.0054
  698TIP3   OH223508   0.553   3.971  14.342 -0.2180  0.3640  0.0544
  698TIP3    H123509   0.512   4.032  14.403  0.1568  1.7306 -1.0151
  698TIP3    H223510   0.635   4.013  14.317  2.1258 -2.3936  2.3567
  699TIP3   OH223511   0.119   6.438  12.326 -0.6824 -0.2018 -0.0029
  699TIP3    H123512   0.118   6.534  12.332 -0.5652 -0.1043 -1.2188
  699TIP3    H223513   0.094   6.421  12.235 -0.4663 -1.3269  0.1475
  700TIP3   OH223514   4.902   6.071  14.494  0.7380  0.1834 -0.6387
  700TIP3    H123515   4.890   6.019  14.414 -0.3946 -0.6305  0.0311
  700TIP3    H223516   4.931   6.007  14.559 -0.2230  0.4721  0.0881
  701TIP3   OH223517   2.106   5.192  13.494  0.5507 -0.9014 -0.0138
  701TIP3    H123518   2.042   5.211  13.562  0.3925  1.0120 -0.6110
  701TIP3    H223519   2.093   5.100  13.472 -2.4326 -0.4588 -0.5397
  702TIP3   OH223520   3.234   5.382  13.794  0.2477  0.3468  0.1483
  702TIP3    H123521   3.184   5.454  13.756  1.3128  2.1538  1.9665
  702TIP3    H223522   3.197   5.371  13.882 -0.5007 -2.0015 -0.4069
  703TIP3   OH223523   1.253   2.310  11.857 -0.6216 -0.1218  0.4223
  703TIP3    H123524   1.281   2.401  11.852  0.3951 -0.4198  0.5904
  703TIP3    H223525   1.295   2.267  11.783  0.4666 -0.8513  1.4322
  704TIP3   OH223526   4.444   6.096   2.825  0.0377 -0.2466  0.1123
  704TIP3    H123527   4.508   6.066   2.889  2.8943 -1.4759 -3.0317
  704TIP3    H223528   4.410   6.016   2.786  0.0780  0.4454 -1.4132
  705TIP3   OH223529   2.458   1.647   6.397 -0.0738 -0.7194 -0.4737
  705TIP3    H123530   2.389   1.707   6.368 -0.6362 -0.4138  1.4058
  705TIP3    H223531   2.411   1.566   6.419  0.4970 -1.3672 -1.5537
  706TIP3   OH223532   1.623   1.370   0.967 -0.2556  0.4873  0.3246
  706TIP3    H123533   1.694   1.402   0.911 -0.8671 -0.0917 -0.8173
  706TIP3    H223534   1.557   1.439   0.963 -1.1620 -0.4007 -1.3601
  707TIP3   OH223535   3.886   4.395   5.557  0.5682 -0.0296  0.1309
  707TIP3    H123536   3.892   4.479   5.601  0.1720  0.5919 -0.9677
  707TIP3    H223537   3.818   4.407   5.491  0.3475 -1.2794  0.1049
  708TIP3   OH223538   2.547   0.297   6.089 -0.2345  0.3701 -0.7324
  708TIP3    H123539   2.563   0.211   6.050  1.0313  0.8456 -1.3043
  708TIP3    H223540   2.532   0.279   6.182 -1.6764 -0.6166 -1.1163
  709TIP3   OH223541   6.046   6.749   0.791  0.2127  0.4623 -0.6770
  709TIP3    H123542   6.132   6.768   0.753  0.5223  0.2830 -0.0817
  709TIP3    H223543   5.983   6.771   0.722  0.8312 -1.4427 -1.9467
  710TIP3   OH223544   2.893   5.792  11.810 -0.0557 -0.2949 -0.5154
  710TIP3    H123545   2.880   5.852  11.737 -1.1824 -0.3801 -0.4034
  710TIP3    H223546   2.906   5.706  11.769 -2.1867 -0.6222 -0.6398
  711TIP3   OH223547   3.202   1.498  15.813 -0.4239  0.4781 -0.4721
  711TIP3    H123548   3.157   1.578  15.785 -3.2203 -0.6668  0.3914
  711TIP3    H223549   3.151   1.427  15.775  0.5530 -0.9405  0.7522
  712TIP3   OH223550   2.381   1.038   0.113  0.2282  0.3356 -0.2440
  712TIP3    H123551   2.421   0.973   0.056  1.3369 -1.2719  2.2166
  712TIP3    H223552   2.451   1.067   0.171 -0.9886  1.3504  0.8010
  713TIP3   OH223553   5.520   3.739  13.583 -0.0653 -0.9807  0.3545
  713TIP3    H123554   5.445   3.712  13.530 -0.1068 -1.5557  0.6968
  713TIP3    H223555   5.550   3.820  13.542  0.7612 -2.0911 -1.4277
  714TIP3   OH223556   5.627   1.956  15.730  0.1954 -0.2743  0.1760
  714TIP3    H123557   5.578   2.032  15.698 -0.6655 -0.7709  0.2867
  714TIP3    H223558   5.696   1.993  15.786  1.1688  0.5608 -1.4868
  715TIP3   OH223559   4.263   3.395  13.161  0.0639 -0.1632 -0.0630
  715TIP3    H123560   4.187   3.445  13.192  1.7593  3.3752 -1.0892
  715TIP3    H223561   4.259   3.402  13.065  1.9308  0.6074 -0.1275
  716TIP3   OH223562   1.145   0.763   1.879 -0.0448 -0.5097  0.0252
  716TIP3    H123563   1.055   0.756   1.845  0.4380 -1.1455 -1.1928
  716TIP3    H223564   1.137   0.817   1.958 -1.1656  1.3319 -1.2896
  717TIP3   OH223565   6.583   1.738  11.070 -0.2472 -0.0271  0.4493
  717TIP3    H123566   6.511   1.705  11.123  0.2466 -1.4013  0.2895
  717TIP3    H223567   6.654   1.675  11.082  0.9657  1.2992  0.6283
  718TIP3   OH223568   2.713   2.444   4.355 -0.5413 -0.6165 -0.1637
  718TIP3    H123569   2.621   2.452   4.331 -0.5848 -1.5169 -0.3442
  718TIP3    H223570   2.712   2.419   4.447 -0.4336  0.6080  0.1838
  719TIP3   OH223571   1.708   5.186  10.828 -0.3969  0.8499  0.3071
  719TIP3    H123572   1.745   5.177  10.916 -0.6819 -0.0844  0.3452
  719TIP3    H223573   1.739   5.271  10.798  0.2003  0.9224  1.0807
  720TIP3   OH223574   1.964   1.567  11.201  0.2238 -0.2178  0.4443
  720TIP3    H123575   1.936   1.604  11.285 -0.5162 -1.1785  0.6420
  720TIP3    H223576   1.935   1.631  11.136 -1.0912 -0.4440  0.7741
  721TIP3   OH223577   4.300   3.173  16.542  0.0344 -0.3414 -0.2188
  721TIP3    H123578   4.275   3.177  16.634 -0.1494  1.0218 -0.3124
  721TIP3    H223579   4.396   3.175  16.543  0.1530 -2.8514  0.0184
  722TIP3   OH223580   5.693   5.178  11.497 -0.2465 -0.4775  0.6604
  722TIP3    H123581   5.689   5.224  11.413 -0.1038 -1.1530  0.2730
  722TIP3    H223582   5.611   5.200  11.540  0.2553  0.9579  0.9317
  723TIP3   OH223583   2.957   5.191   4.510 -0.0689  0.5257  0.2210
  723TIP3    H123584   2.918   5.268   4.552 -0.2425  0.2421  0.5845
  723TIP3    H223585   2.898   5.171   4.437  0.0175  0.7793  0.0785
  724TIP3   OH223586   5.043   0.502   0.444 -0.1754  0.0610 -0.5630
  724TIP3    H123587   4.950   0.497   0.421 -0.4775  0.1415  0.5702
  724TIP3    H223588   5.043   0.513   0.539  1.0148 -0.4795 -0.4883
  725TIP3   OH223589   0.170   4.771  16.555  0.0572  0.4124 -0.1358
  725TIP3    H123590   0.079   4.789  16.580 -0.0911  0.0704 -0.4224
  725TIP3    H223591   0.184   4.819  16.474  0.9950  2.7369  1.2964
  726TIP3   OH223592   2.568   1.721   4.587  0.1122  0.0740 -0.6601
  726TIP3    H123593   2.533   1.645   4.634  1.4026  1.0026  2.0400
  726TIP3    H223594   2.495   1.751   4.533 -1.2138 -1.6385  0.0768
  727TIP3   OH223595   0.290   6.480   0.453 -0.5550 -0.3863 -0.2938
  727TIP3    H123596   0.299   6.388   0.429  1.7819 -0.0208 -1.1621
  727TIP3    H223597   0.242   6.479   0.536 -1.1344 -2.3238 -0.6017
  728TIP3   OH223598   5.597   2.522   3.091  0.0614  0.2069  0.1995
  728TIP3    H123599   5.595   2.544   2.997 -0.0713 -1.7293 -0.3004
  728TIP3    H223600   5.685   2.486   3.105 -0.4142 -0.8750  0.4651
  729TIP3   OH223601   0.158   1.962   6.037 -0.1912 -0.3717 -0.5682
  729TIP3    H123602   0.220   2.027   6.005  0.2134  1.9555  4.0961
  729TIP3    H223603   0.073   2.007   6.037 -0.8905 -1.6178 -1.7431
  730TIP3   OH223604   6.606   4.142   2.230  0.5244  0.1960 -0.3109
  730TIP3    H123605   6.517   4.113   2.208  0.2975  0.2301  0.4976
  730TIP3    H223606   6.598   4.237   2.239 -0.2464 -0.0520  3.2615
  731TIP3   OH223607   4.042   4.810   2.112  0.0598 -0.1478 -0.0034
  731TIP3    H123608   3.964   4.849   2.074 -0.7418 -2.8337 -1.3703
  731TIP3    H223609   4.065   4.739   2.052  2.1896 -0.9032  1.5794
  732TIP3   OH223610   5.186   4.954  14.421 -0.0440 -0.1167 -0.0204
  732TIP3    H123611   5.271   4.995  14.408 -0.0759  0.7826  2.1376
  732TIP3    H223612   5.123   5.024  14.402 -0.1854  0.0739  1.0836
  733TIP3   OH223613   3.051   2.816   2.694  0.4619 -0.3124  0.2942
  733TIP3    H123614   3.063   2.860   2.778  0.7880  0.3836 -0.1072
  733TIP3    H223615   3.125   2.844   2.641 -0.2367  0.0095 -0.5411
  734TIP3   OH223616   6.058   5.389   2.962  0.7213  0.1420  0.0321
  734TIP3    H123617   6.126   5.375   2.896 -1.6275  0.0934 -2.5632
  734TIP3    H223618   5.992   5.322   2.943  0.5033 -0.7476  3.3584
  735TIP3   OH223619   1.996   5.641  13.727  0.4061  0.5278 -0.2874
  735TIP3    H123620   1.923   5.589  13.693 -1.5532  1.2927  2.4179
  735TIP3    H223621   1.960   5.729  13.738  2.1957  1.2916 -0.1759
  736TIP3   OH223622   1.255   4.183  10.659 -0.1152  0.1485 -0.9439
  736TIP3    H123623   1.161   4.167  10.667  0.2865 -2.2568 -0.3005
  736TIP3    H223624   1.263   4.278  10.662 -2.4085  0.3772  0.3291
  737TIP3   OH223625   3.095   3.802   3.533 -0.0258  0.5469 -0.0785
  737TIP3    H123626   3.144   3.861   3.476 -0.4074  0.5770 -0.3873
  737TIP3    H223627   3.050   3.859   3.595 -1.3238  0.6987 -1.1005
  738TIP3   OH223628   1.524   1.916  11.304  0.1015 -0.0796  0.4533
  738TIP3    H123629   1.551   1.929  11.214 -1.1898 -0.2913  0.0066
  738TIP3    H223630   1.486   2.001  11.330  1.3740  0.2961  1.1483
  739TIP3   OH223631   4.967   0.661  12.972 -0.3509  0.3241 -0.0302
  739TIP3    H123632   4.950   0.568  12.959 -1.4841  0.5295 -0.0784
  739TIP3    H223633   4.961   0.674  13.067 -1.7841  0.6296 -0.1446
  740TIP3   OH223634   4.598   0.844  15.904 -0.6178 -0.1190  0.2622
  740TIP3    H123635   4.665   0.912  15.894 -1.7585  1.0250  0.1781
  740TIP3    H223636   4.599   0.797  15.821  0.3143 -0.3358  0.3890
  741TIP3   OH223637   1.448   4.277   5.648  0.0669 -0.2664  0.3003
  741TIP3    H123638   1.409   4.351   5.600  3.1802  1.0683 -0.3919
  741TIP3    H223639   1.412   4.285   5.737 -3.3890 -0.9330 -0.8612
  742TIP3   OH223640   1.606   0.551   0.263  0.2541  0.0485 -0.3016
  742TIP3    H123641   1.666   0.500   0.208 -0.1910 -1.3633  0.4635
  742TIP3    H223642   1.594   0.633   0.216  1.3353 -0.3822 -1.3815
  743TIP3   OH223643   1.124   2.318   2.190  0.1494  0.3418 -0.3184
  743TIP3    H123644   1.161   2.268   2.117 -0.7078 -0.3760 -0.2726
  743TIP3    H223645   1.160   2.406   2.179  0.8125 -0.0086 -1.0343
  744TIP3   OH223646   6.752   5.388   5.135  0.1407  0.5837 -0.4454
  744TIP3    H123647   6.669   5.410   5.094  0.1366 -0.5754 -1.0888
  744TIP3    H223648   6.737   5.399   5.229 -0.5017  1.1092 -0.6053
  745TIP3   OH223649   4.466   3.988   3.954 -0.1830 -0.0830 -0.6240
  745TIP3    H123650   4.509   3.905   3.975  2.4040  0.4287 -3.2241
  745TIP3    H223651   4.398   3.964   3.892  0.0629 -0.3553 -0.7942
  746TIP3   OH223652   1.470   5.244  16.381  0.5636  0.2832  0.1499
  746TIP3    H123653   1.490   5.151  16.373  1.7355  0.5566 -0.3624
  746TIP3    H223654   1.507   5.269  16.465 -1.2102 -0.0446  1.0614
  747TIP3   OH223655   2.713   2.881   3.460 -0.3583 -0.7413 -0.0785
  747TIP3    H123656   2.647   2.939   3.425  1.7563  2.0550  0.2160
  747TIP3    H223657   2.773   2.866   3.387  1.4028  1.0600  0.9082
  748TIP3   OH223658   3.000   0.388  12.112  0.1132 -0.1598  0.0016
  748TIP3    H123659   3.005   0.294  12.095  0.9569  0.1345 -1.5250
  748TIP3    H223660   2.994   0.394  12.208  1.1321 -1.7205  0.2076
  749TIP3   OH223661   1.738   5.487   5.733  0.6722  0.3655  0.4797
  749TIP3    H123662   1.823   5.471   5.774  0.2266 -1.7394  0.6919
  749TIP3    H223663   1.701   5.560   5.782  2.6378  1.8709 -0.1083
  750TIP3   OH223664   4.791   5.988   1.420  0.0313  0.0815 -0.2875
  750TIP3    H123665   4.868   6.045   1.417 -0.6909  1.0927 -0.1551
  750TIP3    H223666   4.718   6.045   1.395 -0.7205 -0.7686 -0.0767
  751TIP3   OH223667   1.503   3.374   2.530  0.3152  0.3131  0.5987
  751TIP3    H123668   1.555   3.295   2.514  0.6051  0.7423 -0.7261
  751TIP3    H223669   1.419   3.356   2.488  0.5147  0.8453 -0.0369
  752TIP3   OH223670   5.282   0.408   1.193 -0.3316  0.8115 -0.0907
  752TIP3    H123671   5.207   0.447   1.149  0.7432  2.0241 -0.9283
  752TIP3    H223672   5.354   0.419   1.131 -0.0455 -3.1473 -0.7001
  753TIP3   OH223673   2.637   5.779  14.249  0.4247  0.3824 -0.1440
  753TIP3    H123674   2.625   5.701  14.304  0.2177  0.3926 -0.1730
  753TIP3    H223675   2.567   5.839  14.277 -0.3866 -0.0426 -1.1827
  754TIP3   OH223676   5.015   6.789   4.202 -0.1912 -0.1292  0.3588
  754TIP3    H123677   5.104   6.773   4.234  0.2420  4.0988  1.8964
  754TIP3    H223678   4.958   6.753   4.270  0.2343 -2.4446 -0.4111
  755TIP3   OH223679   4.342   5.383  15.357  0.1723 -0.3450  0.4083
  755TIP3    H123680   4.251   5.395  15.331 -0.3605 -2.6183  1.0393
  755TIP3    H223681   4.391   5.436  15.294 -1.5277  0.5582 -0.2341
  756TIP3   OH223682   0.487   1.638   4.339 -0.2203  0.3888  0.0762
  756TIP3    H123683   0.501   1.649   4.245 -1.9378 -0.2227 -0.2875
  756TIP3    H223684   0.432   1.559   4.346  0.2344  0.1734  1.6189
  757TIP3   OH223685   0.228   5.939  11.720  0.5604 -0.3674 -0.0682
  757TIP3    H123686   0.171   5.870  11.753 -0.7588  0.3341 -0.8258
  757TIP3    H223687   0.256   5.909  11.634 -1.3776  0.7063 -1.1580
  758TIP3   OH223688   5.264   5.093  13.604  0.1377 -0.0537 -0.0068
  758TIP3    H123689   5.189   5.057  13.652  0.1607  1.2718  1.1003
  758TIP3    H223690   5.316   5.017  13.580 -1.8663 -1.0771 -1.3847
  759TIP3   OH223691   3.804   5.470   4.633 -0.3075  0.9881  0.0433
  759TIP3    H123692   3.775   5.520   4.556  1.3141 -0.6085 -1.7337
  759TIP3    H223693   3.855   5.398   4.596  2.2062  1.2264  2.7033
  760TIP3   OH223694   1.158   0.992  11.262  0.7678 -0.0413 -0.9329
  760TIP3    H123695   1.141   1.000  11.356 -0.1155 -0.9758 -0.9919
  760TIP3    H223696   1.154   1.082  11.229  1.0349  0.2888 -0.0949
  761TIP3   OH223697   1.237   0.260  10.976 -0.0240 -0.3571  0.1160
  761TIP3    H123698   1.279   0.303  11.050 -0.0720  0.1819 -0.1688
  761TIP3    H223699   1.190   0.186  11.015  2.8457 -2.2864  0.2444
  762TIP3   OH223700   5.706   4.300   2.157  0.2393 -0.0904  0.2549
  762TIP3    H123701   5.795   4.282   2.187  1.1675 -1.0999 -2.7036
  762TIP3    H223702   5.653   4.233   2.200  1.3636 -1.1186  0.1211
  763TIP3   OH223703   1.133   3.983   5.135 -0.2161 -0.0158  0.0779
  763TIP3    H123704   1.199   4.007   5.069 -0.4317  0.1131 -0.0937
  763TIP3    H223705   1.162   4.028   5.215 -0.7669  1.0782 -0.3124
  764TIP3   OH223706   6.734   1.620   1.608 -0.3417 -0.4422 -0.4171
  764TIP3    H123707   6.799   1.647   1.673  0.1610  0.3473 -1.2242
  764TIP3    H223708   6.677   1.560   1.656 -1.1650  1.5885  1.3137
  765TIP3   OH223709   1.346   4.261   0.754 -0.1837  0.2964 -0.6439
  765TIP3    H123710   1.355   4.313   0.834  1.1697 -2.0591  0.8667
  765TIP3    H223711   1.386   4.315   0.686 -0.8084  2.1204  0.3650
  766TIP3   OH223712   5.652   0.511  12.996 -0.2841  0.0969 -0.2172
  766TIP3    H123713   5.685   0.595  12.962  0.5136 -0.7319 -1.5780
  766TIP3    H223714   5.646   0.455  12.919  0.2420 -1.4399  0.8207
  767TIP3   OH223715   0.334   4.683  14.603  0.1816 -0.5695  0.1034
  767TIP3    H123716   0.249   4.660  14.566  0.3350  0.9364 -1.3016
  767TIP3    H223717   0.340   4.778  14.593  2.5774 -0.7759 -1.1197
  768TIP3   OH223718   3.280   5.128  14.732  0.2018  0.4386  0.1434
  768TIP3    H123719   3.238   5.156  14.651 -0.6281 -0.0710  0.3898
  768TIP3    H223720   3.220   5.065  14.771  0.9038  0.1620  0.8242
  769TIP3   OH223721   2.168   2.969  13.480 -0.2605  0.1403  0.2999
  769TIP3    H123722   2.225   2.950  13.405  0.0873  2.6163 -0.1735
  769TIP3    H223723   2.089   2.918  13.464  0.6864 -1.1190 -0.5651
  770TIP3   OH223724   4.884   2.200   5.257  0.1038 -0.0098  0.9912
  770TIP3    H123725   4.884   2.251   5.338  0.6862  0.2462  0.8331
  770TIP3    H223726   4.817   2.240   5.202  1.3059  1.3086  0.4272
  771TIP3   OH223727   0.119   0.920  12.760 -0.3622  0.2376  0.2000
  771TIP3    H123728   0.096   0.857  12.692 -0.6666 -0.5168  0.9793
  771TIP3    H223729   0.035   0.962  12.782 -0.6995 -1.0937  1.6365
  772TIP3   OH223730   2.782   2.463  10.279 -0.6160  0.6203  0.1818
  772TIP3    H123731   2.748   2.504  10.359 -2.3112 -2.3988  1.1438
  772TIP3    H223732   2.849   2.402  10.310  1.7866  2.3533 -1.2071
  773TIP3   OH223733   1.529   1.720   6.578  0.0828  0.0098 -0.5542
  773TIP3    H123734   1.451   1.763   6.615 -0.3921 -0.2491 -1.2300
  773TIP3    H223735   1.581   1.792   6.543  0.8852  0.3305  1.2091
  774TIP3   OH223736   0.011   0.682  16.017 -0.4264 -0.0148  0.2255
  774TIP3    H123737   0.076   0.665  15.949 -1.7123  0.9713 -1.3515
  774TIP3    H223738  -0.036   0.600  16.026 -0.1910 -0.1790 -0.0320
  775TIP3   OH223739   2.795   2.755   0.458  0.4540 -0.9156 -0.8107
  775TIP3    H123740   2.734   2.826   0.436 -1.1739 -1.5337  1.3492
  775TIP3    H223741   2.879   2.799   0.469 -0.5388  0.7888  0.6813
  776TIP3   OH223742   1.860   4.550  14.838  0.2766  0.3257  0.3772
  776TIP3    H123743   1.809   4.618  14.794 -0.6005 -0.7093 -0.2730
  776TIP3    H223744   1.951   4.576  14.825 -0.0556  1.9252  1.0835
  777TIP3   OH223745   2.882   3.036   5.830 -0.0867  0.0159  0.1289
  777TIP3    H123746   2.832   3.095   5.775 -1.2312 -2.7338 -2.0341
  777TIP3    H223747   2.969   3.032   5.790  0.0277  0.2916  0.3449
  778TIP3   OH223748   4.099   0.845  15.022 -0.0920  0.8658 -0.2633
  778TIP3    H123749   4.164   0.788  15.064 -0.0091 -0.4003 -2.0177
  778TIP3    H223750   4.112   0.930  15.064 -1.2832 -0.6228  3.6179
  779TIP3   OH223751   0.281   5.200   3.392 -0.1522 -0.5363 -0.3130
  779TIP3    H123752   0.209   5.144   3.421 -0.4376  0.1728  0.3796
  779TIP3    H223753   0.359   5.162   3.431 -0.3085 -0.6151 -0.0765
  780TIP3   OH223754   5.126   3.800   0.522 -0.1233  0.3369  0.2082
  780TIP3    H123755   5.179   3.720   0.521  1.5733  1.3964  0.9179
  780TIP3    H223756   5.059   3.783   0.588 -0.6023 -0.9757 -0.5858
  781TIP3   OH223757   4.550   3.589  16.084  0.2740 -0.4967  0.0542
  781TIP3    H123758   4.493   3.659  16.055 -0.0752 -0.3370  1.0773
  781TIP3    H223759   4.498   3.541  16.149  1.1149 -0.6515  0.6333
  782TIP3   OH223760   4.893   2.314  16.684 -0.0749 -0.2145 -0.1360
  782TIP3    H123761   4.851   2.304  16.598 -2.6848  0.6419  0.9700
  782TIP3    H223762   4.850   2.389  16.724  1.4057 -0.3062  1.7877
  783TIP3   OH223763   0.665   0.061   3.581  0.0151  0.0281 -0.1018
  783TIP3    H123764   0.634   0.091   3.495  0.2378  1.4444  0.2756
  783TIP3    H223765   0.730  -0.006   3.561  0.7701  1.0088 -1.0957
  784TIP3   OH223766   4.238   2.262  16.863 -0.2239  0.0512 -0.7328
  784TIP3    H123767   4.203   2.275  16.775 -1.3353  0.0065 -0.3102
  784TIP3    H223768   4.162   2.236  16.915  0.2538  0.9044  0.4292
  785TIP3   OH223769   1.875   3.876  16.986 -0.3304  0.0277  0.0384
  785TIP3    H123770   1.907   3.801  16.934 -1.0067  0.3302 -0.8404
  785TIP3    H223771   1.951   3.933  16.995 -0.4733  0.5731 -1.7345
  786TIP3   OH223772   3.761   4.893  16.096 -0.4626 -0.2073  0.0956
  786TIP3    H123773   3.819   4.845  16.155  0.7454 -0.1206 -0.9673
  786TIP3    H223774   3.673   4.874  16.128  0.1539  0.3492  2.2925
  787TIP3   OH223775   3.603   3.156   3.127 -0.0173 -0.0851 -0.7231
  787TIP3    H123776   3.508   3.147   3.134  0.2466 -2.5938  1.4143
  787TIP3    H223777   3.634   3.150   3.218  2.2444 -0.4555 -1.4575
  788TIP3   OH223778   5.984   3.984  11.286 -0.7406  0.6257  0.2275
  788TIP3    H123779   6.080   3.985  11.280 -0.6048  0.8380  1.8916
  788TIP3    H223780   5.958   4.072  11.261 -0.5792  0.3080 -1.0962
  789TIP3   OH223781   4.526   1.121   2.125 -0.3373 -0.2786  0.2037
  789TIP3    H123782   4.619   1.106   2.140 -0.1176  0.5944 -0.2313
  789TIP3    H223783   4.512   1.214   2.147 -1.4150 -0.7619  1.7481
  790TIP3   OH223784   5.210   4.089  11.322  0.1934  0.1668 -0.2002
  790TIP3    H123785   5.306   4.089  11.322  0.2557  0.7167 -2.6451
  790TIP3    H223786   5.186   4.082  11.414  2.5836  1.0367  0.5610
  791TIP3   OH223787   3.031   0.539  16.719  0.0901 -0.3402 -0.4398
  791TIP3    H123788   2.986   0.476  16.664  0.1061  0.0813 -0.9416
  791TIP3    H223789   2.980   0.620  16.711 -1.2677 -0.8691  2.0047
  792TIP3   OH223790   4.913   1.501   1.198  0.0198  0.7783  0.3158
  792TIP3    H123791   4.986   1.541   1.245  0.5642 -0.6952  0.7962
  792TIP3    H223792   4.844   1.493   1.264  0.9824 -1.8178  1.1246
  793TIP3   OH223793   5.335   6.120   5.546 -0.2471 -0.0622  0.3478
  793TIP3    H123794   5.265   6.181   5.521 -0.6832 -0.8387 -0.3543
  793TIP3    H223795   5.323   6.108   5.640  0.9607  2.3317  0.8842
  794TIP3   OH223796   1.122   1.781   2.682  0.0430  0.2940 -0.0604
  794TIP3    H123797   1.169   1.854   2.722 -0.5507  1.1883 -0.9624
  794TIP3    H223798   1.035   1.782   2.724  0.6237 -1.1027  1.3046
  795TIP3   OH223799   0.765   2.771  16.645  0.4219 -0.2756 -0.7644
  795TIP3    H123800   0.672   2.752  16.644  0.4066 -0.2012 -0.7591
  795TIP3    H223801   0.803   2.705  16.703  0.0920  0.9608  0.9385
  796TIP3   OH223802   4.336   0.233  12.424 -0.0695  0.4003 -0.3711
  796TIP3    H123803   4.401   0.184  12.374  0.0366  0.9823 -0.8099
  796TIP3    H223804   4.311   0.174  12.495 -0.7414 -0.7162 -1.4953
  797TIP3   OH223805   6.494   4.849   1.626  0.7602  0.4053 -0.4375
  797TIP3    H123806   6.491   4.908   1.701  0.6291 -0.8295  0.5662
  797TIP3    H223807   6.412   4.866   1.579 -0.2118 -0.2759  0.9052
  798TIP3   OH223808   2.786   3.315  14.878  0.5783  0.8495 -0.8446
  798TIP3    H123809   2.808   3.237  14.827  1.9845 -1.2223  2.5739
  798TIP3    H223810   2.854   3.378  14.855  0.4867  0.4615 -2.3212
  799TIP3   OH223811   0.005   1.060   2.333  0.4086 -0.0381  0.4530
  799TIP3    H123812   0.035   1.120   2.402 -0.0321  0.5695  0.1229
  799TIP3    H223813   0.079   1.001   2.319  1.1088  0.8640  0.2936
  800TIP3   OH223814   3.985   3.029   0.099 -0.1902  0.3697 -0.2591
  800TIP3    H123815   3.907   3.056   0.146 -0.3716 -0.5998  0.0049
  800TIP3    H223816   4.028   2.967   0.157  0.2268  0.0929 -0.8529
  801TIP3   OH223817   4.494   1.511  15.508 -0.5820  0.4105 -0.2019
  801TIP3    H123818   4.423   1.461  15.467  0.0937 -0.9024  0.1749
  801TIP3    H223819   4.452   1.558  15.580 -1.2408  0.3821 -0.5594
  802TIP3   OH223820   0.466   4.911  12.656 -0.1516 -0.6664 -0.0778
  802TIP3    H123821   0.421   4.835  12.619  0.3480 -1.9655  1.8091
  802TIP3    H223822   0.555   4.880  12.672  0.3463  0.6496 -0.1891
  803TIP3   OH223823   4.508   4.178  14.683 -0.4934  0.0913  0.4983
  803TIP3    H123824   4.555   4.196  14.764 -0.1034  0.8470  0.1071
  803TIP3    H223825   4.529   4.251  14.625 -0.9975 -0.2904 -0.1898
  804TIP3   OH223826   6.626   3.219   3.707  0.1861  0.5921  0.2047
  804TIP3    H123827   6.601   3.131   3.678 -0.1222  0.0605  2.0066
  804TIP3    H223828   6.631   3.270   3.626 -1.5360 -0.6002 -0.7036
  805TIP3   OH223829   0.018   3.248  13.146 -0.1621  0.0136  0.2518
  805TIP3    H123830   0.069   3.169  13.168 -1.8726 -1.0599  0.5936
  805TIP3    H223831  -0.067   3.233  13.189 -0.5067  2.0912  0.3613
  806TIP3   OH223832   2.806   5.212  11.425  0.4361  0.0142 -0.9128
  806TIP3    H123833   2.753   5.291  11.439  0.2797 -0.5362  2.3022
  806TIP3    H223834   2.783   5.184  11.336 -0.0033  3.1625 -1.9396
  807TIP3   OH223835   3.333   4.430  11.810  1.0711  0.1728 -0.0302
  807TIP3    H123836   3.402   4.496  11.809  0.4634  0.8947  1.7531
  807TIP3    H223837   3.311   4.417  11.718 -0.0739  3.8925 -0.4365
  808TIP3   OH223838   0.298   1.334   3.654 -0.2624 -0.0292  0.1873
  808TIP3    H123839   0.391   1.344   3.674 -0.3879  1.0897  0.2877
  808TIP3    H223840   0.278   1.408   3.596 -1.2046  0.0461  0.5906
  809TIP3   OH223841   4.725   2.354  13.881 -0.5622 -0.4081 -0.1932
  809TIP3    H123842   4.774   2.314  13.809  0.8993 -1.1705  1.1709
  809TIP3    H223843   4.673   2.282  13.917 -0.4504 -0.2906  0.2059
  810TIP3   OH223844   2.380   4.744   5.246  0.5326 -0.4702 -0.1929
  810TIP3    H123845   2.326   4.712   5.318  0.9759  0.4905  0.5886
  810TIP3    H223846   2.387   4.670   5.186 -1.5791 -0.6448 -0.2938
  811TIP3   OH223847   1.502   1.906   5.123 -0.1282 -0.0124 -0.0957
  811TIP3    H123848   1.505   1.867   5.036 -1.3860 -0.1656 -0.0972
  811TIP3    H223849   1.487   1.831   5.182 -2.4190  0.3696 -0.0864
  812TIP3   OH223850   0.944   3.822  14.015  0.6590 -0.2293 -0.3907
  812TIP3    H123851   0.957   3.909  14.052  2.1297 -0.4810 -0.2678
  812TIP3    H223852   0.957   3.835  13.920  0.6551 -0.2683 -0.3965
  813TIP3   OH223853   5.520   4.618   6.056 -0.1356 -0.1220  0.1431
  813TIP3    H123854   5.558   4.586   6.138 -0.3685 -0.0225  0.2911
  813TIP3    H223855   5.545   4.552   5.991  1.9541  0.8893 -0.1850
  814TIP3   OH223856   5.442   2.091  14.388 -0.3801  0.2167  0.2463
  814TIP3    H123857   5.417   2.065  14.477  0.8022 -1.5585  0.0983
  814TIP3    H223858   5.536   2.109  14.393 -0.6514  1.9877 -0.2646
  815TIP3   OH223859   6.239   3.161  13.180  0.3072 -0.4881 -0.1073
  815TIP3    H123860   6.306   3.118  13.234  1.3526 -0.1148 -1.0771
  815TIP3    H223861   6.165   3.174  13.240  1.5955  0.3647  1.3847
  816TIP3   OH223862   1.758   6.264   2.464 -0.2186 -0.3234 -0.0604
  816TIP3    H123863   1.684   6.316   2.496 -0.0833  0.6087 -1.1952
  816TIP3    H223864   1.775   6.298   2.376  0.2555 -1.9140 -0.6128
  817TIP3   OH223865   1.925   3.030  11.435  0.7358  0.0276  0.1744
  817TIP3    H123866   1.961   3.118  11.450 -0.7694  0.6595  0.1908
  817TIP3    H223867   1.970   2.975  11.499  1.0866  0.9446  0.7430
  818TIP3   OH223868   4.244   4.286   5.095  0.5265  0.2929 -0.7613
  818TIP3    H123869   4.178   4.312   5.159  0.4386  1.4130 -1.2859
  818TIP3    H223870   4.314   4.351   5.106  0.4614  0.5709 -1.8599
  819TIP3   OH223871   2.590   0.834   5.519 -0.1222  0.0591  0.2331
  819TIP3    H123872   2.579   0.929   5.517 -0.5447  0.0114 -0.8355
  819TIP3    H223873   2.560   0.805   5.432  0.5077 -0.9928  0.3468
  820TIP3   OH223874   2.298   6.009  12.639 -0.0496  0.6483 -0.3265
  820TIP3    H123875   2.384   5.978  12.610  0.3015  1.3335 -0.0584
  820TIP3    H223876   2.240   5.934  12.628  0.4562  0.3562 -1.0753
  821TIP3   OH223877   3.591   1.715   3.720  0.0450 -0.5340  0.3673
  821TIP3    H123878   3.671   1.671   3.749  0.3800 -0.6005 -0.6429
  821TIP3    H223879   3.527   1.644   3.710  0.1605 -0.6073  0.1563
  822TIP3   OH223880   3.167   1.657  12.211  0.4561 -0.2601  0.3388
  822TIP3    H123881   3.215   1.626  12.287  0.1931  1.8166  1.4282
  822TIP3    H223882   3.088   1.698  12.247  0.5537  1.1845 -0.9617
  823TIP3   OH223883   1.461   3.140  15.623 -0.6724  0.0140  0.6499
  823TIP3    H123884   1.391   3.119  15.561  0.1042  0.5268 -0.4295
  823TIP3    H223885   1.448   3.233  15.643 -0.9508 -0.1623  1.3074
  824TIP3   OH223886   3.403   0.778  15.868  0.3664 -0.5604 -0.5561
  824TIP3    H123887   3.497   0.782  15.886  0.0878  0.8014  0.6912
  824TIP3    H223888   3.391   0.833  15.791  0.3981  0.5130  0.1897
  825TIP3   OH223889   6.085   6.520  17.085  0.6766  0.5648 -0.8548
  825TIP3    H123890   6.125   6.433  17.082 -0.1436  0.2045 -2.0049
  825TIP3    H223891   6.111   6.556  17.170  0.9294 -0.8512 -0.3147
  826TIP3   OH223892   0.965   3.159  12.054 -0.0736 -0.7544 -0.0739
  826TIP3    H123893   0.891   3.186  12.001  0.1111 -0.8321 -0.3732
  826TIP3    H223894   1.015   3.101  11.998  0.8818  0.2675 -0.3106
  827TIP3   OH223895   3.227   1.589  11.023 -0.2334  0.1082 -0.6001
  827TIP3    H123896   3.300   1.627  11.072  0.3587 -2.2823  0.5062
  827TIP3    H223897   3.209   1.653  10.954  1.0413  2.0785  0.7717
  828TIP3   OH223898   5.824   5.458   1.671  0.4771  0.4927  0.2119
  828TIP3    H123899   5.882   5.532   1.686 -1.1124  1.5511  1.4111
  828TIP3    H223900   5.878   5.394   1.625  2.1888  1.9562  0.1027
  829TIP3   OH223901   5.395   5.202   0.236 -0.5163 -0.3043 -0.7307
  829TIP3    H123902   5.368   5.294   0.236 -0.3683 -0.2515  0.1282
  829TIP3    H223903   5.340   5.161   0.170 -0.3134  0.4785 -1.3969
  830TIP3   OH223904   5.902   4.688   6.187  0.0800  0.6794  0.0412
  830TIP3    H123905   5.856   4.771   6.201  1.9710  1.4175  2.6402
  830TIP3    H223906   5.853   4.624   6.239  0.6148  0.9500  0.8865
  831TIP3   OH223907   1.774   0.812   0.357 -0.2246 -0.5395 -0.2290
  831TIP3    H123908   1.682   0.786   0.349 -0.1830 -0.5918 -0.5276
  831TIP3    H223909   1.822   0.729   0.356 -0.2667 -0.6084  1.3139
  832TIP3   OH223910   3.121   2.510  15.401  0.4055 -0.1433  0.1275
  832TIP3    H123911   3.083   2.452  15.467  0.3082 -0.0420  0.1616
  832TIP3    H223912   3.052   2.522  15.336 -0.1591  1.2378  0.9470
  833TIP3   OH223913   4.153   5.916   4.285 -0.5050 -0.5253  0.4170
  833TIP3    H123914   4.107   5.833   4.300  0.5130 -1.8792 -2.9891
  833TIP3    H223915   4.089   5.970   4.239 -0.7127  0.1316  1.4357
  834TIP3   OH223916   3.846   3.739  13.767 -0.0971  0.3165 -0.2952
  834TIP3    H123917   3.939   3.749  13.789 -0.2345 -0.3298  0.6445
  834TIP3    H223918   3.836   3.784  13.683  0.6960  1.9175  0.4349
  835TIP3   OH223919   3.691   6.592   6.074 -0.1568 -0.0024  0.2544
  835TIP3    H123920   3.634   6.579   6.150 -0.0566 -0.1209  0.3104
  835TIP3    H223921   3.747   6.514   6.072  0.0479  0.1429  0.2421
  836TIP3   OH223922   1.174   4.566  15.338  0.1558  0.4667 -0.1957
  836TIP3    H123923   1.192   4.580  15.245  1.4033  1.0444  0.1228
  836TIP3    H223924   1.175   4.653  15.377  0.7201  0.1364  0.5456
  837TIP3   OH223925   1.626   2.585   5.517  0.1920 -0.2767 -0.5793
  837TIP3    H123926   1.688   2.565   5.448  2.3534 -0.8935  1.3900
  837TIP3    H223927   1.677   2.577   5.598 -1.9284  1.4001  1.0506
  838TIP3   OH223928   1.593   2.530   0.636 -0.0329  0.2336 -0.5184
  838TIP3    H123929   1.629   2.461   0.580 -0.0387 -0.3853  0.2195
  838TIP3    H223930   1.631   2.513   0.722 -1.0071  0.3962 -0.0379
  839TIP3   OH223931   5.282   1.335  15.028  0.4858 -0.4866 -0.7900
  839TIP3    H123932   5.229   1.415  15.023  0.6480 -0.0302  2.3452
  839TIP3    H223933   5.224   1.271  15.068  1.6457 -0.5299  0.9418
  840TIP3   OH223934   6.383   0.501   0.248 -0.3808  0.3774  0.4904
  840TIP3    H123935   6.319   0.455   0.194 -0.6394  1.6146 -0.3007
  840TIP3    H223936   6.444   0.540   0.185 -1.0103  2.3242  1.0337
  841TIP3   OH223937   6.295   3.844  15.137  0.2541  0.1638  0.2224
  841TIP3    H123938   6.353   3.846  15.060 -0.3286 -0.7086 -0.2518
  841TIP3    H223939   6.245   3.926  15.131  2.6383  1.8643  1.6309
  842TIP3   OH223940   5.325   6.309  11.814  0.9271  0.9708  0.2526
  842TIP3    H123941   5.239   6.301  11.856  0.5581  1.9088 -0.3000
  842TIP3    H223942   5.360   6.220  11.814 -0.9798  0.1401 -1.4249
  843TIP3   OH223943   4.652   0.281  16.268  0.3257  0.1437 -0.2721
  843TIP3    H123944   4.716   0.293  16.339  0.6423  0.9484 -0.6764
  843TIP3    H223945   4.641   0.369  16.231 -1.5727  0.1622  0.2461
  844TIP3   OH223946   4.944   6.654  11.903  0.0742 -0.0220 -0.1221
  844TIP3    H123947   4.962   6.560  11.913 -0.3429 -0.3114 -1.7778
  844TIP3    H223948   4.998   6.681  11.830 -0.6812  0.7621 -0.4101
  845TIP3   OH223949   1.807   2.740   4.604  0.0644 -0.0207  0.1039
  845TIP3    H123950   1.799   2.654   4.563  0.3767  0.8100 -1.8237
  845TIP3    H223951   1.878   2.731   4.667 -0.7175 -1.4654  0.8204
  846TIP3   OH223952   5.459   1.699   1.405 -0.1852 -0.2647 -0.4152
  846TIP3    H123953   5.549   1.678   1.426 -0.9207 -3.0110  0.3514
  846TIP3    H223954   5.456   1.701   1.309  0.6465 -0.2227 -0.4462
  847TIP3   OH223955   3.177   0.005   4.367  0.4981 -0.5393 -0.0251
  847TIP3    H123956   3.232   0.027   4.442  0.1745 -0.2820  0.1378
  847TIP3    H223957   3.142  -0.082   4.388 -0.6918  0.1114  0.7705
  848TIP3   OH223958   4.670   3.545  14.853 -0.2449 -0.2765 -0.4484
  848TIP3    H123959   4.690   3.635  14.875 -1.0350  0.0299 -0.9245
  848TIP3    H223960   4.584   3.549  14.810 -0.3212 -1.2546 -0.4250
  849TIP3   OH223961   5.353   2.178   2.213 -0.1802  0.2574 -0.0160
  849TIP3    H123962   5.442   2.212   2.196 -0.1539  1.0316  1.4861
  849TIP3    H223963   5.366   2.086   2.233  0.5455  0.7298  1.8994
  850TIP3   OH223964   3.429   4.396   2.306 -0.2387  0.1817  0.2123
  850TIP3    H123965   3.382   4.372   2.386  1.4394 -1.6205  0.7279
  850TIP3    H223966   3.365   4.445   2.254 -2.4822 -1.6276  1.1108
  851TIP3   OH223967   3.909   3.586  15.385  0.1422  0.1729  0.4072
  851TIP3    H123968   3.870   3.614  15.302  0.7172  1.9700  0.6973
  851TIP3    H223969   3.951   3.502  15.365  0.7669  0.8435 -1.2932
  852TIP3   OH223970   3.318   2.729   2.023  0.2024  0.5246  0.3460
  852TIP3    H123971   3.408   2.750   2.046  0.3721 -0.5810  0.7838
  852TIP3    H223972   3.326   2.666   1.952  0.0020 -2.8365  3.0042
  853TIP3   OH223973   4.451   0.565   5.867 -0.3616  0.4096 -0.3096
  853TIP3    H123974   4.395   0.619   5.923 -1.3126 -0.1897 -0.6511
  853TIP3    H223975   4.439   0.476   5.899  2.1093  0.4694  1.0107
  854TIP3   OH223976   4.437   0.109  16.280  0.0703 -0.7859  0.0966
  854TIP3    H123977   4.377   0.183  16.283  0.2138 -0.7016  2.1460
  854TIP3    H223978   4.506   0.130  16.343  1.2706 -1.7224 -0.8418
  855TIP3   OH223979   0.303   5.867  10.253 -0.5405 -0.2423  0.5735
  855TIP3    H123980   0.237   5.933  10.235 -1.5818 -1.7806 -1.6318
  855TIP3    H223981   0.253   5.789  10.277  0.4510 -1.3345 -0.7709
  856TIP3   OH223982   4.309   4.720  15.239 -0.3460 -0.1497  0.0646
  856TIP3    H123983   4.248   4.776  15.288 -0.9384 -1.9617  1.5001
  856TIP3    H223984   4.256   4.645  15.211 -0.2033  0.9921 -3.9854
  857TIP3   OH223985   3.307   4.884  12.725  0.5388  0.0380 -0.0285
  857TIP3    H123986   3.313   4.888  12.821  0.2775 -0.2895  0.0021
  857TIP3    H223987   3.235   4.943  12.703 -0.9319 -1.6160  0.1576
  858TIP3   OH223988   3.430   5.380  13.183 -0.5088 -0.2748  0.0135
  858TIP3    H123989   3.423   5.348  13.273 -0.1759 -0.4685 -0.0303
  858TIP3    H223990   3.470   5.466  13.191  0.6031 -0.7697 -0.0294
  859TIP3   OH223991   6.219   2.912   2.264  0.2919  0.6463 -0.8971
  859TIP3    H123992   6.253   2.999   2.247 -0.9070  0.6901 -3.5848
  859TIP3    H223993   6.124   2.922   2.256 -0.2727 -0.1805  2.7627
  860TIP3   OH223994   2.521   3.771  12.714 -0.1148  0.6549  0.4134
  860TIP3    H123995   2.482   3.692  12.676  0.8147  0.1291  0.5237
  860TIP3    H223996   2.599   3.739  12.760 -1.3442  1.2184  3.0131
  861TIP3   OH223997   5.016   0.584  12.005 -0.1772 -0.1139 -0.4900
  861TIP3    H123998   5.066   0.588  12.087  0.6736  2.0935 -1.0544
  861TIP3    H223999   4.935   0.631  12.024  0.0184  0.3970 -0.8931
  862TIP3   OH224000   4.905   0.850  16.188  0.8098  0.4721 -0.6105
  862TIP3    H124001   4.814   0.839  16.217 -0.0421  1.3316 -2.7681
  862TIP3    H224002   4.931   0.763  16.159  1.2923 -0.1467  1.4597
  863TIP3   OH224003   0.133   3.493  13.198 -0.3053  0.2594 -0.1926
  863TIP3    H124004   0.199   3.486  13.267 -0.1736 -0.3151 -0.3676
  863TIP3    H224005   0.109   3.402  13.179 -1.6815  0.4852  0.3671
  864TIP3   OH224006   3.416   2.384   4.610 -0.0421 -0.0405  0.3234
  864TIP3    H124007   3.361   2.314   4.576 -0.3026  0.2055  0.2313
  864TIP3    H224008   3.501   2.371   4.568  0.1516 -0.7804  0.9263
  865TIP3   OH224009   2.930   5.475  14.419  0.1801  0.0782  0.3716
  865TIP3    H124010   2.911   5.569  14.416 -0.4532 -0.0565  0.0707
  865TIP3    H224011   2.935   5.455  14.513 -0.6657  0.2239  0.4550
  866TIP3   OH224012   2.128   3.197  13.648  0.5762 -0.3700 -0.3887
  866TIP3    H124013   2.114   3.114  13.602 -0.6101 -0.9421  0.8984
  866TIP3    H224014   2.112   3.265  13.583 -1.6889 -1.1343 -0.7268
  867TIP3   OH224015   5.276   6.432   3.377 -0.5303  0.1408  0.1725
  867TIP3    H124016   5.325   6.390   3.306  0.6851 -0.7922  1.5051
  867TIP3    H224017   5.338   6.494   3.415  0.2474 -2.1059  2.8326
  868TIP3   OH224018   2.102   3.860   2.247  0.1824  0.2865  0.1829
  868TIP3    H124019   2.043   3.905   2.187 -0.4588  1.3516  1.5484
  868TIP3    H224020   2.148   3.930   2.293  2.2214 -0.5189 -0.5144
  869TIP3   OH224021   5.486   1.143  13.822 -0.1207 -0.9576 -0.5233
  869TIP3    H124022   5.420   1.208  13.795  1.3836  0.8830  0.0284
  869TIP3    H224023   5.435   1.064  13.839 -1.8616 -0.4315 -2.7248
  870TIP3   OH224024   6.763   6.146  11.901 -0.3184  0.2471 -0.3921
  870TIP3    H124025   6.701   6.181  11.838 -0.3845  0.1576 -0.3779
  870TIP3    H224026   6.849   6.163  11.862 -0.3704 -0.2512 -0.7462
  871TIP3   OH224027   1.603   3.056   0.911  0.1583  0.5853  0.4710
  871TIP3    H124028   1.605   3.067   0.816 -1.2155  1.6479  0.5339
  871TIP3    H224029   1.695   3.048   0.936  0.5530  0.4975 -0.9223
  872TIP3   OH224030   5.248   1.832  11.245 -0.5358 -0.0503  0.3219
  872TIP3    H124031   5.163   1.790  11.262 -1.4541  1.2902 -0.6978
  872TIP3    H224032   5.255   1.900  11.312 -1.4038  1.3730 -0.9699
  873TIP3   OH224033   4.483   5.766   0.588  0.1517 -0.2063 -0.1675
  873TIP3    H124034   4.542   5.811   0.527  2.1549 -0.5817  1.3649
  873TIP3    H224035   4.418   5.832   0.611  2.4841  1.7771  1.3308
  874TIP3   OH224036   0.352   2.371  12.690  0.1875 -0.2202 -0.2505
  874TIP3    H124037   0.375   2.458  12.658  0.1832 -0.8015 -1.9471
  874TIP3    H224038   0.407   2.358  12.767  0.1405  1.2865  0.0629
  875TIP3   OH224039   0.937   4.680   3.831 -0.0584  0.7906  0.2456
  875TIP3    H124040   0.959   4.700   3.740  0.9692 -0.4296  0.1920
  875TIP3    H224041   0.956   4.761   3.878  0.5958  1.0620 -0.4574
  876TIP3   OH224042   1.879   0.479   3.414 -0.2056 -0.0340  0.1334
  876TIP3    H124043   1.830   0.555   3.446  0.2408  0.7132 -0.8637
  876TIP3    H224044   1.970   0.509   3.412  0.0768 -0.8535  0.4229
  877TIP3   OH224045   3.083   1.995  16.852 -0.1700 -0.3027 -0.4948
  877TIP3    H124046   3.012   2.046  16.812 -0.8554 -1.3393 -0.6248
  877TIP3    H224047   3.163   2.041  16.826 -0.7455  0.4446 -0.9871
  878TIP3   OH224048   0.209   0.120   4.929  0.0322 -0.0247 -0.1290
  878TIP3    H124049   0.291   0.164   4.952 -0.0165 -0.5086  1.0265
  878TIP3    H224050   0.167   0.179   4.866  0.9990  0.4960 -0.3097
  879TIP3   OH224051   6.559   2.700  14.237  0.3014  0.6331 -0.1517
  879TIP3    H124052   6.635   2.756  14.250  1.0052 -0.3834  0.3124
  879TIP3    H224053   6.513   2.702  14.321  1.0036 -0.4097  0.2893
  880TIP3   OH224054   4.175   2.008  11.628  0.2971 -0.4713  0.2485
  880TIP3    H124055   4.166   2.009  11.723 -1.6935 -1.0266  0.1087
  880TIP3    H224056   4.176   2.100  11.603 -0.8379 -0.3331  0.6898
  881TIP3   OH224057   6.736   2.031   1.925  0.4784 -0.4421 -0.3854
  881TIP3    H124058   6.811   2.008   1.870  0.8040 -0.0206 -0.1275
  881TIP3    H224059   6.775   2.052   2.010  0.0524 -0.3397 -0.2132
  882TIP3   OH224060   0.446   6.103   2.764  0.0061  0.1958  0.1897
  882TIP3    H124061   0.463   6.063   2.849 -2.4468  1.3572  1.3214
  882TIP3    H224062   0.421   6.030   2.707  0.4506 -0.4282  0.7826
  883TIP3   OH224063   1.088   5.001   3.293  0.0262  0.2658 -0.5694
  883TIP3    H124064   1.158   4.936   3.296 -0.1429  0.0812 -0.6468
  883TIP3    H224065   1.008   4.950   3.285 -0.0674  0.4989 -1.1687
  884TIP3   OH224066   1.017   3.166   1.374 -0.1657 -0.6745  0.2774
  884TIP3    H124067   0.930   3.204   1.357  0.1169  0.3070  0.9078
  884TIP3    H224068   1.041   3.199   1.460  0.9655 -0.6842 -0.0152
  885TIP3   OH224069   1.144   0.980  11.524  0.2536  0.3214 -0.8526
  885TIP3    H124070   1.117   1.066  11.555  1.9625  1.5364 -2.5146
  885TIP3    H224071   1.142   0.924  11.602 -3.0959  1.2000 -0.1499
  886TIP3   OH224072   4.494   1.274   0.827  0.2758  0.0384 -0.0282
  886TIP3    H124073   4.532   1.353   0.789  0.0724  0.2956  0.2969
  886TIP3    H224074   4.556   1.247   0.895  0.0190  0.3078  0.3213
  887TIP3   OH224075   2.846   5.387   4.655  0.1890  0.1589  0.1038
  887TIP3    H124076   2.904   5.391   4.731 -0.4299  3.0485  0.5397
  887TIP3    H224077   2.759   5.400   4.691 -0.1409  1.3445 -1.0716
  888TIP3   OH224078   6.083   5.816   2.784 -0.2296  0.0216 -0.4611
  888TIP3    H124079   5.990   5.831   2.766 -0.0005  1.5591 -0.5016
  888TIP3    H224080   6.092   5.829   2.878 -0.2334 -1.2293 -0.2744
  889TIP3   OH224081   4.850   6.162  13.189 -0.3013 -0.2190 -0.5398
  889TIP3    H124082   4.788   6.234  13.185 -0.1212 -0.0545 -0.3798
  889TIP3    H224083   4.932   6.198  13.155 -0.2605 -0.4015 -0.6402
  890TIP3   OH224084   3.747   1.815  12.021  0.2380  0.1894  0.0789
  890TIP3    H124085   3.779   1.750  12.084 -1.4921  0.4461  1.3071
  890TIP3    H224086   3.676   1.771  11.974 -2.0802  1.5628  2.0546
  891TIP3   OH224087   3.544   0.154  11.419 -0.1556  0.0141  0.0900
  891TIP3    H124088   3.524   0.214  11.491 -2.6245  0.3010 -0.7172
  891TIP3    H224089   3.559   0.070  11.462  2.4310  0.9426  1.1687
  892TIP3   OH224090   3.541   0.540   0.408  0.1280 -0.2129 -0.3447
  892TIP3    H124091   3.559   0.485   0.484  0.0604  0.4155  0.1333
  892TIP3    H224092   3.624   0.584   0.389  0.0474 -0.0841 -0.4039
  893TIP3   OH224093   1.527   3.159   0.194  0.1442  0.0055 -0.0950
  893TIP3    H124094   1.566   3.095   0.253  0.0903  0.1420  0.0877
  893TIP3    H224095   1.598   3.181   0.133 -0.3686 -1.6604 -1.3701
  894TIP3   OH224096   2.447   5.885   6.264 -0.1537  0.2090 -0.8135
  894TIP3    H124097   2.499   5.840   6.197  1.0690  1.0293 -0.4331
  894TIP3    H224098   2.379   5.822   6.287  1.5800 -1.5522 -0.1973
  895TIP3   OH224099   2.157   1.862   4.653 -0.1324  0.0352  0.2733
  895TIP3    H124100   2.142   1.943   4.605  0.0393 -0.9416 -1.5313
  895TIP3    H224101   2.209   1.888   4.729  2.2246  1.3181 -1.6295
  896TIP3   OH224102   5.112   4.840  12.084  0.2526  0.5997 -0.8545
  896TIP3    H124103   5.062   4.918  12.062 -2.7184 -0.2399  2.0384
  896TIP3    H224104   5.124   4.795  12.001 -1.8827  2.0091 -2.0211
  897TIP3   OH224105   5.997   1.505  16.574  0.5687  0.0082 -0.5070
  897TIP3    H124106   6.075   1.450  16.571 -0.2516 -1.1753 -0.8826
  897TIP3    H224107   5.935   1.462  16.514 -0.9153  0.0406  0.9293
  898TIP3   OH224108   2.487   2.469   0.651 -0.7261  0.0876  0.1883
  898TIP3    H124109   2.560   2.516   0.610 -0.2247 -0.8452 -0.0169
  898TIP3    H224110   2.455   2.529   0.719  0.5536  0.3081  0.6160
  899TIP3   OH224111   0.178   2.856  13.009 -0.5241  0.0030 -0.0702
  899TIP3    H124112   0.165   2.774  12.960  0.2872  0.2773 -0.7722
  899TIP3    H224113   0.244   2.903  12.959 -1.4065  1.3662 -0.0076
  900TIP3   OH224114   0.140   6.813  16.317 -0.1797 -0.2743  0.6361
  900TIP3    H124115   0.169   6.820  16.408 -1.6450  1.1474  1.0537
  900TIP3    H224116   0.151   6.901  16.281  1.7600 -1.1241 -1.0654
  901TIP3   OH224117   2.959   5.939  15.397  1.0644  0.2689 -0.2606
  901TIP3    H124118   3.039   5.952  15.447  0.1298  1.7910  0.9152
  901TIP3    H224119   2.984   5.880  15.326  2.5272 -1.7338  1.7839
  902TIP3   OH224120   2.806   4.498  13.862  0.7675 -0.1275  0.5389
  902TIP3    H124121   2.820   4.422  13.805  1.3309  0.3032  0.0944
  902TIP3    H224122   2.715   4.524  13.844  1.7244  1.6811 -2.2906
  903TIP3   OH224123   2.858   2.335   0.787 -0.3142  0.1605 -0.8984
  903TIP3    H124124   2.851   2.411   0.729  0.4068  0.6463 -0.3709
  903TIP3    H224125   2.778   2.285   0.771 -2.0441  2.2713  0.4791
  904TIP3   OH224126   2.831   5.815  10.453  0.0883  0.4536  0.3091
  904TIP3    H124127   2.817   5.855  10.367 -2.0856  1.7529  1.1688
  904TIP3    H224128   2.860   5.888  10.508 -0.4808  0.0862  1.1072
  905TIP3   OH224129   5.343   3.740  13.932 -0.3803  0.0742  0.9375
  905TIP3    H124130   5.318   3.832  13.940 -2.0329 -0.1783 -0.5936
  905TIP3    H224131   5.261   3.692  13.937  0.1564 -1.1147 -0.7308
  906TIP3   OH224132   5.824   6.478  11.094  0.0392 -0.2033 -0.0565
  906TIP3    H124133   5.782   6.521  11.168 -1.6778 -1.5058 -0.2087
  906TIP3    H224134   5.850   6.392  11.127  1.0900 -0.0597 -0.4497
  907TIP3   OH224135   1.112   1.863  15.605  0.5635  0.3906  0.3421
  907TIP3    H124136   1.069   1.925  15.547 -2.3791 -0.0068  1.9346
  907TIP3    H224137   1.125   1.910  15.687  0.1112 -0.4673  0.9279
  908TIP3   OH224138   4.520   1.657  12.596  0.0858 -0.2950  0.1567
  908TIP3    H124139   4.447   1.597  12.578 -0.0794 -0.4401  1.2689
  908TIP3    H224140   4.508   1.684  12.687  1.3138 -0.1689  0.3028
  909TIP3   OH224141   3.904   1.928  14.670 -0.1556  0.3796 -0.0642
  909TIP3    H124142   3.902   2.023  14.661  1.7575  0.4064 -0.5832
  909TIP3    H224143   3.922   1.896  14.582 -1.7198 -0.5597 -0.0907
  910TIP3   OH224144   5.613   6.662  14.855 -0.1719  0.0592 -0.4043
  910TIP3    H124145   5.596   6.754  14.836 -0.1329  0.6084  1.9422
  910TIP3    H224146   5.698   6.645  14.815  0.9538  1.7680  1.0983
  911TIP3   OH224147   5.591   5.281   1.683 -0.5345  0.3972 -0.4334
  911TIP3    H124148   5.566   5.285   1.775 -2.8311  3.4574 -1.0345
  911TIP3    H224149   5.663   5.343   1.674 -0.8510  0.7207 -0.8021
  912TIP3   OH224150   6.543   3.479   0.345  0.5971 -0.2567  0.0394
  912TIP3    H124151   6.628   3.521   0.334 -0.0903  1.5061  1.1248
  912TIP3    H224152   6.481   3.551   0.351 -1.1125 -1.5047 -1.4377
  913TIP3   OH224153   6.042   4.507  14.116 -0.0629  0.0854 -0.2597
  913TIP3    H124154   6.023   4.467  14.200 -0.3807 -0.0159 -0.3777
  913TIP3    H224155   6.020   4.600  14.128  0.9907  0.2922  0.1124
  914TIP3   OH224156   0.022   0.347   1.414 -0.1352  0.0771  0.3102
  914TIP3    H124157  -0.028   0.272   1.382 -0.3903  0.5905 -0.5514
  914TIP3    H224158   0.085   0.365   1.343 -0.5508  1.1057  0.1865
  915TIP3   OH224159   1.638   6.761  16.747 -0.5670 -0.2933 -0.1989
  915TIP3    H124160   1.710   6.738  16.806 -0.4526 -2.1830 -1.0162
  915TIP3    H224161   1.627   6.856  16.759 -0.3541 -0.5424  2.6063
  916TIP3   OH224162   4.568   3.306  14.514  0.1079 -0.5769 -0.1944
  916TIP3    H124163   4.523   3.340  14.591 -0.3266 -0.5455 -0.4561
  916TIP3    H224164   4.640   3.367  14.500 -0.3750 -0.0314 -0.3680
  917TIP3   OH224165   6.514   0.352  16.688 -0.3454 -0.6707  0.4825
  917TIP3    H124166   6.452   0.423  16.703 -0.1338 -0.7347  1.7217
  917TIP3    H224167   6.469   0.293  16.626  0.1590  1.3672 -1.9982
  918TIP3   OH224168   6.218   5.039   5.004  0.4645 -0.6272 -0.9851
  918TIP3    H124169   6.309   5.049   4.976  0.6706 -0.3742 -0.2570
  918TIP3    H224170   6.170   5.016   4.924  0.9650  0.4375 -1.6027
  919TIP3   OH224171   5.901   6.633   4.773  0.2874  0.0892 -0.0302
  919TIP3    H124172   5.907   6.683   4.691  0.3816 -2.3903 -1.6474
  919TIP3    H224173   5.909   6.699   4.842  0.3501  2.2743 -1.9982
  920TIP3   OH224174   3.620   2.160   1.375 -0.2530 -0.1594  0.1789
  920TIP3    H124175   3.687   2.124   1.317 -0.9059 -1.7954  0.3915
  920TIP3    H224176   3.652   2.248   1.396 -0.2086  0.7104 -2.9939
  921TIP3   OH224177   1.940   1.662   1.790  0.6638  0.0653 -0.4176
  921TIP3    H124178   2.002   1.589   1.793  0.3521 -0.1686  0.3941
  921TIP3    H224179   1.994   1.740   1.803  1.1070  0.0742 -1.9883
  922TIP3   OH224180   2.721   6.073  15.487  0.4011 -0.2004 -0.5973
  922TIP3    H124181   2.734   6.081  15.581 -0.6390 -2.9436 -0.1239
  922TIP3    H224182   2.809   6.062  15.451  0.7301 -0.1073  0.1709
  923TIP3   OH224183   5.320   3.056   5.588 -0.2190 -0.2602  0.7546
  923TIP3    H124184   5.327   3.125   5.654 -0.5456  0.1106  0.4004
  923TIP3    H224185   5.226   3.039   5.580 -0.2945  0.6175 -0.5607
  924TIP3   OH224186   6.021   4.771   5.561  0.3333 -0.5181  0.3532
  924TIP3    H124187   6.010   4.862   5.532  0.0968 -0.4811  0.5553
  924TIP3    H224188   6.040   4.723   5.480 -1.3221 -0.5845 -0.0331
  925TIP3   OH224189   3.095   3.539   3.571  0.1484 -0.3773  0.1076
  925TIP3    H124190   3.090   3.634   3.562  0.4487 -0.4265 -0.7292
  925TIP3    H224191   3.076   3.506   3.483 -1.3647 -1.1584  0.7012
  926TIP3   OH224192   3.707   0.823   0.999 -0.4062  0.0559  0.4980
  926TIP3    H124193   3.693   0.756   0.933  0.4180  0.7939 -0.4643
  926TIP3    H224194   3.753   0.893   0.953 -0.8746  1.1094  1.5738
  927TIP3   OH224195   4.320   2.463   3.713 -0.3118 -0.1614  0.0063
  927TIP3    H124196   4.246   2.437   3.658  0.1000  0.2629 -0.7601
  927TIP3    H224197   4.289   2.539   3.761 -0.0941  0.5490 -0.9595
  928TIP3   OH224198   3.031   0.568  14.891 -0.2207 -0.4095  0.6322
  928TIP3    H124199   3.109   0.620  14.873  0.8534 -2.5234 -1.2748
  928TIP3    H224200   3.061   0.501  14.953 -1.3711  0.6086  2.3859
  929TIP3   OH224201   1.663   5.883  14.661 -0.7155 -0.1606 -0.0288
  929TIP3    H124202   1.598   5.948  14.633 -0.4449 -0.2474 -0.9207
  929TIP3    H224203   1.642   5.864  14.752 -2.5474 -0.9201 -0.5725
  930TIP3   OH224204   6.087   5.804   6.522  0.5157 -0.2708  0.2914
  930TIP3    H124205   6.114   5.893   6.498  0.1126 -0.7782 -2.3046
  930TIP3    H224206   6.071   5.760   6.438  0.5027 -2.7469  1.5023
  931TIP3   OH224207   4.520   4.485  11.681 -0.2182 -0.4251  0.2819
  931TIP3    H124208   4.541   4.401  11.641  0.7600  0.7765 -1.9394
  931TIP3    H224209   4.604   4.519  11.712 -0.1759  0.7005 -0.9578
  932TIP3   OH224210   5.994   0.994   2.000 -0.5116  0.2417 -0.5074
  932TIP3    H124211   6.022   0.974   1.910  0.5361  1.5083 -0.5014
  932TIP3    H224212   5.925   1.059   1.989 -0.3603  0.4207 -0.4071
  933TIP3   OH224213   2.126   3.826   5.321  0.2828  0.5382  0.1812
  933TIP3    H124214   2.050   3.772   5.301  1.2582 -1.3875  1.4655
  933TIP3    H224215   2.168   3.840   5.236 -0.3998 -0.0794 -0.2686
  934TIP3   OH224216   1.654   0.997  14.684  0.2599  0.0163 -0.1662
  934TIP3    H124217   1.693   1.084  14.690  1.2438 -0.4952  2.3141
  934TIP3    H224218   1.564   1.009  14.714 -0.4668  0.5768 -2.4073
  935TIP3   OH224219   2.692   3.053  16.606 -0.0139 -0.3115 -0.1533
  935TIP3    H124220   2.767   3.027  16.552  1.4142  1.6635  0.7784
  935TIP3    H224221   2.655   3.128  16.561  0.9243  1.0810  1.3153
  936TIP3   OH224222   4.041   5.150  12.196 -0.4182 -0.4394 -0.9106
  936TIP3    H124223   4.049   5.233  12.242  1.0541 -0.6084 -0.8116
  936TIP3    H224224   3.951   5.149  12.163 -1.0488  0.3185  0.7112
  937TIP3   OH224225   5.495   6.403  13.191 -0.2687  0.1466 -0.1571
  937TIP3    H124226   5.523   6.436  13.106 -0.1495  0.0447 -0.1578
  937TIP3    H224227   5.405   6.436  13.201  0.3641  1.7467  0.5208
  938TIP3   OH224228   5.983   4.333   4.990  0.2918 -0.2032  0.1475
  938TIP3    H124229   5.932   4.283   5.054  1.3955 -1.5779 -0.0101
  938TIP3    H224230   5.971   4.286   4.908 -1.3650  1.7232 -0.8144
  939TIP3   OH224231   3.960   3.800   2.860  0.4787 -0.1806  0.1971
  939TIP3    H124232   3.895   3.730   2.868  1.7762 -1.6533 -1.3613
  939TIP3    H224233   3.975   3.830   2.950 -1.0427 -1.0113  0.7597
  940TIP3   OH224234   2.095   1.550  13.037 -0.2256 -0.5297  0.4384
  940TIP3    H124235   2.127   1.578  12.951 -1.0525 -1.0009 -0.0355
  940TIP3    H224236   2.000   1.553  13.029 -0.3608  1.1675  1.9217
  941TIP3   OH224237   6.300   1.879   2.776 -0.1042 -0.0779 -0.1143
  941TIP3    H124238   6.279   1.969   2.748  0.2304  1.0474  2.8926
  941TIP3    H224239   6.216   1.840   2.796 -0.1301  0.2898  0.5161
  942TIP3   OH224240   6.210   2.728  11.267 -0.0796 -0.0241 -0.2966
  942TIP3    H124241   6.183   2.765  11.182 -0.4317 -0.7685 -0.5117
  942TIP3    H224242   6.136   2.675  11.295 -0.1814  0.6341  0.7505
  943TIP3   OH224243   3.705   6.024  10.525  0.1092 -0.3554 -0.2590
  943TIP3    H124244   3.679   6.113  10.549  2.3170  0.0848  0.7932
  943TIP3    H224245   3.634   5.968  10.559 -0.1640  0.8251  1.2447
  944TIP3   OH224246   5.118   4.296   4.434 -0.1982  0.0202 -0.6598
  944TIP3    H124247   5.069   4.367   4.475  1.8152  1.1117  0.0096
  944TIP3    H224248   5.155   4.335   4.355  0.8489 -0.2879 -0.3397
  945TIP3   OH224249   5.442   0.054   1.675 -0.0176 -0.1979  0.1237
  945TIP3    H124250   5.537   0.068   1.681  0.1730 -0.4059 -1.9218
  945TIP3    H224251   5.405   0.117   1.737  1.2901  2.7985 -1.9278
  946TIP3   OH224252   6.471   5.438   5.033 -0.3234  0.8222  0.1748
  946TIP3    H124253   6.412   5.381   4.983 -2.3454  1.4322  1.7757
  946TIP3    H224254   6.493   5.509   4.972 -0.8447  0.3468 -0.5830
  947TIP3   OH224255   3.053   4.724   2.105  0.2196 -0.2651 -0.0512
  947TIP3    H124256   3.045   4.818   2.092 -0.6444 -0.4156 -0.7651
  947TIP3    H224257   2.967   4.689   2.081  0.1299 -1.1174  1.4243
  948TIP3   OH224258   5.060   6.441  12.935 -0.4626  0.0220  0.1694
  948TIP3    H124259   5.094   6.401  12.855  1.1470  0.3418  0.6625
  948TIP3    H224260   5.090   6.384  13.006  1.9223  1.9890  0.8922
  949TIP3   OH224261   4.028   0.208  11.560 -0.2536  0.0030 -0.7012
  949TIP3    H124262   4.079   0.130  11.579  0.2725  0.3582 -0.6199
  949TIP3    H224263   3.949   0.199  11.613 -0.6516 -0.9264 -1.4188
  950TIP3   OH224264   2.900   5.213   6.095  0.0272  0.0655  0.9252
  950TIP3    H124265   2.889   5.281   6.161 -2.8650  0.4125  0.2155
  950TIP3    H224266   2.851   5.138   6.128  2.3099 -1.3885  1.2099
  951TIP3   OH224267   0.701   3.724  15.719 -0.3275 -0.7025  0.1708
  951TIP3    H124268   0.738   3.775  15.791  0.2995 -1.0537  0.1085
  951TIP3    H224269   0.768   3.658  15.699 -0.9353 -1.2768 -0.0340
  952TIP3   OH224270   4.807   3.538   2.680 -0.6189  0.2690 -0.2352
  952TIP3    H124271   4.892   3.499   2.660 -0.0773 -0.6092  3.1596
  952TIP3    H224272   4.751   3.465   2.704 -1.2837  1.1127  0.8991
  953TIP3   OH224273   1.080   1.245   6.348  0.5571  0.1267  0.3417
  953TIP3    H124274   1.089   1.223   6.441 -0.2631 -2.3645 -0.1094
  953TIP3    H224275   1.001   1.299   6.344  0.8412  0.6304  1.1169
  954TIP3   OH224276   5.745   4.478   1.856  0.7577 -0.2704  0.2750
  954TIP3    H124277   5.715   4.515   1.939  1.2803 -0.5159  0.5766
  954TIP3    H224278   5.747   4.384   1.871  1.0381 -0.3008  0.0430
  955TIP3   OH224279   6.753   2.779  14.456 -0.6665  0.1370 -0.2057
  955TIP3    H124280   6.780   2.810  14.543  0.4942  0.7563 -0.7499
  955TIP3    H224281   6.675   2.830  14.436 -0.3696  0.7116  0.0684
  956TIP3   OH224282   4.905   3.074   4.527 -0.4600  0.1752  0.4155
  956TIP3    H124283   4.963   3.118   4.466  1.2071 -1.9613  0.3304
  956TIP3    H224284   4.823   3.062   4.479  0.1370  0.3541 -0.6708
  957TIP3   OH224285   5.019   2.008   1.973  0.8932  0.0321  0.4603
  957TIP3    H124286   4.970   2.034   2.050 -2.1556 -0.9629 -0.9478
  957TIP3    H224287   4.987   1.919   1.954  1.7219  0.1452 -1.7580
  958TIP3   OH224288   3.401   3.368   1.495 -0.1690 -0.4730  0.1013
  958TIP3    H124289   3.306   3.357   1.486 -0.1638 -0.8558  0.4834
  958TIP3    H224290   3.417   3.364   1.590  0.2155 -0.2687  0.0496
  959TIP3   OH224291   6.668   2.089  11.449  0.6082  0.5456  0.2762
  959TIP3    H124292   6.582   2.063  11.414  1.0430  0.0188 -0.4351
  959TIP3    H224293   6.696   2.161  11.392  0.7068  0.6202  0.4187
  960TIP3   OH224294   3.535   6.490   5.039  0.7765  0.2262  0.3328
  960TIP3    H124295   3.529   6.522   4.949  1.6902  0.9331  0.5068
  960TIP3    H224296   3.514   6.566   5.093 -3.1833 -0.9494  0.7764
  961TIP3   OH224297   2.009   3.135   1.943 -0.1424 -0.2839 -0.1086
  961TIP3    H124298   1.961   3.071   1.994 -0.0629 -0.0516  0.2610
  961TIP3    H224299   2.039   3.200   2.007  3.4473 -2.0538  0.2812
  962TIP3   OH224300   5.706   5.609  14.400  0.1728 -0.4718  0.0435
  962TIP3    H124301   5.773   5.677  14.406  0.1945 -0.5284  0.4535
  962TIP3    H224302   5.749   5.530  14.430 -0.4752 -0.2285  1.6858
  963TIP3   OH224303   1.380   0.432   4.463 -0.1620  0.5237 -0.4076
  963TIP3    H124304   1.425   0.424   4.547  0.2036  1.3802 -0.5150
  963TIP3    H224305   1.436   0.385   4.401 -0.5788 -0.3594 -0.1301
  964TIP3   OH224306   5.432   1.754  14.420  0.6529 -0.5032 -0.1926
  964TIP3    H124307   5.515   1.706  14.422 -0.2958 -2.2094  0.1524
  964TIP3    H224308   5.376   1.703  14.361 -0.5101  0.0173  0.4192
  965TIP3   OH224309   3.778   3.862  13.507 -0.0813 -0.2509  0.1634
  965TIP3    H124310   3.836   3.880  13.432  0.4206 -0.5710  0.4677
  965TIP3    H224311   3.701   3.821  13.468 -0.2245  0.4172 -0.2764
  966TIP3   OH224312   0.117   4.235  15.399 -0.2745 -0.1444 -0.7948
  966TIP3    H124313   0.167   4.284  15.463 -2.2076  0.0467  0.6411
  966TIP3    H224314   0.154   4.262  15.314  0.8025  1.3566  0.1038
  967TIP3   OH224315   2.657   2.259  15.707 -0.0516 -0.0166  0.0777
  967TIP3    H124316   2.733   2.303  15.746  0.3250  0.7422 -1.4243
  967TIP3    H224317   2.683   2.244  15.616 -1.0603 -1.3240 -0.0218
  968TIP3   OH224318   1.316   4.616  13.766 -0.0758  0.4793  0.1197
  968TIP3    H124319   1.225   4.594  13.750 -0.2313  1.7745 -0.8004
  968TIP3    H224320   1.340   4.678  13.697  1.5475  0.0486  0.2442
  969TIP3   OH224321   0.050   0.735  17.049  0.1958  0.4564 -0.2279
  969TIP3    H124322  -0.008   0.810  17.066 -0.9465 -0.5402  0.4302
  969TIP3    H224323   0.115   0.739  17.119  0.7177  1.3542 -0.7386
  970TIP3   OH224324   6.127   0.969   1.764  0.2809  0.2143  0.3636
  970TIP3    H124325   6.087   0.900   1.711 -0.0340  0.7513 -0.1111
  970TIP3    H224326   6.089   1.050   1.729  3.1611  0.9318 -1.4133
  971TIP3   OH224327   0.234   5.503  13.664 -0.4294 -0.2533 -0.5171
  971TIP3    H124328   0.172   5.433  13.644  0.1483 -0.6446 -0.9767
  971TIP3    H224329   0.307   5.458  13.708 -0.0424  0.0465 -0.8376
  972TIP3   OH224330   5.448   3.243  17.023 -0.1465 -0.0045 -0.3005
  972TIP3    H124331   5.513   3.282  17.082  0.4651 -0.7325 -0.4699
  972TIP3    H224332   5.431   3.310  16.957  1.3710 -0.2288 -0.9675
  973TIP3   OH224333   0.543   5.323  15.960 -0.3567  0.4044 -0.3189
  973TIP3    H124334   0.461   5.316  15.911  1.1040  0.6577 -2.9590
  973TIP3    H224335   0.582   5.405  15.931  0.4881  0.6906  1.5053
  974TIP3   OH224336   2.354   0.021   3.766  0.0004 -0.0188  0.0059
  974TIP3    H124337   2.425  -0.026   3.808  0.7506 -0.4575 -1.6511
  974TIP3    H224338   2.395   0.067   3.692 -1.4236 -0.4667 -1.1261
  975TIP3   OH224339   6.477   6.585  16.357 -0.5428 -0.1583  0.2776
  975TIP3    H124340   6.538   6.645  16.315 -0.4815 -1.1390 -1.1050
  975TIP3    H224341   6.533   6.521  16.401 -0.5878 -0.0985  0.4210
  976TIP3   OH224342   3.464   1.259   1.453  0.1171 -0.2461  0.1377
  976TIP3    H124343   3.472   1.353   1.443  0.8523 -0.3043  0.1625
  976TIP3    H224344   3.548   1.231   1.489 -0.1765 -0.8791  0.3456
  977TIP3   OH224345   4.366   2.324  14.963  0.1173  0.2600  0.4139
  977TIP3    H124346   4.387   2.318  14.870  0.1286 -1.3045  0.4905
  977TIP3    H224347   4.275   2.355  14.964 -0.2556 -0.7271 -0.1865
  978TIP3   OH224348   0.281   3.170   3.109  0.6319 -0.3177 -0.5980
  978TIP3    H124349   0.215   3.107   3.081 -1.5277  1.3025  0.5189
  978TIP3    H224350   0.288   3.232   3.036 -1.1750  1.0159  0.2856
  979TIP3   OH224351   4.404   4.657  14.571 -0.0811 -0.0000  0.0471
  979TIP3    H124352   4.337   4.636  14.636 -0.9351 -1.2477 -1.1721
  979TIP3    H224353   4.487   4.634  14.614 -0.5199  0.3665  1.1229
  980TIP3   OH224354   6.811   3.606   3.425  0.7887 -0.7065  0.1650
  980TIP3    H124355   6.861   3.687   3.439 -0.3697 -0.2121  1.6279
  980TIP3    H224356   6.857   3.562   3.353  0.6955  1.8557 -1.5858
  981TIP3   OH224357   2.689   2.714   5.430 -0.4256  0.8010  0.5119
  981TIP3    H124358   2.784   2.714   5.437 -0.4589  1.6169  1.1636
  981TIP3    H224359   2.670   2.777   5.361 -0.4192 -1.3206 -1.5434
  982TIP3   OH224360   5.540   5.591   4.001  0.1220  0.4282 -0.2953
  982TIP3    H124361   5.533   5.499   3.977  4.8887 -0.3946  0.3845
  982TIP3    H224362   5.532   5.592   4.097 -2.0124  1.1609 -0.4220
  983TIP3   OH224363   2.907   4.651   1.752  0.1809 -0.1935 -0.2385
  983TIP3    H124364   2.866   4.600   1.682  0.7642 -1.3209  0.2170
  983TIP3    H224365   2.978   4.698   1.709 -1.1260  1.2750 -0.9115
  984TIP3   OH224366   3.400   4.137   4.497  1.2104 -0.3653  0.0781
  984TIP3    H124367   3.410   4.140   4.592  0.3247 -0.5172  0.1874
  984TIP3    H224368   3.448   4.214   4.465  0.2129  0.5832  0.7846
  985TIP3   OH224369   5.278   5.033   4.626  0.1723  0.0445  0.2759
  985TIP3    H124370   5.222   5.073   4.693  1.3708 -0.5076  1.6549
  985TIP3    H224371   5.364   5.072   4.640  0.6255 -0.6730 -0.4342
  986TIP3   OH224372   6.230   1.093   2.126  0.1860  0.0107  0.0914
  986TIP3    H124373   6.146   1.060   2.094  0.0056  0.0625  0.5095
  986TIP3    H224374   6.268   1.138   2.051  0.1957 -0.6849 -0.3270
  987TIP3   OH224375   5.804   4.359  15.469 -0.0991 -0.2790  0.5452
  987TIP3    H124376   5.866   4.360  15.543 -0.1878  1.3088  0.6509
  987TIP3    H224377   5.718   4.365  15.511 -0.2887 -1.5169  0.3630
  988TIP3   OH224378   4.310   3.748  11.264  0.1284  0.5847 -0.0412
  988TIP3    H124379   4.381   3.702  11.307 -0.9546  0.0890  1.2673
  988TIP3    H224380   4.285   3.692  11.191  1.0232  0.7518 -0.5009
  989TIP3   OH224381   5.435   5.633  16.455  0.6984  0.0329  0.0922
  989TIP3    H124382   5.355   5.676  16.486  0.1325 -1.6257  1.0750
  989TIP3    H224383   5.504   5.669  16.509  0.0284 -1.2432  1.8832
  990TIP3   OH224384   0.496   4.676  14.983 -0.0282  0.3665  0.0437
  990TIP3    H124385   0.459   4.744  15.039  1.3503 -0.1517  1.6812
  990TIP3    H224386   0.577   4.714  14.949  0.6706 -0.3693  0.8457
  991TIP3   OH224387   6.308   3.304  13.618  0.1146 -0.2625  0.4518
  991TIP3    H124388   6.216   3.280  13.626 -0.1804  1.0721  1.4234
  991TIP3    H224389   6.354   3.220  13.613 -1.0544 -0.9856  1.2841
  992TIP3   OH224390   3.740   6.181  15.088 -0.0759  0.4627  0.3096
  992TIP3    H124391   3.776   6.224  15.165  0.8709  2.5760 -1.2013
  992TIP3    H224392   3.794   6.213  15.015 -2.0802  0.0882 -1.4679
  993TIP3   OH224393   0.364   2.157  15.475 -0.3042 -0.2474  0.1543
  993TIP3    H124394   0.290   2.154  15.535 -0.9237  0.0617 -0.5727
  993TIP3    H224395   0.437   2.191  15.527 -0.5096 -1.1158  1.0352
  994TIP3   OH224396   1.616   1.640  11.034  0.2589 -0.4310 -0.1081
  994TIP3    H124397   1.539   1.626  10.980 -0.2191 -3.3155  1.1339
  994TIP3    H224398   1.582   1.656  11.122  1.0792  1.3571 -0.0582
  995TIP3   OH224399   3.137   1.346   4.656 -0.7996  0.0630  0.5200
  995TIP3    H124400   3.097   1.263   4.629  0.7849 -0.5706  0.0057
  995TIP3    H224401   3.066   1.410   4.648 -1.6984 -0.9975 -0.3859
  996TIP3   OH224402   1.660   0.244  16.735  0.2284 -0.9972  0.5586
  996TIP3    H124403   1.599   0.317  16.738  0.6909 -0.5647 -0.1799
  996TIP3    H224404   1.662   0.210  16.824  0.4966  0.3034  1.0696
  997TIP3   OH224405   0.037   2.633  10.770  0.0645  0.6059  0.8213
  997TIP3    H124406   0.082   2.596  10.695  0.0347  2.4413 -0.1595
  997TIP3    H224407   0.075   2.587  10.846  1.0996 -0.2866 -0.2012
  998TIP3   OH224408   3.689   2.925   5.593 -0.0787  0.2565 -0.2567
  998TIP3    H124409   3.743   2.981   5.538 -1.3793  0.3655 -1.4924
  998TIP3    H224410   3.739   2.844   5.602  0.7282  0.7154 -0.5036
  999TIP3   OH224411   1.622   1.333  13.746  0.4163 -0.0262 -0.1947
  999TIP3    H124412   1.616   1.344  13.651  1.4314  0.4434 -0.2278
  999TIP3    H224413   1.699   1.278  13.758 -0.5660 -1.3266  0.3105
 1000TIP3   OH224414   1.470   2.667  11.496  0.1937 -0.3150 -0.4477
 1000TIP3    H124415   1.543   2.616  11.531  0.2402  0.5187  0.7508
 1000TIP3    H224416   1.482   2.754  11.534 -1.7794 -0.3260  0.3416
 1001TIP3   OH224417   3.184   1.618  14.852  0.4822 -0.3775 -0.2304
 1001TIP3    H124418   3.139   1.535  14.837 -0.1279  0.1901 -1.6546
 1001TIP3    H224419   3.119   1.674  14.895  0.8081 -0.5363  0.4844
 1002TIP3   OH224420   5.711   1.813   2.180  0.0469 -0.1663  0.0283
 1002TIP3    H124421   5.635   1.775   2.224 -0.3516 -0.2200 -0.6998
 1002TIP3    H224422   5.732   1.890   2.232  0.2197 -0.7932  0.9121
 1003TIP3   OH224423   4.033   4.726   5.543 -0.0427  0.3305  0.3552
 1003TIP3    H124424   4.041   4.809   5.588 -0.4871  1.5653 -1.7165
 1003TIP3    H224425   4.122   4.707   5.512 -0.3301  1.1926 -1.0610
 1004TIP3   OH224426   0.604   6.063   0.066  0.0272 -0.2133 -0.4110
 1004TIP3    H124427   0.591   5.988   0.124  1.3073  0.9204  1.4571
 1004TIP3    H224428   0.687   6.044   0.022 -0.5570 -0.7072 -1.3330
 1005TIP3   OH224429   3.846   4.241  13.899  0.3171 -0.2515  0.2819
 1005TIP3    H124430   3.835   4.196  13.815  1.8804 -0.4797  0.1616
 1005TIP3    H224431   3.811   4.328  13.885  0.6777 -0.2488 -0.6658
 1006TIP3   OH224432   2.014   3.873   0.488  0.7338  0.0967  0.7861
 1006TIP3    H124433   2.006   3.793   0.435 -2.0583  1.5558 -1.2905
 1006TIP3    H224434   1.977   3.849   0.573 -0.8122 -0.6471 -0.0606
 1007TIP3   OH224435   5.622   4.632   5.607  0.2452  1.0859 -0.0249
 1007TIP3    H124436   5.669   4.693   5.664  1.2672 -0.1374  0.4969
 1007TIP3    H224437   5.559   4.589   5.665 -0.9381  2.0776 -0.5307
 1008TIP3   OH224438   5.998   3.586  12.387  0.5655 -0.0694  0.2517
 1008TIP3    H124439   5.942   3.537  12.327  0.1435  0.2876  0.3465
 1008TIP3    H224440   6.034   3.657  12.335  0.2310  0.2171  0.4094
 1009TIP3   OH224441   6.353   3.504   2.437 -0.0277 -0.1808  0.6075
 1009TIP3    H124442   6.303   3.476   2.513  1.2805 -0.1243  1.5279
 1009TIP3    H224443   6.444   3.506   2.467  0.4630  0.3941 -0.7962
 1010TIP3   OH224444   2.345   1.818  10.713  0.2357 -0.3282 -0.2933
 1010TIP3    H124445   2.411   1.751  10.731  0.3215 -0.0486  0.4677
 1010TIP3    H224446   2.296   1.784  10.638 -1.0721 -2.2387  1.3287
 1011TIP3   OH224447   3.472   2.254  12.264 -0.0405 -0.3301 -0.3793
 1011TIP3    H124448   3.439   2.272  12.352  1.2738 -2.7245  0.7245
 1011TIP3    H224449   3.560   2.293  12.263  0.0428 -0.5171 -0.5151
 1012TIP3   OH224450   2.073   5.585   0.392  0.0146 -0.7174 -0.6125
 1012TIP3    H124451   2.068   5.662   0.335  0.2079 -1.1821 -1.2713
 1012TIP3    H224452   2.167   5.572   0.406 -0.0582  0.1049  0.8169
 1013TIP3   OH224453   6.027   2.631  11.727 -0.3658 -0.2265 -0.1594
 1013TIP3    H124454   5.986   2.554  11.687  1.4980 -0.8426 -0.9878
 1013TIP3    H224455   6.041   2.605  11.818 -0.2948 -0.6364 -0.2864
 1014TIP3   OH224456   3.979   0.590  17.095  0.2057  0.5869  0.2353
 1014TIP3    H124457   4.029   0.596  17.176 -1.8475  1.6428  1.5046
 1014TIP3    H224458   3.992   0.675  17.053 -0.4389  0.8386  0.5360
 1015TIP3   OH224459   6.311   0.049  13.175 -0.4492  1.4422  0.7696
 1015TIP3    H124460   6.244  -0.004  13.132 -0.5400  2.0573  0.1378
 1015TIP3    H224461   6.388  -0.009  13.179  0.3850  2.1080 -2.5235
 1016TIP3   OH224462   4.446   4.183   0.499 -0.1357  0.2733  0.6649
 1016TIP3    H124463   4.494   4.264   0.478 -0.3948  0.6088  1.3301
 1016TIP3    H224464   4.363   4.192   0.452  1.0124 -1.0464 -1.8475
 1017TIP3   OH224465   5.309   1.627   4.352  0.4057  0.1112  0.2241
 1017TIP3    H124466   5.395   1.612   4.314  0.3777 -0.2009  0.2826
 1017TIP3    H224467   5.252   1.645   4.277  0.4265 -0.1420  0.1472
 1018TIP3   OH224468   5.176   2.327  13.129  0.3808 -0.1459  0.0963
 1018TIP3    H124469   5.185   2.382  13.051 -0.1955 -0.1073  0.0559
 1018TIP3    H224470   5.191   2.387  13.202  0.4801 -0.0917  0.0336
 1019TIP3   OH224471   6.732   0.703   2.486  0.0077 -0.0816 -0.2664
 1019TIP3    H124472   6.664   0.697   2.420 -0.2196  0.6291 -0.1097
 1019TIP3    H224473   6.757   0.796   2.487  2.3470 -0.6097 -1.6643
 1020TIP3   OH224474   4.023   2.539  12.826  0.6964 -0.1579 -0.0830
 1020TIP3    H124475   4.000   2.509  12.738  1.4446 -1.1197  0.0387
 1020TIP3    H224476   4.065   2.624  12.812  0.9553 -0.3795 -0.6624
 1021TIP3   OH224477   1.509   1.099   1.328 -0.0086  0.0034 -0.0689
 1021TIP3    H124478   1.472   1.126   1.412  0.2656 -0.2299  0.1301
 1021TIP3    H224479   1.469   1.157   1.264  0.3366  0.6740  0.3146
 1022TIP3   OH224480   6.465   1.011  11.978  0.7848  0.0812  0.1905
 1022TIP3    H124481   6.509   1.049  11.902 -1.5852 -1.4289 -2.1425
 1022TIP3    H224482   6.532   0.960  12.022  1.7610 -1.1522 -2.4842
 1023TIP3   OH224483   6.099   5.455  14.447 -0.4127 -0.3506  0.2793
 1023TIP3    H124484   6.079   5.511  14.372 -0.7831 -3.2917 -1.9913
 1023TIP3    H224485   6.193   5.467  14.462 -0.5194  0.9762  0.0015
 1024TIP3   OH224486   2.015   5.555  16.524 -0.0444  1.0531  0.4088
 1024TIP3    H124487   2.011   5.649  16.509 -2.3765  1.0844  0.7639
 1024TIP3    H224488   2.051   5.519  16.443  0.1474  2.1981 -0.0251
 1025TIP3   OH224489   3.426   2.837  11.018  0.4166  0.5979  0.2912
 1025TIP3    H124490   3.400   2.825  10.927 -1.2876  1.4144  0.6295
 1025TIP3    H224491   3.382   2.766  11.065  2.9391 -1.1038  0.2824
 1026TIP3   OH224492   3.400   1.239   3.921 -0.2229 -0.6798  0.2132
 1026TIP3    H124493   3.456   1.180   3.972 -1.6233 -1.8960  0.4071
 1026TIP3    H224494   3.429   1.227   3.831 -0.1196 -1.2395  0.3170
 1027TIP3   OH224495   2.887   4.231  14.175 -0.0011 -0.4297  0.4107
 1027TIP3    H124496   2.941   4.302  14.210  1.6095 -1.3314 -0.1450
 1027TIP3    H224497   2.850   4.189  14.252  0.3205  0.0221  0.8182
 1028TIP3   OH224498   3.186   3.446   5.998  0.0974  0.3498  0.2479
 1028TIP3    H124499   3.149   3.495   5.924 -0.1564 -0.2100 -0.0031
 1028TIP3    H224500   3.280   3.446   5.981  0.3348  2.3328  1.2250
 1029TIP3   OH224501   1.236   1.876   5.017  0.5803  0.2703 -0.0586
 1029TIP3    H124502   1.222   1.862   5.111  1.2414  0.5285  0.0803
 1029TIP3    H224503   1.315   1.826   4.997  1.0263  1.0479 -0.2639
 1030TIP3   OH224504   1.131   2.950   0.883  0.1422  0.1536 -0.0380
 1030TIP3    H124505   1.140   3.040   0.853  0.8076  0.5451  1.2759
 1030TIP3    H224506   1.068   2.954   0.954  0.1886 -0.4165  0.0431
 1031TIP3   OH224507   5.235   2.694   5.681  0.4670 -0.1518 -0.1207
 1031TIP3    H124508   5.237   2.787   5.701  1.1173 -0.0018 -0.8415
 1031TIP3    H224509   5.234   2.651   5.767 -0.8102  0.5162  0.2123
 1032TIP3   OH224510   5.680   4.916  15.047  0.4223 -0.1790  0.1999
 1032TIP3    H124511   5.744   4.853  15.016  0.1376  0.1917 -1.2138
 1032TIP3    H224512   5.722   5.001  15.035  1.8491 -0.0173  4.4319
 1033TIP3   OH224513   2.021   4.670  16.759 -0.5514 -0.4719  0.2998
 1033TIP3    H124514   2.067   4.747  16.790 -1.0563 -0.0302 -0.0303
 1033TIP3    H224515   2.077   4.634  16.690  0.2189 -1.0408  1.1961
 1034TIP3   OH224516   1.208   0.371   6.673 -0.5252 -0.5217 -0.7120
 1034TIP3    H124517   1.288   0.415   6.646  0.1965 -0.4324  1.3976
 1034TIP3    H224518   1.233   0.280   6.685 -0.6897 -0.4614  0.1147
 1035TIP3   OH224519   2.236   5.125  13.228  0.4250  0.1369 -0.0915
 1035TIP3    H124520   2.203   5.037  13.247 -1.0509  1.0825  2.1574
 1035TIP3    H224521   2.249   5.126  13.133 -0.3665 -2.2175 -0.2839
 1036TIP3   OH224522   5.494   1.414   0.371 -0.0940 -0.2715  0.4354
 1036TIP3    H124523   5.570   1.443   0.421  0.2768 -0.9916  0.3062
 1036TIP3    H224524   5.436   1.490   0.368 -0.1100 -0.1940  1.9188
 1037TIP3   OH224525   6.606   0.502  11.260 -0.7771  0.3110 -0.4052
 1037TIP3    H124526   6.631   0.589  11.229 -1.4336  1.0522  1.0542
 1037TIP3    H224527   6.558   0.464  11.186 -1.9251  1.8395 -0.5078
 1038TIP3   OH224528   3.132   3.131  14.802 -0.1657  0.0093  0.0857
 1038TIP3    H124529   3.144   3.226  14.793  0.6369 -0.1228 -0.3142
 1038TIP3    H224530   3.175   3.109  14.885  0.3003 -0.1100 -0.1841
 1039TIP3   OH224531   2.575   1.812  14.941  0.4387  0.0025  0.1859
 1039TIP3    H124532   2.507   1.762  14.986 -0.0236  1.2042  0.8712
 1039TIP3    H224533   2.572   1.781  14.850  0.1493 -1.1627  0.5774
 1040TIP3   OH224534   3.469   2.460   4.882  0.2961 -0.4343  0.3019
 1040TIP3    H124535   3.447   2.427   4.795 -2.7726  1.1221  0.3536
 1040TIP3    H224536   3.514   2.387   4.924  0.7328 -1.6782 -2.1285
 1041TIP3   OH224537   0.863   4.021  14.479  0.5915  0.4565  0.6231
 1041TIP3    H124538   0.874   4.114  14.460  1.5312  0.7621  2.4069
 1041TIP3    H224539   0.779   4.015  14.524  0.0425  0.2680 -0.4037
 1042TIP3   OH224540   4.398   2.573   6.031  0.1303 -0.3873  0.2258
 1042TIP3    H124541   4.477   2.575   6.086  0.5204 -0.4600 -0.3249
 1042TIP3    H224542   4.352   2.654   6.052 -0.0077 -0.6756  1.0692
 1043TIP3   OH224543   0.912   1.936   3.567  0.5371 -0.5473  0.0059
 1043TIP3    H124544   0.961   2.001   3.517 -0.1080 -0.5935 -0.7058
 1043TIP3    H224545   0.861   1.888   3.501 -0.4298 -0.5189  0.7082
 1044TIP3   OH224546   2.223   0.139  16.898 -0.3183  0.1751 -0.4592
 1044TIP3    H124547   2.258   0.126  16.810  1.5136  0.1532  0.2220
 1044TIP3    H224548   2.231   0.053  16.940 -0.4074  0.3752 -0.0235
 1045TIP3   OH224549   5.347   3.372  16.682  0.4556 -0.0640 -0.4206
 1045TIP3    H124550   5.374   3.416  16.602  0.3157  1.6784  0.4586
 1045TIP3    H224551   5.326   3.442  16.743 -0.9309 -1.3447  0.6672
 1046TIP3   OH224552   0.372   3.637   2.153 -0.1995  0.0139 -0.2357
 1046TIP3    H124553   0.370   3.618   2.247  0.3677  1.1527  0.0265
 1046TIP3    H224554   0.385   3.552   2.112  1.4559 -0.2927  0.8262
 1047TIP3   OH224555   5.543   0.767  10.849 -0.0824  0.8182  0.1441
 1047TIP3    H124556   5.576   0.831  10.786 -0.1585  0.3886 -0.3372
 1047TIP3    H224557   5.621   0.722  10.881 -0.1203  0.4583 -0.2742
 1048TIP3   OH224558   4.197   2.900  13.981 -0.2866  0.0984 -0.6691
 1048TIP3    H124559   4.204   2.957  14.058  1.1702 -2.2351  1.1074
 1048TIP3    H224560   4.191   2.959  13.907 -0.7898  2.4956  1.1709
 1049TIP3   OH224561   6.138   0.909  15.016  0.3692  0.3576  0.0562
 1049TIP3    H124562   6.196   0.980  15.046  0.2758  1.0001 -1.1900
 1049TIP3    H224563   6.057   0.953  14.991  1.3062  0.3474 -3.5802
 1050TIP3   OH224564   4.512   4.683  16.434 -0.0829  0.6461  0.2060
 1050TIP3    H124565   4.447   4.751  16.419 -0.0208  0.1902 -2.6254
 1050TIP3    H224566   4.596   4.728  16.428 -0.0555  0.4506 -1.1688
 1051TIP3   OH224567   0.470   1.412  13.049  0.1720  0.0012 -0.3318
 1051TIP3    H124568   0.414   1.459  13.111  1.6193  1.2361  0.0754
 1051TIP3    H224569   0.469   1.466  12.970 -0.9070 -1.0895 -1.1020
 1052TIP3   OH224570   5.313   2.618   2.602  0.1338  0.1622 -0.2476
 1052TIP3    H124571   5.385   2.665   2.645 -1.1902  0.8903  1.2508
 1052TIP3    H224572   5.266   2.576   2.674 -0.2281 -1.3651 -1.3247
 1053TIP3   OH224573   6.400   1.682  13.534  0.2813 -0.4668  0.1505
 1053TIP3    H124574   6.334   1.613  13.523 -0.3894  0.0396  0.8927
 1053TIP3    H224575   6.419   1.683  13.628  1.0423 -0.3302 -0.0042
 1054TIP3   OH224576   5.972   5.155  14.892 -0.0717  0.5583 -0.7398
 1054TIP3    H124577   5.896   5.160  14.950 -0.4661 -0.8046 -1.1048
 1054TIP3    H224578   5.967   5.235  14.840 -1.7025  0.1615 -1.2580
 1055TIP3   OH224579   4.003   3.808  12.915  0.2412  0.0820  0.0532
 1055TIP3    H124580   4.055   3.875  12.959  2.1495 -1.7112  0.7045
 1055TIP3    H224581   4.042   3.799  12.828  0.7661 -0.9442  0.3765
 1056TIP3   OH224582   2.871   2.751  10.742  0.4368  0.0906 -0.2077
 1056TIP3    H124583   2.878   2.748  10.838 -1.2522  1.2634 -0.0030
 1056TIP3    H224584   2.889   2.843  10.720  0.7539 -0.1611 -1.0227
 1057TIP3   OH224585   2.107   6.604  13.167  0.2420  0.0311 -0.6324
 1057TIP3    H124586   2.050   6.530  13.144 -1.1791  1.6945 -2.8726
 1057TIP3    H224587   2.145   6.632  13.084 -0.3598  2.6455 -0.1201
 1058TIP3   OH224588   1.958   1.358  17.007 -0.4146  1.1452 -0.6144
 1058TIP3    H124589   2.042   1.335  17.046  0.0605  2.3756 -0.8704
 1058TIP3    H224590   1.929   1.278  16.964 -0.5821 -0.0507  1.5457
 1059TIP3   OH224591   3.595   5.219   1.952  0.1716 -0.6322  0.0899
 1059TIP3    H124592   3.512   5.262   1.975  0.2982 -0.9372  1.1260
 1059TIP3    H224593   3.576   5.174   1.869 -0.0682  1.1134 -0.8613
 1060TIP3   OH224594   0.834   0.959   4.037 -0.1557  0.5320 -0.6400
 1060TIP3    H124595   0.756   0.903   4.041  1.6781 -2.1970 -0.8930
 1060TIP3    H224596   0.832   0.995   3.948 -1.6427  1.3794 -0.3017
 1061TIP3   OH224597   0.306   3.123   5.055 -0.9867 -0.2083  0.2182
 1061TIP3    H124598   0.363   3.103   5.130 -1.6535 -0.4644  0.6592
 1061TIP3    H224599   0.359   3.099   4.979 -0.7441 -1.0797  0.6416
 1062TIP3   OH224600   5.014   1.931   4.174  0.0621  0.0118 -0.2684
 1062TIP3    H124601   5.068   2.008   4.186  1.3503 -1.1801  2.3624
 1062TIP3    H224602   4.986   1.907   4.263  0.3634 -2.9412 -0.8655
 1063TIP3   OH224603   3.655   0.203   0.218  0.0044 -0.0855 -0.1519
 1063TIP3    H124604   3.646   0.192   0.313 -1.1674  1.5056 -0.0315
 1063TIP3    H224605   3.598   0.136   0.181 -1.4731  0.8341  0.3584
 1064TIP3   OH224606   4.851   3.388  13.050 -0.1058  0.3299 -0.5674
 1064TIP3    H124607   4.780   3.448  13.027  0.8698  1.4250 -0.8136
 1064TIP3    H224608   4.930   3.442  13.049  0.8263 -0.9744 -0.8761
 1065TIP3   OH224609   3.463   6.576   0.952  0.2040 -0.7078 -0.3183
 1065TIP3    H124610   3.510   6.592   1.034  0.3675 -0.3444 -0.4801
 1065TIP3    H224611   3.393   6.515   0.976  0.3052 -0.6739  0.0733
 1066TIP3   OH224612   1.421   4.411  14.245  0.5604 -0.8352 -0.4074
 1066TIP3    H124613   1.421   4.372  14.157 -0.0669  0.8011 -1.1714
 1066TIP3    H224614   1.448   4.502  14.231 -2.3717  0.3384  0.6245
 1067TIP3   OH224615   5.206   1.786  12.184 -0.4204  0.0559  0.3625
 1067TIP3    H124616   5.281   1.726  12.181 -0.4861  0.0066 -0.8390
 1067TIP3    H224617   5.129   1.729  12.184 -0.4691  0.1204  0.6687
 1068TIP3   OH224618   3.956   1.930  14.402  0.1741  0.0389  0.0405
 1068TIP3    H124619   3.993   1.844  14.384  1.4004  0.7671 -1.0580
 1068TIP3    H224620   3.881   1.937  14.343  1.2094  0.4533 -1.2528
 1069TIP3   OH224621   0.392   6.283   3.391  0.0229 -0.2868  0.1048
 1069TIP3    H124622   0.435   6.237   3.463 -1.2066 -0.6188  0.6462
 1069TIP3    H224623   0.453   6.273   3.317  1.4215  0.2856  1.1367
 1070TIP3   OH224624   6.676   1.263   1.855  0.6542 -0.2179 -0.3804
 1070TIP3    H124625   6.597   1.244   1.805  0.6007  1.8354 -1.1730
 1070TIP3    H224626   6.742   1.205   1.818  0.5336  1.0065 -2.7015
 1071TIP3   OH224627   0.374   6.187  12.686 -0.0151  0.1294 -0.1572
 1071TIP3    H124628   0.373   6.281  12.705 -0.3264  0.4510 -1.6504
 1071TIP3    H224629   0.461   6.158  12.713 -0.2474  0.6111  1.2433
 1072TIP3   OH224630   1.082   0.670  12.901 -0.1435  0.2387 -0.1365
 1072TIP3    H124631   1.082   0.687  12.996  2.1189 -0.7383  0.0975
 1072TIP3    H224632   1.019   0.599  12.890 -0.9672  0.8467  0.5197
 1073TIP3   OH224633   1.393   3.288   5.098  0.6439 -0.2443 -0.1640
 1073TIP3    H124634   1.315   3.314   5.146  0.1199 -1.0028 -0.5782
 1073TIP3    H224635   1.458   3.270   5.166 -0.4001 -2.3149  0.3674
 1074TIP3   OH224636   0.349   0.017   1.243 -0.3835 -0.2393  0.1265
 1074TIP3    H124637   0.431   0.004   1.196 -1.6062 -1.4967 -1.8185
 1074TIP3    H224638   0.335  -0.065   1.290  0.0351  0.4201  1.4407
 1075TIP3   OH224639   3.009   2.302   4.719  0.4147  0.6883 -0.4478
 1075TIP3    H124640   3.061   2.266   4.647  0.9080 -0.4501  0.4443
 1075TIP3    H224641   3.034   2.394   4.724  0.2804  0.8166 -1.7935
 1076TIP3   OH224642   0.459   3.882  15.701 -0.3849 -0.4782  0.3005
 1076TIP3    H124643   0.547   3.846  15.702 -0.0591  0.2932  1.3747
 1076TIP3    H224644   0.418   3.845  15.623  0.8807 -0.8595 -0.1982
 1077TIP3   OH224645   3.459   0.934   5.748 -0.4950  0.7721  0.1861
 1077TIP3    H124646   3.437   0.897   5.833  1.7224 -0.6317  0.2361
 1077TIP3    H224647   3.486   0.858   5.695 -0.8230  1.7314 -1.4401
 1078TIP3   OH224648   3.960   0.423   5.261  0.5655 -0.2636  0.2238
 1078TIP3    H124649   4.011   0.403   5.182  1.4002 -0.5260  0.8186
 1078TIP3    H224650   3.903   0.346   5.272  1.6725 -1.0204  0.8358
 1079TIP3   OH224651   3.680   4.019  14.064  0.2103  0.2602  0.5247
 1079TIP3    H124652   3.607   4.059  14.110 -0.2779  1.2270 -1.0005
 1079TIP3    H224653   3.678   4.059  13.976  1.3155 -1.2013 -0.2120
 1080TIP3   OH224654   6.187   4.010  14.758 -0.0387  0.2776 -0.2138
 1080TIP3    H124655   6.159   3.981  14.671 -1.7091 -0.3894  0.5104
 1080TIP3    H224656   6.157   4.101  14.764  0.0721  0.3216 -0.3178
 1081TIP3   OH224657   6.762   1.816  12.247  0.0592  0.2170 -0.4647
 1081TIP3    H124658   6.750   1.891  12.189 -0.1737 -0.2771 -1.0723
 1081TIP3    H224659   6.715   1.744  12.203 -1.2185  0.1231  0.9608
 1082TIP3   OH224660   3.006   3.662   6.097  0.2756 -0.0181  0.2914
 1082TIP3    H124661   2.971   3.681   6.184  2.0553 -0.3938  1.1322
 1082TIP3    H224662   3.032   3.570   6.101 -1.0573 -0.5080 -1.1858
 1083TIP3   OH224663   0.635   6.776  12.213 -0.3948  0.7341  0.4269
 1083TIP3    H124664   0.610   6.859  12.254 -2.0570 -0.0333  1.0373
 1083TIP3    H224665   0.656   6.718  12.286  0.0252  0.3879  0.0393
 1084TIP3   OH224666   2.294   6.794   3.027 -0.3237  0.8767 -0.6237
 1084TIP3    H124667   2.336   6.880   3.022 -1.1585  1.3230 -0.3477
 1084TIP3    H224668   2.216   6.810   3.081 -0.3107 -0.1280 -0.2976
 1085TIP3   OH224669   0.503   3.577   1.275  0.4195 -0.0937 -0.1209
 1085TIP3    H124670   0.473   3.642   1.340  0.0593 -0.8738  0.5188
 1085TIP3    H224671   0.471   3.610   1.192  1.2528  1.1510  0.0278
 1086TIP3   OH224672   3.592   1.843  16.255  0.0965  0.1537  0.5778
 1086TIP3    H124673   3.568   1.808  16.341 -2.2008  0.8160  0.2661
 1086TIP3    H224674   3.596   1.938  16.269  0.6974  0.1913  0.1655
 1087TIP3   OH224675   0.637   1.067  10.670  0.2717  0.6669 -0.4490
 1087TIP3    H124676   0.597   1.093  10.753 -2.5367 -1.6059 -0.9024
 1087TIP3    H224677   0.695   0.994  10.692  1.8320  1.9554 -0.1751
 1088TIP3   OH224678   2.877   5.616  10.630  0.7399 -0.0809  0.1225
 1088TIP3    H124679   2.856   5.691  10.575  1.4643  1.4128  1.7701
 1088TIP3    H224680   2.903   5.655  10.714 -0.3796 -2.2409  1.5562
 1089TIP3   OH224681   6.445   0.082  13.867  0.2449  0.1807 -0.0272
 1089TIP3    H124682   6.452   0.160  13.811 -1.0318  0.9663  0.8469
 1089TIP3    H224683   6.425   0.011  13.806 -1.7175  1.1247 -0.5675
 1090TIP3   OH224684   0.086   1.680  10.256 -0.0247  0.1550  0.0520
 1090TIP3    H124685   0.002   1.673  10.211 -0.3717 -0.3514  0.7640
 1090TIP3    H224686   0.137   1.741  10.202 -0.4193 -0.4310 -1.0191
 1091TIP3   OH224687   6.261   3.217  16.881  0.2765 -0.0850  0.7214
 1091TIP3    H124688   6.263   3.151  16.950  3.3759 -2.2711 -1.1791
 1091TIP3    H224689   6.187   3.192  16.826  0.2102 -0.7443  1.0971
 1092TIP3   OH224690   2.508   0.520   1.301  0.1997 -0.4385 -0.3413
 1092TIP3    H124691   2.487   0.427   1.291 -0.3677 -0.3843  0.2530
 1092TIP3    H224692   2.512   0.554   1.211 -3.6034 -0.1780 -0.5728
 1093TIP3   OH224693   3.208   1.083  13.192  0.7682 -0.3522  0.0455
 1093TIP3    H124694   3.262   1.138  13.136 -0.0975 -2.1040 -2.6653
 1093TIP3    H224695   3.136   1.140  13.220  0.3102  0.1565 -2.0358
 1094TIP3   OH224696   3.465   0.553  15.488 -0.1910  0.4422 -0.3604
 1094TIP3    H124697   3.418   0.497  15.426 -0.4698  0.0773  0.1703
 1094TIP3    H224698   3.467   0.639  15.446 -0.9235  0.3518 -0.6039
 1095TIP3   OH224699   0.643   3.007  15.383 -0.0462 -0.0618 -0.0636
 1095TIP3    H124700   0.722   3.025  15.432 -0.8123 -0.5324  1.3897
 1095TIP3    H224701   0.607   3.094  15.362  0.4488  0.1408 -0.0764
 1096TIP3   OH224702   6.304   1.278  12.639  0.7525 -0.0905  0.7165
 1096TIP3    H124703   6.340   1.327  12.712 -0.0881 -0.6945  1.5666
 1096TIP3    H224704   6.322   1.332  12.562  1.9847  0.3716  1.3136
 1097TIP3   OH224705   5.558   2.942   2.506  0.3410 -0.0905 -0.7171
 1097TIP3    H124706   5.609   2.915   2.582  2.1298  0.8192 -1.5521
 1097TIP3    H224707   5.467   2.928   2.532  0.9737 -1.4305  0.9409
 1098TIP3   OH224708   1.501   1.613   5.256  0.0025  0.4179 -0.1695
 1098TIP3    H124709   1.515   1.528   5.215  2.2217  0.4790  0.3603
 1098TIP3    H224710   1.410   1.611   5.285  0.1098 -1.9273  0.1584
 1099TIP3   OH224711   2.210   6.729   1.146 -0.2909 -0.4621 -0.1927
 1099TIP3    H124712   2.132   6.775   1.178 -0.1697  1.3875 -2.3611
 1099TIP3    H224713   2.192   6.713   1.054  0.8777 -2.3720 -0.1506
 1100TIP3   OH224714   4.863   5.143   0.031 -0.0761 -0.5308  0.1648
 1100TIP3    H124715   4.830   5.185   0.110  0.8731 -1.2073  0.9454
 1100TIP3    H224716   4.950   5.112   0.055  0.8212  0.4874 -1.5736
 1101TIP3   OH224717   1.970   6.045   2.115 -0.6258  0.1796 -0.0561
 1101TIP3    H124718   1.993   6.018   2.204  0.7289 -1.2481 -0.7861
 1101TIP3    H224719   2.050   6.084   2.080 -1.5283  1.9585 -0.2452
 1102TIP3   OH224720   5.453   3.764   0.273  0.3226 -0.0710  0.3375
 1102TIP3    H124721   5.525   3.736   0.217 -1.5472  1.5095 -3.1820
 1102TIP3    H224722   5.390   3.693   0.269  0.2926 -0.0613  0.6428
 1103TIP3   OH224723   3.789   0.218   5.295  0.5556  0.3532  0.5076
 1103TIP3    H124724   3.794   0.184   5.384 -0.7301  0.6088  0.6984
 1103TIP3    H224725   3.754   0.146   5.243  0.9520  0.3231  0.2838
 1104TIP3   OH224726   5.710   0.107   1.701  0.8758 -0.2843 -0.0905
 1104TIP3    H124727   5.728   0.078   1.611  1.0899  0.1947 -0.2059
 1104TIP3    H224728   5.699   0.202   1.694  0.8013 -0.2549  0.3778
 1105TIP3   OH224729   4.308   6.122  14.738  0.3195 -0.5473  0.4173
 1105TIP3    H124730   4.238   6.058  14.722 -0.7205  0.6499 -0.0454
 1105TIP3    H224731   4.383   6.089  14.689  0.0698 -1.8376  0.8740
 1106TIP3   OH224732   3.457   5.251  15.733  0.1456 -0.6405  0.0294
 1106TIP3    H124733   3.423   5.289  15.652 -0.0343 -0.6300  0.1085
 1106TIP3    H224734   3.544   5.289  15.743  0.1833 -0.6695 -0.1765
 1107TIP3   OH224735   4.164   4.870  12.614 -0.0552  0.1828  0.0332
 1107TIP3    H124736   4.072   4.875  12.590  0.0851  0.0869 -0.5297
 1107TIP3    H224737   4.200   4.801  12.558  0.1870 -0.3371  0.8019
 1108TIP3   OH224738   5.676   3.441  11.247 -0.3062  0.0584  0.3309
 1108TIP3    H124739   5.635   3.491  11.177 -2.2090 -1.7964  0.0567
 1108TIP3    H224740   5.757   3.407  11.208 -0.6898  0.1336 -0.5434
 1109TIP3   OH224741   3.156   5.691  13.386  0.1048  0.1078 -0.6215
 1109TIP3    H124742   3.245   5.690  13.423 -0.5886  0.3849  1.1523
 1109TIP3    H224743   3.156   5.621  13.322  1.6783  0.2579 -0.8301
 1110TIP3   OH224744   1.425   5.853  15.352 -0.0944 -0.2569  0.3742
 1110TIP3    H124745   1.384   5.831  15.268  0.1807 -1.1260  0.4591
 1110TIP3    H224746   1.518   5.832  15.340 -0.2706 -1.7194  1.3196
 1111TIP3   OH224747   3.040   4.240  14.742  0.4123  0.2582  0.6868
 1111TIP3    H124748   3.085   4.206  14.664 -0.3019 -1.6729  1.0547
 1111TIP3    H224749   3.036   4.334  14.728  1.0674  0.0523 -1.2052
 1112TIP3   OH224750   2.708   5.663   5.413  0.1384  0.3613  0.2429
 1112TIP3    H124751   2.740   5.726   5.348  0.2514  1.0983  0.9976
 1112TIP3    H224752   2.766   5.675   5.489 -1.0013  0.6926  1.0918
 1113TIP3   OH224753   3.208   4.903   3.048  0.4037  0.4175  0.0115
 1113TIP3    H124754   3.185   4.904   3.141 -0.3051  0.7000 -0.1640
 1113TIP3    H224755   3.201   4.811   3.023 -1.5803  0.6095 -0.2814
 1114TIP3   OH224756   4.053   0.317   1.463 -0.1467  0.3018  0.0089
 1114TIP3    H124757   4.120   0.360   1.410  0.9190 -0.1045  0.9997
 1114TIP3    H224758   4.102   0.263   1.525 -1.4132 -1.0464 -0.1005
 1115TIP3   OH224759   1.086   4.486   0.462 -0.1504 -0.0407  0.1603
 1115TIP3    H124760   1.041   4.432   0.526  2.2765 -2.8105 -0.2682
 1115TIP3    H224761   1.179   4.465   0.473  0.5525  0.8691 -2.9093
 1116TIP3   OH224762   3.333   0.340  15.335 -0.0350  0.3410 -0.0105
 1116TIP3    H124763   3.378   0.256  15.327  0.2552  0.4992 -0.0497
 1116TIP3    H224764   3.320   0.369  15.245  0.5152  0.6813  0.0159
 1117TIP3   OH224765   2.539   3.021  12.164 -0.0720  0.0263  0.1899
 1117TIP3    H124766   2.522   2.929  12.148 -0.9207  0.2753 -0.4047
 1117TIP3    H224767   2.533   3.062  12.077  0.2666  0.6463  0.4512
 1118TIP3   OH224768   3.060   4.529   2.359  0.2336  0.0939 -0.2314
 1118TIP3    H124769   3.122   4.466   2.321  0.9133  1.2449 -1.1043
 1118TIP3    H224770   2.976   4.506   2.321  0.0852 -1.4925  0.9628
 1119TIP3   OH224771   6.783   2.123  11.704  0.5680  0.3215 -0.0466
 1119TIP3    H124772   6.760   2.090  11.618 -0.4876  0.3099  0.2293
 1119TIP3    H224773   6.701   2.123  11.753  0.9106  1.5146  0.5690
 1120TIP3   OH224774   2.391   5.795   4.026 -0.0682  0.4909  0.2529
 1120TIP3    H124775   2.313   5.841   3.996  0.0895  0.5356 -0.0878
 1120TIP3    H224776   2.361   5.746   4.102  0.1873  2.6239  1.8140
 1121TIP3   OH224777   6.324   3.537  14.606  0.4593 -0.5695  0.2025
 1121TIP3    H124778   6.261   3.581  14.662 -1.5448 -0.0935 -2.2230
 1121TIP3    H224779   6.271   3.480  14.550  2.5998 -3.0280  0.5016
 1122TIP3   OH224780   0.555   5.136   0.872  0.3081 -0.2822  0.0720
 1122TIP3    H124781   0.617   5.064   0.868  1.0462  0.2625  1.1710
 1122TIP3    H224782   0.476   5.097   0.911  0.9421 -0.3666  1.3290
 1123TIP3   OH224783   0.298   5.660   3.826 -0.4615  0.4784  0.7166
 1123TIP3    H124784   0.242   5.684   3.752  0.9414 -1.5609 -1.1672
 1123TIP3    H224785   0.280   5.726   3.893 -0.6918  3.4087 -1.9873
 1124TIP3   OH224786   3.134   1.024  15.887  0.1376 -0.2972  0.5721
 1124TIP3    H124787   3.039   1.013  15.890  0.2135 -1.5434 -0.7606
 1124TIP3    H224788   3.167   0.961  15.951  0.1490 -1.3198 -0.4287
 1125TIP3   OH224789   1.214   3.329   2.048  0.3369 -0.4760 -0.5018
 1125TIP3    H124790   1.306   3.351   2.033 -0.1521  2.4332  0.0895
 1125TIP3    H224791   1.179   3.314   1.960  0.9275  0.5072 -0.9230
 1126TIP3   OH224792   0.224   2.155  13.236 -0.1234  0.3914 -0.1063
 1126TIP3    H124793   0.261   2.243  13.224  0.2474  0.0590 -1.6009
 1126TIP3    H224794   0.139   2.159  13.193 -0.3900  0.1893  0.3917
 1127TIP3   OH224795   6.757   1.746   2.256 -0.1435  0.5620  0.1511
 1127TIP3    H124796   6.820   1.794   2.202  1.1595 -0.0232  1.0844
 1127TIP3    H224797   6.756   1.658   2.219  1.5052 -0.1280  1.5798
 1128TIP3   OH224798   0.318   1.526  11.051 -0.3904 -0.3229  0.1844
 1128TIP3    H124799   0.393   1.509  10.994 -1.4143 -1.1431 -0.9685
 1128TIP3    H224800   0.276   1.603  11.012 -1.4515 -1.2629 -0.5707
 1129TIP3   OH224801   4.227   0.367  15.653 -0.0223 -0.0757  0.0765
 1129TIP3    H124802   4.170   0.342  15.580  3.1386 -1.8997 -2.0044
 1129TIP3    H224803   4.248   0.459  15.635 -0.5620 -0.0294 -0.3638
 1130TIP3   OH224804   5.796   6.664  16.708  0.0620 -0.1439  0.3230
 1130TIP3    H124805   5.857   6.731  16.678 -1.4371  1.9301  1.6107
 1130TIP3    H224806   5.810   6.660  16.803 -0.9180 -0.5423  0.4621
 1131TIP3   OH224807   5.816   0.407  11.784 -0.3239  0.2081  0.4015
 1131TIP3    H124808   5.820   0.502  11.775 -0.7138  0.2193  0.3691
 1131TIP3    H224809   5.747   0.380  11.723  0.0945 -0.1374  0.0732
 1132TIP3   OH224810   0.996   5.119  11.212 -0.2527 -0.2183  0.2624
 1132TIP3    H124811   0.960   5.074  11.136 -0.0578  0.4015 -0.2077
 1132TIP3    H224812   1.083   5.082  11.224 -0.1241 -0.0340 -0.0745
 1133TIP3   OH224813   2.301   2.067   0.296 -0.2023 -0.2714 -0.3093
 1133TIP3    H124814   2.356   2.139   0.328 -0.3739 -0.1633 -0.2552
 1133TIP3    H224815   2.247   2.106   0.228  0.2427 -0.5283 -0.8215
 1134TIP3   OH224816   0.496   3.820  12.382  0.3395 -0.2399 -0.2211
 1134TIP3    H124817   0.557   3.846  12.313  0.3389 -0.8445 -0.4588
 1134TIP3    H224818   0.458   3.738  12.350 -1.6791  0.8541 -0.7482
 1135TIP3   OH224819   4.533   0.314   2.616  0.5088 -0.1393  0.1258
 1135TIP3    H124820   4.612   0.279   2.575  0.8764 -0.0699  0.7533
 1135TIP3    H224821   4.484   0.237   2.645 -0.2866 -0.2414 -1.3554
 1136TIP3   OH224822   0.572   5.678  14.595  0.1411  0.0641  0.7056
 1136TIP3    H124823   0.622   5.648  14.671 -0.5654 -1.4417  0.6137
 1136TIP3    H224824   0.480   5.669  14.622 -0.1075  0.3910  0.0022
 1137TIP3   OH224825   2.427   0.578  14.880  0.2089  0.0007  0.5164
 1137TIP3    H124826   2.481   0.655  14.866 -0.1212 -0.0336 -1.3346
 1137TIP3    H224827   2.337   0.609  14.868 -0.1586 -0.1095  2.6902
 1138TIP3   OH224828   5.397   4.792   2.503  0.1843  0.0320 -0.0638
 1138TIP3    H124829   5.304   4.812   2.499 -0.3357 -1.9756  0.5492
 1138TIP3    H224830   5.426   4.827   2.588 -0.0179  0.6338 -0.2420
 1139TIP3   OH224831   2.138   1.632   2.072 -0.0882 -0.9317 -0.4455
 1139TIP3    H124832   2.122   1.540   2.051  0.0149 -0.7980 -1.1270
 1139TIP3    H224833   2.226   1.649   2.041  0.0145 -0.6887 -0.0197
 1140TIP3   OH224834   3.354   3.870   3.333 -0.0283 -0.2922 -0.2841
 1140TIP3    H124835   3.314   3.785   3.317 -0.9383  0.1907 -0.6479
 1140TIP3    H224836   3.343   3.918   3.251 -0.7711  0.6540  0.3400
 1141TIP3   OH224837   5.838   3.232  11.789 -0.2847 -0.3423 -0.2669
 1141TIP3    H124838   5.747   3.231  11.759 -0.2017 -0.4122 -0.5223
 1141TIP3    H224839   5.833   3.212  11.883 -0.3808 -2.6893 -0.7141
 1142TIP3   OH224840   5.928   0.909   1.108 -0.3948 -0.0375 -0.3723
 1142TIP3    H124841   5.858   0.953   1.156 -0.8892 -0.3584 -0.7877
 1142TIP3    H224842   6.001   0.971   1.110 -0.4074 -0.0425  0.7617
 1143TIP3   OH224843   3.804   1.794   1.013  0.3374 -0.1862 -0.2244
 1143TIP3    H124844   3.737   1.848   0.972  1.9218  1.0840 -1.2801
 1143TIP3    H224845   3.815   1.719   0.954  0.4713  0.0822 -0.5467
 1144TIP3   OH224846   0.700   0.540   3.529 -0.1146 -0.5316 -0.6415
 1144TIP3    H124847   0.707   0.498   3.442  0.3923 -0.6915 -0.5322
 1144TIP3    H224848   0.607   0.557   3.540 -0.2297 -0.8489 -1.0637
 1145TIP3   OH224849   5.636   4.041  12.724  0.0431  0.3243 -0.4786
 1145TIP3    H124850   5.549   4.037  12.684  0.2313  0.9967 -0.9723
 1145TIP3    H224851   5.693   4.072  12.654  0.4855  0.9600  0.1503
 1146TIP3   OH224852   3.781   6.725   6.334 -0.9662  0.2060 -0.1262
 1146TIP3    H124853   3.848   6.657   6.325 -1.1559  0.1863 -1.4702
 1146TIP3    H224854   3.698   6.677   6.339 -1.1895  0.3378 -2.0103
 1147TIP3   OH224855   1.999   2.750  12.332  0.4413  0.1887 -0.9247
 1147TIP3    H124856   2.029   2.671  12.287 -0.1477 -0.0129 -0.9749
 1147TIP3    H224857   2.039   2.822  12.284  0.9300 -0.0761 -0.9187
 1148TIP3   OH224858   3.170   2.056  12.920 -0.7113 -0.3154  0.2310
 1148TIP3    H124859   3.157   1.994  12.991  3.1383 -1.7923 -0.1425
 1148TIP3    H224860   3.205   2.134  12.963 -1.8387  0.2047  0.2589
 1149TIP3   OH224861   2.054   0.170   2.011 -0.4645 -0.3519  0.7629
 1149TIP3    H124862   2.113   0.097   1.993 -0.7812 -0.8506  1.6819
 1149TIP3    H224863   2.098   0.246   1.973  0.9263 -0.6622  1.6514
 1150TIP3   OH224864   3.064   5.824  12.767  0.5970 -0.1739  0.9084
 1150TIP3    H124865   3.093   5.798  12.680 -3.4722 -1.2271 -0.3209
 1150TIP3    H224866   3.006   5.898  12.752 -0.2123 -0.3905  2.7188
 1151TIP3   OH224867   3.147   1.626   6.437 -0.1500  0.1022 -0.3145
 1151TIP3    H124868   3.145   1.578   6.354 -0.5318 -2.0607  0.8677
 1151TIP3    H224869   3.236   1.660   6.443  0.8002 -2.2338 -0.3043
 1152TIP3   OH224870   0.042   2.534   1.660 -0.1750 -0.3928  0.0605
 1152TIP3    H124871  -0.037   2.480   1.661 -0.5019  0.0723  1.8082
 1152TIP3    H224872   0.094   2.502   1.734 -0.6174  1.9843  1.5041
 1153TIP3   OH224873   3.716   5.079   2.227  0.1183 -0.2348  0.1737
 1153TIP3    H124874   3.647   5.109   2.286  1.0670  1.6312  0.4367
 1153TIP3    H224875   3.684   5.102   2.139 -0.3107 -0.9042  0.1561
 1154TIP3   OH224876   1.598   0.819   1.320 -0.2761  0.0149  0.0737
 1154TIP3    H124877   1.570   0.807   1.411  0.5929  1.7866  0.6086
 1154TIP3    H224878   1.570   0.907   1.298 -1.1106 -0.6408 -1.6594
 1155TIP3   OH224879   3.579   2.728   4.455  0.0471  0.5161  0.0885
 1155TIP3    H124880   3.530   2.742   4.536 -0.0120  1.2287 -0.0660
 1155TIP3    H224881   3.657   2.680   4.482 -1.2288 -1.6698  0.1960
 1156TIP3   OH224882   5.282   3.231   0.621 -0.2830 -0.3525  0.1343
 1156TIP3    H124883   5.372   3.219   0.651 -0.1785  0.6077  0.2342
 1156TIP3    H224884   5.228   3.201   0.693 -0.0905 -2.7900 -0.6431
 1157TIP3   OH224885   2.515   4.268  13.615  0.0577  0.2769 -0.0703
 1157TIP3    H124886   2.491   4.176  13.609  1.3860 -0.5482  4.2452
 1157TIP3    H224887   2.463   4.302  13.688  2.8035  1.6520  1.4101
 1158TIP3   OH224888   0.881   0.863  13.020  0.8516  0.2624 -0.2079
 1158TIP3    H124889   0.790   0.838  13.010  0.3868  0.9913  1.8387
 1158TIP3    H224890   0.916   0.862  12.930 -0.7405 -1.4720 -0.8609
 1159TIP3   OH224891   3.881   4.054   0.594 -0.0073 -0.3207  0.3628
 1159TIP3    H124892   3.865   3.963   0.620 -0.5941  0.2814  2.3630
 1159TIP3    H224893   3.942   4.048   0.521 -2.1231 -2.4058 -1.3871
 1160TIP3   OH224894   1.042   1.136   0.216 -0.1092 -0.0850  0.2659
 1160TIP3    H124895   0.998   1.066   0.168 -0.0404 -0.1265  0.2620
 1160TIP3    H224896   1.131   1.136   0.181  0.2957 -0.9301  1.2243
 1161TIP3   OH224897   3.971   2.629   5.056 -0.0417 -0.2107 -0.4971
 1161TIP3    H124898   3.907   2.699   5.071 -1.6963 -1.6911 -0.2550
 1161TIP3    H224899   3.988   2.632   4.962  0.7889  1.2051 -0.3306
 1162TIP3   OH224900   0.001   5.380   3.535 -0.2306  0.1421 -0.1674
 1162TIP3    H124901  -0.071   5.424   3.580  0.9492  1.6793  0.3066
 1162TIP3    H224902  -0.032   5.362   3.447 -1.1429  0.9263  0.0054
 1163TIP3   OH224903   3.718   5.859  15.504  0.2983  0.4425  0.3792
 1163TIP3    H124904   3.708   5.949  15.535  1.2359 -0.0466  2.2844
 1163TIP3    H224905   3.703   5.805  15.582  2.8450 -0.9033  0.0672
 1164TIP3   OH224906   4.025   2.226   4.368  0.2533 -0.7006  0.2180
 1164TIP3    H124907   4.106   2.187   4.401  0.4681 -1.2147 -0.8669
 1164TIP3    H224908   3.959   2.204   4.434  0.6134 -1.8923  0.1953
 1165TIP3   OH224909   1.746   3.060  16.401  0.2801 -0.2774 -0.3940
 1165TIP3    H124910   1.750   3.001  16.476 -2.6958  0.7953  0.7467
 1165TIP3    H224911   1.758   3.147  16.439  1.1848  0.1231 -1.5480
 1166TIP3   OH224912   5.622   5.309   2.866  0.7600  0.3453  0.2143
 1166TIP3    H124913   5.561   5.307   2.939  0.1044  0.8231 -0.3112
 1166TIP3    H224914   5.588   5.244   2.805 -0.0432  1.5819 -0.7053
 1167TIP3   OH224915   1.475   6.737   0.410  0.2398  0.7223 -0.7209
 1167TIP3    H124916   1.429   6.692   0.481  0.6106  2.0969  0.4248
 1167TIP3    H224917   1.536   6.796   0.454  2.8953 -0.7362 -2.1740
 1168TIP3   OH224918   5.691   2.405  14.279 -0.1321 -0.2460 -0.3326
 1168TIP3    H124919   5.734   2.434  14.360  0.0264 -0.3028 -0.3961
 1168TIP3    H224920   5.705   2.310  14.278  0.1580 -0.2013 -0.5982
 1169TIP3   OH224921   3.858   2.008  11.149  0.0613  0.3328 -0.5378
 1169TIP3    H124922   3.881   1.940  11.213  0.7878  1.3402  0.2941
 1169TIP3    H224923   3.926   2.002  11.082  0.0792  0.1941 -0.5068
 1170TIP3   OH224924   2.977   6.666   2.599 -0.5836  0.1152 -0.6176
 1170TIP3    H124925   2.941   6.676   2.687  1.0509  0.9763 -0.0209
 1170TIP3    H224926   3.003   6.754   2.573  2.1393 -0.5834 -0.5279
 1171TIP3   OH224927   3.518   6.402  16.941 -0.2251  0.0913 -0.2354
 1171TIP3    H124928   3.535   6.309  16.926  0.5135  0.3660 -1.2456
 1171TIP3    H224929   3.592   6.432  16.995 -0.0950  0.2378 -0.4931
 1172TIP3   OH224930   3.602   6.312  14.136 -0.0347 -0.2982 -0.1170
 1172TIP3    H124931   3.574   6.230  14.097 -0.7132 -0.4756  0.7234
 1172TIP3    H224932   3.639   6.362  14.063 -1.8260 -0.3665 -1.1145
 1173TIP3   OH224933   1.333   6.308   1.289  0.0706  0.1192 -0.0492
 1173TIP3    H124934   1.416   6.339   1.325  0.4154  0.8746 -1.4191
 1173TIP3    H224935   1.306   6.377   1.228 -1.9365  0.2208  0.8804
 1174TIP3   OH224936   2.614   0.806  16.193 -0.1284  0.2025 -0.1450
 1174TIP3    H124937   2.616   0.711  16.197  1.0453  0.2165 -0.1623
 1174TIP3    H224938   2.667   0.834  16.268  0.4171  0.8217 -0.7498
 1175TIP3   OH224939   2.471   5.892   3.235  0.1082  0.7633 -0.3120
 1175TIP3    H124940   2.473   5.883   3.330  1.2927  5.4456  0.3519
 1175TIP3    H224941   2.405   5.829   3.206 -0.2264 -0.9198  3.5388
 1176TIP3   OH224942   4.584   6.278   2.615  0.4134 -0.7813 -0.1879
 1176TIP3    H124943   4.548   6.208   2.670  1.9429 -0.7534  0.9144
 1176TIP3    H224944   4.679   6.273   2.629  0.7764 -0.1090 -2.0659
 1177TIP3   OH224945   6.597   2.331  12.471  0.1426 -0.3228  0.3552
 1177TIP3    H124946   6.554   2.319  12.555  0.3614 -2.0598  0.2631
 1177TIP3    H224947   6.691   2.329  12.491  0.2290  1.7801  0.3493
 1178TIP3   OH224948   5.877   4.567   5.733 -0.3103 -0.4189  0.9392
 1178TIP3    H124949   5.888   4.650   5.687  1.0982  0.1206  2.1745
 1178TIP3    H224950   5.823   4.514   5.674 -0.6648  1.1104 -0.1784
 1179TIP3   OH224951   4.869   1.384  12.342  0.5571  0.0645  0.1023
 1179TIP3    H124952   4.912   1.386  12.427  1.3813 -0.5869 -0.2793
 1179TIP3    H224953   4.780   1.416  12.358  0.6648 -0.1747  1.2243
 1180TIP3   OH224954   2.680   6.353  16.013  0.0823  0.1993  0.1139
 1180TIP3    H124955   2.744   6.283  16.027  1.2686  1.1200 -0.4989
 1180TIP3    H224956   2.655   6.380  16.102  3.1039  2.0561  0.5436
 1181TIP3   OH224957   3.017   5.451  10.906 -0.0945 -0.2675 -0.4822
 1181TIP3    H124958   3.084   5.443  10.838  0.7484 -2.9230  0.5609
 1181TIP3    H224959   2.985   5.541  10.896  1.3068  0.0594 -3.1260
 1182TIP3   OH224960   2.699   5.023  16.552 -0.1718  0.3068  0.0133
 1182TIP3    H124961   2.758   5.085  16.510 -0.5119  0.5034 -0.1863
 1182TIP3    H224962   2.714   4.940  16.506  0.6373  0.1127  0.6120
 1183TIP3   OH224963   3.769   0.980   4.869 -0.2130 -0.2730 -0.1705
 1183TIP3    H124964   3.750   0.905   4.925 -0.7951  0.7688  1.0684
 1183TIP3    H224965   3.860   1.001   4.887 -0.3661 -0.0106  0.3216
 1184TIP3   OH224966   1.185   2.754  14.774 -0.3290 -0.4098 -0.2332
 1184TIP3    H124967   1.124   2.682  14.757 -2.5684  0.6037  2.6424
 1184TIP3    H224968   1.267   2.710  14.796 -1.5739 -2.1512  1.2482
 1185TIP3   OH224969   0.758   4.976  13.413  0.0159 -0.0803 -0.7176
 1185TIP3    H124970   0.744   5.018  13.328  0.4562  1.3530 -0.1059
 1185TIP3    H224971   0.818   5.034  13.460 -1.0157 -0.2873  0.9645
 1186TIP3   OH224972   0.769   2.166   1.746  0.2829 -0.3762  0.5115
 1186TIP3    H124973   0.842   2.113   1.712  2.1589  2.1505  0.3314
 1186TIP3    H224974   0.724   2.197   1.667 -0.6611 -1.3895  0.6163
 1187TIP3   OH224975   3.886   3.584  12.260  0.1728  0.0845 -0.1807
 1187TIP3    H124976   3.849   3.626  12.183  0.0687 -1.2918 -0.9212
 1187TIP3    H224977   3.837   3.620  12.334 -1.4214 -0.3774 -0.9734
 1188TIP3   OH224978   0.300   2.737  17.054 -0.3391 -0.3588  0.8221
 1188TIP3    H124979   0.211   2.703  17.052  0.0360 -1.3589 -1.2053
 1188TIP3    H224980   0.329   2.734  16.963  0.9809  2.1489  1.0879
 1189TIP3   OH224981   3.710   6.047   0.407 -0.2002  0.0247 -0.7617
 1189TIP3    H124982   3.729   6.083   0.320  3.2849 -1.6836 -0.8473
 1189TIP3    H224983   3.717   6.122   0.466 -2.6642  1.2199 -1.8097
 1190TIP3   OH224984   0.319   3.758  13.787 -0.1179  0.5158 -0.5853
 1190TIP3    H124985   0.359   3.676  13.757 -0.0778  0.6347 -0.8627
 1190TIP3    H224986   0.301   3.743  13.880  0.0565  0.2584 -0.5904
 1191TIP3   OH224987   2.633   2.007   5.166  0.2358 -0.2558  0.2975
 1191TIP3    H124988   2.541   2.013   5.140  0.4956  0.0263 -0.5745
 1191TIP3    H224989   2.641   1.919   5.204 -0.0793 -0.8305 -0.9170
 1192TIP3   OH224990   6.124   4.297   2.939  0.9566 -0.1948 -0.8812
 1192TIP3    H124991   6.071   4.375   2.961  0.4734 -0.5729 -0.6802
 1192TIP3    H224992   6.186   4.289   3.011 -0.3364 -1.1755  0.1736
 1193TIP3   OH224993   1.711   0.122   0.468  0.1450 -0.1831  0.1198
 1193TIP3    H124994   1.677   0.203   0.430  1.1636  0.6592  0.9397
 1193TIP3    H224995   1.797   0.111   0.427 -0.3355 -1.3532 -0.6434
 1194TIP3   OH224996   5.698   0.938   1.441 -0.4228 -0.0174  1.0214
 1194TIP3    H124997   5.658   0.963   1.358 -0.6564  0.4907  1.2792
 1194TIP3    H224998   5.651   0.859   1.468  0.8937 -1.2768 -0.2199
 1195TIP3   OH224999   4.590   5.474   0.922  0.2011  0.2095  0.6002
 1195TIP3    H125000   4.642   5.449   0.846  2.0740  0.1080  1.8685
 1195TIP3    H225001   4.517   5.411   0.923  0.1389  0.2115 -1.0693
 1196TIP3   OH225002   5.320   1.118  12.047 -0.7854 -0.0203 -0.1248
 1196TIP3    H125003   5.378   1.045  12.067 -1.0264 -0.3519 -0.6186
 1196TIP3    H225004   5.246   1.078  12.002 -0.9792  0.5117 -0.2809
 1197TIP3   OH225005   2.763   3.423   4.876  0.5941 -0.3079  0.6211
 1197TIP3    H125006   2.719   3.369   4.942 -0.4563  0.5572  0.6507
 1197TIP3    H225007   2.728   3.392   4.793 -0.0888  0.3808  0.6447
 1198TIP3   OH225008   3.347   1.980  16.150 -0.3905 -0.1257  0.2824
 1198TIP3    H125009   3.423   1.925  16.129  1.0445  1.0040  2.1479
 1198TIP3    H225010   3.372   2.067  16.120 -1.1860  0.1771  0.4752
 1199TIP3   OH225011   3.587   1.118  14.430  0.0997  0.3823  0.6669
 1199TIP3    H125012   3.649   1.047  14.446 -1.4724 -1.4151 -0.7393
 1199TIP3    H225013   3.641   1.192  14.405  1.8502 -0.0066  2.9329
 1200TIP3   OH225014   5.205   6.094   4.213  0.1742 -0.5276  0.3761
 1200TIP3    H125015   5.272   6.027   4.196 -1.2923 -1.4790 -2.1562
 1200TIP3    H225016   5.160   6.062   4.291  2.1556 -0.2289  1.7149
 1201TIP3   OH225017   1.246   3.711  12.549  0.7104 -0.2638  0.2381
 1201TIP3    H125018   1.228   3.723  12.643  0.7952 -1.9021  0.5110
 1201TIP3    H225019   1.291   3.626  12.545  1.0866 -0.0165 -1.2560
 1202TIP3   OH225020   2.990   1.029  11.338  0.2422  0.4344 -0.5847
 1202TIP3    H125021   2.900   1.000  11.347  0.6246 -0.9711 -0.9796
 1202TIP3    H225022   2.985   1.110  11.288 -0.7479 -0.0001 -1.2101
 1203TIP3   OH225023   3.030   2.144   0.639  0.6848 -0.2892 -0.1256
 1203TIP3    H125024   3.023   2.192   0.556  0.5228  1.4213  0.8208
 1203TIP3    H225025   3.002   2.207   0.705  0.9155 -1.5808  1.2508
 1204TIP3   OH225026   5.537   2.323  11.636 -0.5194  0.0723 -0.0795
 1204TIP3    H125027   5.460   2.378  11.624 -1.8294 -1.4773  0.7931
 1204TIP3    H225028   5.537   2.265  11.559 -0.2545  0.0273 -0.0484
 1205TIP3   OH225029   4.249   1.776  13.965  0.2278  0.3874 -0.3594
 1205TIP3    H125030   4.219   1.790  13.875  1.1421  0.9229 -0.5865
 1205TIP3    H225031   4.192   1.707  13.998 -1.5227  1.6099 -0.6588
 1206TIP3   OH225032   4.937   4.435   2.655  0.2331  0.5073  1.0807
 1206TIP3    H125033   4.906   4.371   2.592  0.8806  0.3926  0.8726
 1206TIP3    H225034   4.863   4.448   2.714 -0.7920  1.4560 -0.3438
 1207TIP3   OH225035   6.426   4.840  14.640  0.6085  0.0352 -0.2972
 1207TIP3    H125036   6.376   4.919  14.662  1.2364  1.1917 -2.6811
 1207TIP3    H225037   6.365   4.768  14.658 -0.9131  1.2226 -0.4392
 1208TIP3   OH225038   4.037   2.946   0.662  0.4012  0.5892  0.1202
 1208TIP3    H125039   4.132   2.949   0.673  0.3774  1.5156  0.1868
 1208TIP3    H225040   4.016   2.853   0.661  1.1563  0.3719  1.4868
 1209TIP3   OH225041   2.506   4.311  12.182  0.3012 -0.1739  0.2101
 1209TIP3    H125042   2.566   4.253  12.135  1.5991  0.6974  0.7312
 1209TIP3    H225043   2.556   4.392  12.194 -0.9048  0.4933  0.8838
 1210TIP3   OH225044   0.240   1.562  12.789 -0.7681 -0.0313  0.1712
 1210TIP3    H125045   0.228   1.657  12.785  0.7400  0.1684 -0.6114
 1210TIP3    H225046   0.156   1.528  12.819 -1.2411  1.5717  0.7560
 1211TIP3   OH225047   1.195   6.047  13.465 -0.7466 -0.6169 -0.0960
 1211TIP3    H125048   1.222   5.956  13.449 -2.1286 -1.0685 -0.0287
 1211TIP3    H225049   1.277   6.095  13.475  0.0894 -1.4931 -2.1061
 1212TIP3   OH225050   5.190   0.937  10.867  0.1192  0.2391  0.1090
 1212TIP3    H125051   5.248   1.007  10.836  0.1781  0.3986  0.5807
 1212TIP3    H225052   5.245   0.885  10.925 -0.1479  0.2514  0.3705
 1213TIP3   OH225053   4.967   0.294  16.194 -0.7632  0.2278  0.6592
 1213TIP3    H125054   4.923   0.372  16.161 -1.0366 -0.0722  0.3008
 1213TIP3    H225055   4.934   0.223  16.139 -0.2558 -0.0893  0.7594
 1214TIP3   OH225056   3.371   0.002  13.637  0.0337 -0.2328  0.5131
 1214TIP3    H125057   3.306  -0.031  13.575 -0.8620  1.2109  0.6436
 1214TIP3    H225058   3.455  -0.030  13.603 -0.7023 -2.1172  0.3257
 1215TIP3   OH225059   5.123   1.147  15.159  0.7312 -0.1571 -0.3247
 1215TIP3    H125060   5.068   1.209  15.207 -0.9965 -1.3010 -0.7205
 1215TIP3    H225061   5.185   1.114  15.224  0.7508  0.9134  0.2278
 1216TIP3   OH225062   6.750   0.291  10.611 -0.2544  0.4469  0.3519
 1216TIP3    H125063   6.693   0.238  10.665  1.5491 -2.1146 -0.0642
 1216TIP3    H225064   6.794   0.228  10.553  0.5892  2.6373 -1.5711
 1217TIP3   OH225065   6.157   4.532   5.721  0.3954  0.5292  0.2634
 1217TIP3    H125066   6.068   4.567   5.716  0.1065 -0.0161  1.3027
 1217TIP3    H225067   6.185   4.552   5.810  1.0990  0.1753  0.1242
 1218TIP3   OH225068   0.598   0.960  15.299  0.3446  0.3501 -0.2797
 1218TIP3    H125069   0.647   0.969  15.381 -0.4279  0.6203  0.1589
 1218TIP3    H225070   0.530   1.027  15.304 -0.9913 -0.9846 -0.2193
 1219TIP3   OH225071   3.454   6.430   0.197 -0.5026 -0.0465 -0.0713
 1219TIP3    H125072   3.523   6.376   0.159 -1.1701  0.9546 -2.9222
 1219TIP3    H225073   3.464   6.516   0.154 -2.1447  0.7890  1.1172
 1220TIP3   OH225074   3.548   4.537  11.173 -0.3271  0.0430  0.0012
 1220TIP3    H125075   3.478   4.517  11.236  0.3081  0.0754  0.7314
 1220TIP3    H225076   3.504   4.588  11.105 -0.9065  0.5830  0.7530
 1221TIP3   OH225077   0.270   6.643  11.270  0.2382 -0.0258  0.4158
 1221TIP3    H125078   0.347   6.669  11.218  0.6204 -0.4331  0.7725
 1221TIP3    H225079   0.221   6.725  11.282  0.5382  0.2108  0.0582
 1222TIP3   OH225080   1.757   0.998  16.388 -0.0643  0.5006 -0.2421
 1222TIP3    H125081   1.768   0.930  16.322  0.4569 -0.2634  0.6251
 1222TIP3    H225082   1.841   1.044  16.389  0.4891 -0.4900  0.9817
 1223TIP3   OH225083   0.064   3.737   1.239 -0.3286 -0.5012 -0.9266
 1223TIP3    H125084  -0.010   3.682   1.265 -1.2024  0.3212 -1.5911
 1223TIP3    H225085   0.121   3.678   1.188  0.1415 -1.4632  0.6328
 1224TIP3   OH225086   0.418   3.676   3.139 -0.3002  0.5646  0.3639
 1224TIP3    H125087   0.443   3.596   3.093 -1.4328  0.4603 -0.1079
 1224TIP3    H225088   0.383   3.646   3.223 -2.6314  0.3410 -0.6009
 1225TIP3   OH225089   2.669   4.370   3.477  0.1932  0.3428  0.2470
 1225TIP3    H125090   2.630   4.301   3.423 -1.9614  2.5808 -1.3162
 1225TIP3    H225091   2.751   4.391   3.432  1.4003 -1.7347  1.3070
 1226TIP3   OH225092   0.300   4.169   4.356 -0.0593  0.3531  0.6381
 1226TIP3    H125093   0.363   4.216   4.301  0.4007 -0.1178  0.7470
 1226TIP3    H225094   0.219   4.219   4.349 -0.4233 -0.4288 -1.5606
 1227TIP3   OH225095   2.500   1.757  16.026  0.0282 -0.0541  0.5832
 1227TIP3    H125096   2.571   1.820  16.038 -1.5022  1.9711 -0.4184
 1227TIP3    H225097   2.540   1.672  16.044  2.9274  0.9046 -0.7690
 1228TIP3   OH225098   4.454   1.320  12.633  0.1651  0.2752 -0.4748
 1228TIP3    H125099   4.370   1.343  12.672  0.1462 -0.7977  0.1634
 1228TIP3    H225100   4.501   1.273  12.703  1.1658  0.5706 -0.9233
 1229TIP3   OH225101   3.471   5.900   0.613 -0.8779 -0.0368  0.4504
 1229TIP3    H125102   3.444   5.947   0.533  3.1798  0.9001 -0.5820
 1229TIP3    H225103   3.456   5.963   0.683 -1.8994  0.1757  0.0653
 1230TIP3   OH225104   5.561   2.598   2.804  0.1984 -0.1725 -0.2261
 1230TIP3    H125105   5.514   2.515   2.806  0.4789 -0.3525  2.1732
 1230TIP3    H225106   5.611   2.595   2.722 -0.7765 -1.7744 -0.8215
 1231TIP3   OH225107   3.126   2.602   6.781 -0.2037 -0.5987 -0.1459
 1231TIP3    H125108   3.119   2.661   6.706 -0.9832 -0.2689  0.1731
 1231TIP3    H225109   3.217   2.607   6.808 -0.5149  1.4930  0.6873
 1232TIP3   OH225110   6.493   0.297   5.661 -0.6458  0.1025  0.0359
 1232TIP3    H125111   6.419   0.271   5.715  0.2825 -2.8550  0.0518
 1232TIP3    H225112   6.566   0.244   5.692  1.9340  3.7260  0.8652
 1233TIP3   OH225113   5.078   6.400  12.279  0.2109  0.2188  0.1714
 1233TIP3    H125114   5.150   6.461  12.261  1.2777 -1.2541 -0.7992
 1233TIP3    H225115   5.004   6.456  12.300  1.3661  1.8220  0.1573
 1234TIP3   OH225116   3.037   3.280  15.321  0.2482  0.3674  0.0660
 1234TIP3    H125117   3.094   3.286  15.245 -1.3801  1.1438 -1.1755
 1234TIP3    H225118   2.949   3.298  15.286 -0.6864 -0.2175  1.9662
 1235TIP3   OH225119   1.688   4.469   5.295 -0.3892  0.1490  0.4753
 1235TIP3    H125120   1.624   4.540   5.299 -0.2419  0.2603  0.8472
 1235TIP3    H225121   1.741   4.480   5.374  0.5390  0.4793 -0.1848
 1236TIP3   OH225122   3.632   3.644  14.667  0.4542  0.3122 -0.1214
 1236TIP3    H125123   3.673   3.615  14.748 -0.8808  0.1377  0.5068
 1236TIP3    H225124   3.679   3.725  14.644  0.4792  0.6706  1.1206
 1237TIP3   OH225125   2.170   3.754   1.589 -0.1192 -0.2857  0.0535
 1237TIP3    H125126   2.138   3.839   1.559 -0.7955 -0.5845 -0.0859
 1237TIP3    H225127   2.180   3.764   1.683 -1.1821 -0.3586  0.1834
 1238TIP3   OH225128   5.050   3.453   3.309 -0.7868  0.5780 -0.3302
 1238TIP3    H125129   5.102   3.525   3.346 -1.0257  0.5958 -0.0243
 1238TIP3    H225130   5.062   3.381   3.370 -0.2711  0.2446 -0.8192
 1239TIP3   OH225131   2.691   0.734  11.867  0.1781  1.3047 -0.4483
 1239TIP3    H125132   2.748   0.671  11.912  0.7779  2.2069  0.0826
 1239TIP3    H225133   2.745   0.768  11.796 -0.5172  0.4393 -1.4339
 1240TIP3   OH225134   3.941   6.581   4.606  0.7901 -0.0854 -0.1029
 1240TIP3    H125135   3.915   6.525   4.533 -1.3647  1.1156 -0.3527
 1240TIP3    H225136   3.997   6.647   4.567 -1.3333  1.2768 -1.0135
 1241TIP3   OH225137   0.698   6.485   1.454 -0.1942  0.0105 -0.3568
 1241TIP3    H125138   0.675   6.505   1.363 -0.1511 -1.6018 -0.7505
 1241TIP3    H225139   0.756   6.410   1.448 -0.1948 -0.1258  1.0238
 1242TIP3   OH225140   2.671   2.432   5.414 -0.0499  0.3590 -0.0247
 1242TIP3    H125141   2.637   2.484   5.487  2.3675  0.8275  0.8768
 1242TIP3    H225142   2.667   2.491   5.338 -1.4321  0.2945 -0.0222
 1243TIP3   OH225143   5.484   5.323   1.925 -0.6218  0.3909  0.1105
 1243TIP3    H125144   5.429   5.261   1.972 -1.9315  1.1159 -0.3926
 1243TIP3    H225145   5.431   5.349   1.849 -0.1822  2.1992  0.3636
 1244TIP3   OH225146   0.658   3.519   2.519  0.0706 -0.5088  0.3266
 1244TIP3    H125147   0.708   3.455   2.469 -1.4926 -1.0174 -0.6572
 1244TIP3    H225148   0.655   3.484   2.608  0.3029 -1.1605  0.0759
 1245TIP3   OH225149   4.225   6.471   4.840 -0.7654  0.3833 -0.0918
 1245TIP3    H125150   4.258   6.382   4.838 -1.5580  0.0157  1.7495
 1245TIP3    H225151   4.135   6.464   4.808 -1.1761  0.3426  1.0531
 1246TIP3   OH225152   4.449   0.808  10.444 -0.5772  0.0558  0.5750
 1246TIP3    H125153   4.364   0.825  10.403  0.5477 -0.1127 -1.9675
 1246TIP3    H225154   4.445   0.716  10.469 -0.9553 -0.0726  0.0549
 1247TIP3   OH225155   4.234   6.773   1.025  0.4952  0.3883 -0.3074
 1247TIP3    H125156   4.201   6.847   1.076 -0.3539  0.5927 -1.1108
 1247TIP3    H225157   4.181   6.698   1.055  1.5895 -0.0021  0.7566
 1248TIP3   OH225158   6.803   5.723  15.663  0.0534 -0.0413  0.9301
 1248TIP3    H125159   6.861   5.734  15.588 -1.0932  1.2516  0.1663
 1248TIP3    H225160   6.724   5.683  15.627 -0.5971  0.7895  1.3936
 1249TIP3   OH225161   0.409   2.615  11.311  0.0411 -0.8935  0.2037
 1249TIP3    H125162   0.436   2.698  11.271  0.5372 -1.3183 -0.3524
 1249TIP3    H225163   0.314   2.614  11.301  0.0857 -0.6392 -0.2896
 1250TIP3   OH225164   5.987   1.383   0.603 -0.0917  0.0253 -0.3937
 1250TIP3    H125165   6.047   1.309   0.610  1.1622  0.8047 -2.1846
 1250TIP3    H225166   5.959   1.384   0.512 -0.2929  1.5730 -0.3532
 1251TIP3   OH225167   2.746   2.241   3.401  0.4373  0.5634  0.0707
 1251TIP3    H125168   2.687   2.288   3.342 -0.5442 -0.0711  0.5229
 1251TIP3    H225169   2.814   2.305   3.423 -0.7475  1.7104  0.5153
 1252TIP3   OH225170   1.492   0.713  15.575 -0.3880 -0.4940 -0.1244
 1252TIP3    H125171   1.497   0.703  15.480  1.1771 -0.6524 -0.0520
 1252TIP3    H225172   1.582   0.730  15.602 -0.9426  0.4708  1.2431
 1253TIP3   OH225173   5.942   2.816  12.408 -0.3746 -0.0032 -0.7137
 1253TIP3    H125174   5.988   2.734  12.390  0.7334 -0.0686  1.9153
 1253TIP3    H225175   6.004   2.885  12.382 -0.5171 -0.0164 -1.0959
 1254TIP3   OH225176   6.454   4.301  16.694 -0.2116 -0.1416  0.3377
 1254TIP3    H125177   6.533   4.355  16.699 -0.0712  0.1387 -2.8391
 1254TIP3    H225178   6.485   4.213  16.675 -0.6151  0.0186 -1.1912
 1255TIP3   OH225179   3.074   6.102   1.855 -0.8464  0.2131  0.3013
 1255TIP3    H125180   3.040   6.113   1.944 -1.9516  1.4435 -0.2233
 1255TIP3    H225181   2.996   6.089   1.801 -0.2701  0.3549 -0.5956
 1256TIP3   OH225182   6.237   5.809  16.954 -0.5257 -0.3047  0.2702
 1256TIP3    H125183   6.277   5.793  17.039  0.5878 -4.0572 -0.7816
 1256TIP3    H225184   6.216   5.903  16.955 -2.9069 -0.5456  5.5277
 1257TIP3   OH225185   0.428   2.580   3.205  0.4550 -0.6025 -0.0864
 1257TIP3    H125186   0.369   2.539   3.268  0.8705  0.0940  0.7877
 1257TIP3    H225187   0.371   2.611   3.135  0.1243 -2.5870 -0.7624
 1258TIP3   OH225188   5.505   5.530  11.585 -0.0443  0.1283  0.6439
 1258TIP3    H125189   5.597   5.542  11.608  0.7637 -1.9989 -1.1107
 1258TIP3    H225190   5.475   5.458  11.641 -0.4140  0.2830  0.6507
 1259TIP3   OH225191   0.604   2.632  11.489  0.6040  0.1836  0.1957
 1259TIP3    H125192   0.614   2.727  11.482 -0.5916  0.3763  0.7159
 1259TIP3    H225193   0.538   2.610  11.423  0.3438 -0.1725  0.5684
 1260TIP3   OH225194   5.498   0.483   4.235  0.6329 -0.0847  0.5971
 1260TIP3    H125195   5.589   0.479   4.265  0.7249 -0.9149  0.2499
 1260TIP3    H225196   5.454   0.416   4.287  0.5345 -0.6863 -0.2467
 1261TIP3   OH225197   1.128   6.744  12.505 -0.1087 -0.6417  0.4003
 1261TIP3    H125198   1.098   6.658  12.476 -0.7947 -0.8567  1.6873
 1261TIP3    H225199   1.171   6.782  12.428 -0.2600 -1.9165 -0.3295
 1262TIP3   OH225200   4.897   0.441   5.664 -0.1911 -0.4267  0.1930
 1262TIP3    H125201   4.813   0.472   5.632 -0.7045 -1.4135  0.5256
 1262TIP3    H225202   4.962   0.500   5.626 -0.7842 -1.3739 -2.4629
 1263TIP3   OH225203   3.773   5.792   1.771  0.0889  0.2204  0.0318
 1263TIP3    H125204   3.826   5.817   1.846  0.7855 -2.2429  0.4407
 1263TIP3    H225205   3.794   5.858   1.704  2.3109  0.3469  0.7738
 1264TIP3   OH225206   5.684   3.040  14.813 -0.2719 -0.8445 -0.2115
 1264TIP3    H125207   5.754   2.998  14.862  0.9986  0.3523 -0.9526
 1264TIP3    H225208   5.625   2.968  14.789  1.6361 -2.1574 -1.1336
 1265TIP3   OH225209   4.157   4.180   6.641  0.6208  0.5388  0.0813
 1265TIP3    H125210   4.166   4.130   6.560  1.0405  2.3726 -1.0767
 1265TIP3    H225211   4.242   4.221   6.653  0.6373  0.1183  1.6113
 1266TIP3   OH225212   6.034   0.554   3.671  1.0528 -0.2803  0.3036
 1266TIP3    H125213   6.062   0.582   3.584  1.1112 -1.5332 -0.0971
 1266TIP3    H225214   5.939   0.546   3.665  0.8058  1.4951  0.9410
 1267TIP3   OH225215   6.303   1.123   0.460  0.2941 -0.2189  0.0208
 1267TIP3    H125216   6.244   1.179   0.410  1.6404 -0.4075 -1.8931
 1267TIP3    H225217   6.265   1.121   0.548 -1.3733  1.3234 -0.5907
 1268TIP3   OH225218   5.763   6.726  13.473 -1.1515 -0.2759 -0.8485
 1268TIP3    H125219   5.778   6.820  13.482 -0.2717 -0.3173 -1.6216
 1268TIP3    H225220   5.744   6.695  13.561  2.2302  0.0503  0.1319
 1269TIP3   OH225221   4.623   6.647   0.216  0.0201 -0.2418 -0.0266
 1269TIP3    H125222   4.672   6.580   0.264  0.2410 -0.1929 -0.1796
 1269TIP3    H225223   4.544   6.603   0.186 -1.4551  0.3869  2.6463
 1270TIP3   OH225224   3.116   1.514   4.265  0.3331  0.4247  0.3115
 1270TIP3    H125225   3.041   1.471   4.305 -0.4893  1.6084  0.0916
 1270TIP3    H225226   3.080   1.561   4.190  1.4372  0.3071 -0.3066
 1271TIP3   OH225227   1.017   2.685  16.015 -0.2267  0.1501 -0.7900
 1271TIP3    H125228   0.992   2.777  16.026  0.2707  0.5363 -2.4958
 1271TIP3    H225229   0.944   2.645  15.969 -0.8000 -0.5396  0.6798
 1272TIP3   OH225230   6.681   3.012  17.122 -0.0115 -0.4989 -0.2411
 1272TIP3    H125231   6.698   3.094  17.076 -0.6942 -0.0628  0.2551
 1272TIP3    H225232   6.665   2.948  17.053  3.7564 -1.0559 -0.7943
 1273TIP3   OH225233   3.425   2.357   3.873 -0.0723  0.1404 -0.3459
 1273TIP3    H125234   3.430   2.274   3.826 -1.3196 -0.9607  1.3234
 1273TIP3    H225235   3.380   2.416   3.813  1.2245 -0.2226 -1.7355
 1274TIP3   OH225236   2.073   0.902   0.881  0.3119  0.0963  0.1779
 1274TIP3    H125237   2.133   0.828   0.877  0.7007  0.4525 -0.8065
 1274TIP3    H225238   2.042   0.913   0.791  0.4620  1.2946  0.2566
 1275TIP3   OH225239   5.308   0.706  11.284  0.4415 -0.0029 -0.0763
 1275TIP3    H125240   5.329   0.638  11.349  2.4461 -1.2840 -1.9372
 1275TIP3    H225241   5.290   0.784  11.336 -3.6088 -2.1487  2.2989
 1276TIP3   OH225242   1.545   3.916  14.345 -0.0213 -0.2643 -0.0630
 1276TIP3    H125243   1.488   3.976  14.393  0.6210 -0.6698  1.2457
 1276TIP3    H225244   1.496   3.834  14.341 -1.7289  0.7330 -3.4918
 1277TIP3   OH225245   4.784   1.080  12.455  0.3417  1.0125  0.1486
 1277TIP3    H125246   4.804   0.989  12.431 -2.1374  0.9465 -2.1594
 1277TIP3    H225247   4.865   1.128  12.441  0.8648 -0.3253 -1.8289
 1278TIP3   OH225248   1.232   6.545  14.827  0.3136  0.0770  0.0284
 1278TIP3    H125249   1.274   6.509  14.749  0.9977 -0.3874  0.5980
 1278TIP3    H225250   1.143   6.508  14.826  0.0451  0.7203 -0.9521
 1279TIP3   OH225251   6.687   0.844   2.796 -0.1891 -0.5328 -0.1685
 1279TIP3    H125252   6.700   0.879   2.884 -1.2752 -0.4589 -0.0202
 1279TIP3    H225253   6.775   0.830   2.762  0.3262  2.6867 -0.3927
 1280TIP3   OH225254   5.563   0.562   5.998  0.0277  0.1403  0.0406
 1280TIP3    H125255   5.537   0.639   6.049  1.1783 -0.3488  1.4391
 1280TIP3    H225256   5.504   0.493   6.027  0.8284 -0.1952  0.9140
 1281TIP3   OH225257   5.929   5.713   1.665  0.1505 -0.3012 -0.3511
 1281TIP3    H125258   5.909   5.722   1.572  0.2854  0.7527 -0.2874
 1281TIP3    H225259   5.887   5.789   1.706 -2.2324 -2.1279  0.8455
 1282TIP3   OH225260   1.577   6.067   5.297  0.2847 -0.0700  0.3745
 1282TIP3    H125261   1.657   6.022   5.322  0.6268  0.5367  0.3979
 1282TIP3    H225262   1.529   6.004   5.243  0.3942 -0.7274  1.0253
 1283TIP3   OH225263   3.806   6.486  10.952 -0.3914 -0.5028 -0.2869
 1283TIP3    H125264   3.894   6.447  10.959  0.0161  0.2741 -0.9669
 1283TIP3    H225265   3.808   6.534  10.870 -0.6924  1.3979  0.7642
 1284TIP3   OH225266   5.860   5.986  16.134  0.1481 -0.1872  0.0922
 1284TIP3    H125267   5.860   5.936  16.052  1.3852 -0.9200  0.5128
 1284TIP3    H225268   5.769   5.986  16.163  0.0265 -1.6327 -0.2537
 1285TIP3   OH225269   1.838   0.277   2.201 -0.3039 -0.4233 -0.0826
 1285TIP3    H125270   1.795   0.315   2.124  0.6435  1.6134  0.3211
 1285TIP3    H225271   1.904   0.218   2.165 -0.4686 -0.1710 -0.8090
 1286TIP3   OH225272   2.285   3.088  14.680  1.1069  0.7708 -0.0283
 1286TIP3    H125273   2.310   3.144  14.606  0.5106 -0.6875 -1.4097
 1286TIP3    H225274   2.189   3.090  14.681  1.1107  2.2602  1.9549
 1287TIP3   OH225275   2.381   1.085  14.873  0.2030 -0.3739 -0.3121
 1287TIP3    H125276   2.401   1.006  14.924 -3.2828 -0.7670  0.7327
 1287TIP3    H225277   2.426   1.155  14.919  1.9441 -1.4780 -0.2379
 1288TIP3   OH225278   3.164   2.497   2.236  0.3944  0.2063  0.1572
 1288TIP3    H125279   3.226   2.464   2.172 -0.0604 -0.5931  0.1257
 1288TIP3    H225280   3.175   2.441   2.313  0.2157  0.5086  0.4099
 1289TIP3   OH225281   5.632   4.507  13.541  0.5443 -0.7663 -0.2380
 1289TIP3    H125282   5.688   4.521  13.464 -0.5770 -0.6461 -1.0569
 1289TIP3    H225283   5.667   4.567  13.607  0.5339  0.3500 -1.2012
 1290TIP3   OH225284   3.580   5.288  14.317  0.1932 -0.0792  0.4022
 1290TIP3    H125285   3.527   5.310  14.241  2.7215  1.9096 -0.9404
 1290TIP3    H225286   3.535   5.332  14.390 -0.3525  1.0640 -0.5817
 1291TIP3   OH225287   5.845   1.473  15.311  0.1190  0.1266 -0.3939
 1291TIP3    H125288   5.873   1.543  15.370 -1.0597  0.2419  0.0588
 1291TIP3    H225289   5.905   1.478  15.237  0.9857  0.6372  0.3318
 1292TIP3   OH225290   1.788   5.606   0.097  0.5429  0.2344 -0.1740
 1292TIP3    H125291   1.864   5.660   0.117  0.3354  0.8697 -1.0429
 1292TIP3    H225292   1.714   5.654   0.134  0.5165 -0.1910  0.3341
 1293TIP3   OH225293   4.254   1.820  14.884 -0.6098 -0.1410 -0.1589
 1293TIP3    H125294   4.217   1.908  14.874 -0.6110 -0.2076 -0.7432
 1293TIP3    H225295   4.178   1.765  14.905 -0.7417 -0.1603 -0.6908
 1294TIP3   OH225296   4.947   2.320  11.555  0.2049 -0.0996 -0.4789
 1294TIP3    H125297   4.991   2.377  11.492 -0.4170 -2.2254 -2.9733
 1294TIP3    H225298   4.861   2.360  11.568  0.4327  0.4977 -0.7760
 1295TIP3   OH225299   3.985   5.958  15.107 -0.3101  0.1110 -0.1377
 1295TIP3    H125300   3.934   5.903  15.047 -2.3905  1.0506  0.6753
 1295TIP3    H225301   3.997   5.904  15.184  1.6238 -0.7837 -0.9908
 1296TIP3   OH225302   6.083   2.176   1.113  0.1961  0.1908  0.0189
 1296TIP3    H125303   6.115   2.253   1.159  1.3091 -0.6480  0.6967
 1296TIP3    H225304   6.040   2.210   1.034  0.2177  1.5112  0.5657
 1297TIP3   OH225305   2.913   5.949  13.330 -0.0616 -0.0694  0.1801
 1297TIP3    H125306   2.917   5.996  13.413  0.3040  1.5891 -0.7323
 1297TIP3    H225307   2.921   6.017  13.263 -0.4119 -1.3496 -1.2262
 1298TIP3   OH225308   3.972   1.612   1.161 -0.0552  0.3765 -0.8254
 1298TIP3    H125309   3.973   1.549   1.089  0.2212  0.5133 -0.9426
 1298TIP3    H225310   3.960   1.697   1.118  2.0248  0.6831 -0.8982
 1299TIP3   OH225311   5.870   3.316   1.819 -0.1953 -0.5207 -0.7525
 1299TIP3    H125312   5.798   3.364   1.861 -1.2776 -2.5766 -0.0719
 1299TIP3    H225313   5.905   3.376   1.754 -2.0352  0.8379 -0.5610
 1300TIP3   OH225314   4.517   5.315   4.506  0.5730 -0.5420 -0.3405
 1300TIP3    H125315   4.439   5.360   4.474  0.1763  0.1874  1.4908
 1300TIP3    H225316   4.574   5.386   4.537  0.4454 -1.1768  1.5130
 1301TIP3   OH225317   3.122   1.224   0.460 -0.2786  0.1969  0.0357
 1301TIP3    H125318   3.157   1.191   0.378  0.2436  0.7659  0.0178
 1301TIP3    H225319   3.075   1.150   0.498 -0.1695 -0.1906 -0.5756
 1302TIP3   OH225320   1.800   3.796  15.603  0.3488  0.3943  0.0740
 1302TIP3    H125321   1.812   3.733  15.532  0.0275 -0.0050  0.3701
 1302TIP3    H225322   1.783   3.880  15.559  3.1711  0.8259 -0.3927
 1303TIP3   OH225323   4.435   2.285   5.291  0.2363  0.6457  0.5082
 1303TIP3    H125324   4.515   2.240   5.320 -0.3793  0.1746  1.5362
 1303TIP3    H225325   4.404   2.233   5.217 -1.1547 -1.4665  2.4490
 1304TIP3   OH225326   5.381   3.233   3.365 -0.1654  0.2265 -0.1446
 1304TIP3    H125327   5.323   3.294   3.410 -0.7344 -0.2832 -0.1752
 1304TIP3    H225328   5.381   3.155   3.421  1.7967  0.7992  0.7258
 1305TIP3   OH225329   3.930   5.789   0.358  0.6825  0.6683  0.0483
 1305TIP3    H125330   3.955   5.854   0.424  0.8220 -0.0681  0.7271
 1305TIP3    H225331   3.952   5.831   0.274 -1.4586  2.5228  0.2877
 1306TIP3   OH225332   4.752   3.311   1.589  0.2122  0.5380 -0.5624
 1306TIP3    H125333   4.728   3.402   1.604  2.2111  1.0303 -0.1478
 1306TIP3    H225334   4.847   3.309   1.593  0.2019 -1.8357  0.9335
 1307TIP3   OH225335   5.162   6.748  13.363  0.5456 -0.0767 -0.5588
 1307TIP3    H125336   5.076   6.771  13.326 -0.3429  1.0657  2.0189
 1307TIP3    H225337   5.200   6.832  13.388  1.1743 -0.7811  0.9274
 1308TIP3   OH225338   1.557   6.244  12.944  0.2289  0.8040  0.5327
 1308TIP3    H125339   1.464   6.225  12.935  0.8798 -2.0539 -1.3966
 1308TIP3    H225340   1.571   6.250  13.039 -1.6048 -0.7303  0.9573
 1309TIP3   OH225341   2.731   1.994  15.770  0.3108  0.4029 -0.2201
 1309TIP3    H125342   2.707   2.066  15.711  0.3586 -0.2622 -1.0734
 1309TIP3    H225343   2.782   1.935  15.715  0.9719  0.1163  0.6878
 1310TIP3   OH225344   0.129   2.596  15.016 -0.2846  0.3921 -0.3258
 1310TIP3    H125345   0.133   2.552  15.101  1.2251  2.4216  0.7409
 1310TIP3    H225346   0.169   2.534  14.955  2.3699  0.4189  1.2375
 1311TIP3   OH225347   2.436   4.547  14.577  0.5753  0.2871  0.0525
 1311TIP3    H125348   2.377   4.485  14.621  0.2797  0.0205 -0.7079
 1311TIP3    H225349   2.390   4.630  14.579 -0.2993 -0.1336 -1.4328
 1312TIP3   OH225350   1.365   5.744  16.182 -0.2601  0.2600 -0.6992
 1312TIP3    H125351   1.363   5.655  16.215  1.0913  0.4616  0.0148
 1312TIP3    H225352   1.444   5.748  16.129  0.5072  1.4052  0.4716
 1313TIP3   OH225353   6.162   4.669  15.357  0.0530  0.0510 -0.1765
 1313TIP3    H125354   6.218   4.623  15.419  1.9675 -0.5374 -2.2065
 1313TIP3    H225355   6.076   4.628  15.367  0.1864  0.1842  2.2088
 1314TIP3   OH225356   5.899   5.955   1.791  0.0723 -0.5122 -0.6799
 1314TIP3    H125357   5.923   5.963   1.883  0.0048 -0.0810 -0.7010
 1314TIP3    H225358   5.858   6.038   1.769 -0.9735 -1.0316 -0.7814
 1315TIP3   OH225359   4.654   4.047   5.737 -0.3051  0.0090 -0.0829
 1315TIP3    H125360   4.707   4.117   5.699  1.7660 -2.1097 -1.3590
 1315TIP3    H225361   4.605   4.090   5.807  1.1331  2.6445 -0.5494
 1316TIP3   OH225362   4.807   5.515  10.786 -0.1148 -0.1384 -0.1588
 1316TIP3    H125363   4.878   5.451  10.794 -0.8385 -1.0180 -0.6353
 1316TIP3    H225364   4.847   5.590  10.744  0.8223 -0.1462  0.6805
 1317TIP3   OH225365   2.232   4.616  11.277 -0.2210 -0.0615 -0.1832
 1317TIP3    H125366   2.278   4.683  11.327 -0.2965  0.4621 -0.8185
 1317TIP3    H225367   2.140   4.625  11.304 -0.3628  0.6439 -0.8829
 1318TIP3   OH225368   4.285   1.120   0.762  0.0731  0.3672  0.0535
 1318TIP3    H125369   4.336   1.039   0.754  0.0275  0.3450 -0.0103
 1318TIP3    H225370   4.351   1.189   0.764  0.0766  0.4002 -0.8480
 1319TIP3   OH225371   5.468   5.602  15.159 -0.8561 -0.1625  0.4279
 1319TIP3    H125372   5.404   5.672  15.173  0.9125  2.1186 -2.0307
 1319TIP3    H225373   5.553   5.644  15.172  0.2919 -1.9469 -0.8343
 1320TIP3   OH225374   1.728   1.713   4.992  0.1080  0.4219  0.0983
 1320TIP3    H125375   1.816   1.746   4.978  1.1333 -1.9959  0.4476
 1320TIP3    H225376   1.711   1.726   5.085  0.3226  0.3611  0.1446
 1321TIP3   OH225377   0.600   0.278   4.423  0.1437  0.0680 -0.0390
 1321TIP3    H125378   0.616   0.243   4.335  0.3554 -1.4527  0.5735
 1321TIP3    H225379   0.637   0.366   4.421  1.4287 -0.4703 -1.0497
 1322TIP3   OH225380   3.027   5.671   0.345 -0.0114  0.5066 -0.2973
 1322TIP3    H125381   3.074   5.597   0.308 -0.2684  0.6741 -0.9755
 1322TIP3    H225382   2.935   5.654   0.325  0.0054  1.4672 -1.3239
 1323TIP3   OH225383   0.796   1.325   4.221 -0.0957 -0.4218 -0.0067
 1323TIP3    H125384   0.756   1.412   4.219  1.5210  0.4552  2.0204
 1323TIP3    H225385   0.735   1.270   4.172 -2.7510  1.2249  1.1922
 1324TIP3   OH225386   1.766   0.223  15.093  0.0522  0.2950 -0.7121
 1324TIP3    H125387   1.753   0.278  15.016 -0.6508  0.2081 -0.6599
 1324TIP3    H225388   1.826   0.273  15.148  1.3675 -0.0892 -1.7523
 1325TIP3   OH225389   0.739   2.911  13.707  0.3592  0.3091 -0.4638
 1325TIP3    H125390   0.776   2.880  13.790 -0.9276 -2.1455 -0.7022
 1325TIP3    H225391   0.709   2.831  13.664 -1.3741  1.7740 -2.1251
 1326TIP3   OH225392   1.848   3.105  13.437 -0.0851 -0.8015 -0.2839
 1326TIP3    H125393   1.826   3.020  13.475  0.5313 -0.9945 -0.3437
 1326TIP3    H225394   1.845   3.090  13.343  2.1862 -1.3738 -0.3274
 1327TIP3   OH225395   3.313   6.308  13.687  0.9487  0.7489  0.1494
 1327TIP3    H125396   3.401   6.282  13.659  0.7339 -0.8118  0.7852
 1327TIP3    H225397   3.270   6.225  13.709 -0.9799  1.3999 -0.9722
 1328TIP3   OH225398   2.983   3.933  14.515 -0.3746  0.5930 -0.4667
 1328TIP3    H125399   3.008   3.849  14.552  0.0220  0.4197 -1.1206
 1328TIP3    H225400   2.928   3.973  14.583  0.6695  0.4652  0.4930
 1329TIP3   OH225401   5.199   4.114   3.400  0.0394  0.0588 -0.0419
 1329TIP3    H125402   5.287   4.150   3.400  0.0044  0.2147  1.6466
 1329TIP3    H225403   5.141   4.190   3.404 -0.1984 -0.0435 -1.0881
 1330TIP3   OH225404   2.647   4.028   0.313 -0.1676 -0.8729 -0.1293
 1330TIP3    H125405   2.651   4.058   0.404  2.4157 -0.1387 -0.4157
 1330TIP3    H225406   2.573   3.967   0.311 -0.4004 -0.7746  2.4081
 1331TIP3   OH225407   1.436   3.196   1.445  0.2889 -0.2757 -0.0231
 1331TIP3    H125408   1.487   3.138   1.389  0.5448 -1.4031  1.3163
 1331TIP3    H225409   1.367   3.230   1.388 -0.3088 -2.4679 -0.7106
 1332TIP3   OH225410   5.438   5.721   1.406  0.0896 -0.1126  0.1731
 1332TIP3    H125411   5.434   5.640   1.457  0.4986  0.4938  1.1992
 1332TIP3    H225412   5.509   5.707   1.343 -0.7107 -1.0338 -0.5643
 1333TIP3   OH225413   2.022   1.017  16.450 -0.3745 -0.3345  0.2967
 1333TIP3    H125414   2.076   1.089  16.481 -0.1980 -0.5206  0.4223
 1333TIP3    H225415   2.082   0.960  16.403 -0.1096 -1.3754  1.7990
 1334TIP3   OH225416   4.340   5.406   6.537  0.2058 -0.1766 -0.1031
 1334TIP3    H125417   4.361   5.497   6.517 -0.0611 -0.2888 -0.9406
 1334TIP3    H225418   4.420   5.358   6.516 -0.0310 -0.2783 -0.7830
 1335TIP3   OH225419   1.176   0.295   4.256 -0.0438 -0.2012 -0.1343
 1335TIP3    H125420   1.248   0.312   4.317 -0.1242 -1.6766  0.4004
 1335TIP3    H225421   1.096   0.310   4.308 -0.1771  1.7171 -0.8025
 1336TIP3   OH225422   1.553   2.703   3.393  0.2046  0.5514 -0.3403
 1336TIP3    H125423   1.581   2.734   3.307 -0.4829  1.4791 -0.2475
 1336TIP3    H225424   1.474   2.754   3.413  0.3467  0.3509  0.8369
 1337TIP3   OH225425   2.427   6.555  11.373  0.8610 -0.4624 -0.0123
 1337TIP3    H125426   2.407   6.500  11.297  0.8769  0.5710 -0.7935
 1337TIP3    H225427   2.353   6.542  11.432  0.4787 -0.7154 -0.5331
 1338TIP3   OH225428   6.639   6.159  13.523 -0.1460 -0.2537 -0.2438
 1338TIP3    H125429   6.580   6.100  13.477 -2.1251  1.3948  0.0448
 1338TIP3    H225430   6.646   6.236  13.465 -0.2366  0.5628  0.7932
 1339TIP3   OH225431   0.710   4.167  14.731  0.3089 -0.3362  0.4169
 1339TIP3    H125432   0.618   4.157  14.705 -0.0234  0.5307  1.2208
 1339TIP3    H225433   0.734   4.255  14.699  0.5308 -0.1235  1.1610
 1340TIP3   OH225434   6.712   1.762  15.699  0.7339 -0.1252  0.1227
 1340TIP3    H125435   6.797   1.755  15.743  1.9341 -0.7294 -2.1194
 1340TIP3    H225436   6.680   1.849  15.722  1.7746 -0.0185  1.3037
 1341TIP3   OH225437   6.492   5.422   2.975 -0.0517  0.1835 -0.5138
 1341TIP3    H125438   6.425   5.390   2.914 -0.8507  0.3001  0.2688
 1341TIP3    H225439   6.570   5.436   2.922 -1.1541  1.7404 -1.8175
 1342TIP3   OH225440   4.483   6.802   5.213  0.0025  0.1466 -0.4898
 1342TIP3    H125441   4.563   6.800   5.265 -0.0304 -1.0253 -0.4556
 1342TIP3    H225442   4.513   6.819   5.124  0.0293  2.5418 -0.0998
 1343TIP3   OH225443   0.416   1.301  16.272  0.3678 -0.2559  0.3791
 1343TIP3    H125444   0.412   1.234  16.340  0.4687 -0.3499  0.2930
 1343TIP3    H225445   0.509   1.323  16.265  0.3546 -0.2251  0.2938
 1344TIP3   OH225446   0.388   0.856   0.257 -0.1531  0.2603 -0.2325
 1344TIP3    H125447   0.381   0.803   0.177 -1.2622 -0.9524  0.6248
 1344TIP3    H225448   0.378   0.793   0.328 -1.6318  1.6314  0.8432
 1345TIP3   OH225449   1.805   3.238  12.572 -0.2558 -0.0235 -0.0518
 1345TIP3    H125450   1.758   3.189  12.504 -1.6397  0.7730  0.2899
 1345TIP3    H225451   1.741   3.250  12.642  0.2675  1.5910  0.2041
 1346TIP3   OH225452   0.572   5.545   5.160 -0.1387 -0.3203  0.0040
 1346TIP3    H125453   0.604   5.459   5.134  0.7382  0.5637 -2.1140
 1346TIP3    H225454   0.641   5.582   5.215  1.6044  0.6569 -2.6440
 1347TIP3   OH225455   2.225   3.700   4.241  0.1418 -0.2710  0.0632
 1347TIP3    H125456   2.159   3.647   4.197  0.7072 -0.8551 -0.0977
 1347TIP3    H225457   2.214   3.788   4.204 -0.6820 -0.3047  0.2013
 1348TIP3   OH225458   3.125   5.069  15.926 -0.4768  0.3477 -0.6000
 1348TIP3    H125459   3.148   5.161  15.918 -2.1655  0.9429  0.7538
 1348TIP3    H225460   3.100   5.058  16.018  1.5192 -1.9361 -0.2056
 1349TIP3   OH225461   2.905   0.170   3.808  0.0581 -0.2855  0.4356
 1349TIP3    H125462   2.911   0.263   3.785 -1.6456 -0.2701 -0.0620
 1349TIP3    H225463   2.969   0.159   3.878  0.2673  1.2822  0.5316
 1350TIP3   OH225464   5.848   6.135  15.027 -0.2500  0.1618 -0.4431
 1350TIP3    H125465   5.771   6.088  15.060  0.0248 -1.6525 -2.1973
 1350TIP3    H225466   5.820   6.226  15.024 -1.5089 -0.1168  1.1740
 1351TIP3   OH225467   0.262   3.645   2.922  0.4563  0.1533  0.3381
 1351TIP3    H125468   0.215   3.568   2.954  0.0280  0.3225  0.1321
 1351TIP3    H225469   0.291   3.690   3.001 -2.4470  1.7220  0.6466
 1352TIP3   OH225470   2.885   5.765   4.046 -0.5998  0.5087  0.5941
 1352TIP3    H125471   2.927   5.842   4.085 -1.7409  1.2273  0.4311
 1352TIP3    H225472   2.829   5.730   4.115  0.0996 -0.3423  0.7488
 1353TIP3   OH225473   1.343   0.706   5.077  0.2598 -0.3467  0.3724
 1353TIP3    H125474   1.383   0.621   5.061  0.5551  0.0063 -0.9525
 1353TIP3    H225475   1.398   0.767   5.027  1.7636  1.0692  3.4792
 1354TIP3   OH225476   0.637   5.121   2.743 -0.1694  0.1463  0.4115
 1354TIP3    H125477   0.716   5.087   2.701 -0.4913  0.0118 -0.1048
 1354TIP3    H225478   0.665   5.147   2.830 -0.3252 -3.6100  1.7766
 1355TIP3   OH225479   1.475   5.534   5.548 -0.2847  0.5207 -0.0789
 1355TIP3    H125480   1.438   5.563   5.464  0.1024  0.0891 -0.4047
 1355TIP3    H225481   1.569   5.547   5.538 -0.0093 -1.5486 -0.5308
 1356TIP3   OH225482   5.626   1.140  10.253 -0.2371 -0.5188 -0.2651
 1356TIP3    H125483   5.715   1.104  10.249  0.2035  0.4582  0.3553
 1356TIP3    H225484   5.632   1.223  10.204 -0.3079  0.5071  1.4028
 1357TIP3   OH225485   5.129   2.283  16.445  0.0962 -0.6195  0.4815
 1357TIP3    H125486   5.086   2.208  16.404 -1.1136  0.5023 -0.4096
 1357TIP3    H225487   5.057   2.335  16.481  0.8943  0.1369  1.0271
 1358TIP3   OH225488   5.799   0.380  13.234 -0.0582  0.0079 -0.8658
 1358TIP3    H125489   5.862   0.447  13.256 -0.8955 -0.0077  1.9121
 1358TIP3    H225490   5.783   0.391  13.140  1.9781  1.7523 -1.0568
 1359TIP3   OH225491   4.799   1.278   4.857  0.0485  0.4066  0.0671
 1359TIP3    H125492   4.774   1.347   4.795  0.5252  0.6024  0.0842
 1359TIP3    H225493   4.890   1.299   4.880  0.6819 -0.9994 -1.0009
 1360TIP3   OH225494   6.113   2.247  16.604  0.1609 -0.0144 -0.4902
 1360TIP3    H125495   6.163   2.209  16.532 -0.2717 -0.9660 -0.3039
 1360TIP3    H225496   6.033   2.280  16.563  0.5297  0.6919 -0.6489
 1361TIP3   OH225497   5.041   3.698  14.862  0.7501  0.4068  0.3319
 1361TIP3    H125498   5.098   3.693  14.939 -0.8361  0.9985  1.6142
 1361TIP3    H225499   5.076   3.632  14.802  1.1939 -1.1192  2.1611
 1362TIP3   OH225500   1.521   6.356   5.074 -0.3394 -0.1430  0.6408
 1362TIP3    H125501   1.545   6.268   5.045 -0.9318  0.0022 -0.3311
 1362TIP3    H225502   1.455   6.342   5.142 -1.1899 -0.4358 -0.2317
 1363TIP3   OH225503   1.601   3.591   2.361 -0.3076 -0.3009 -0.1252
 1363TIP3    H125504   1.562   3.508   2.390 -0.0060 -0.2395  0.4719
 1363TIP3    H225505   1.603   3.585   2.266 -1.3596 -0.4980 -0.1515
 1364TIP3   OH225506   4.839   5.814   3.665  0.2628 -0.2549 -0.5592
 1364TIP3    H125507   4.756   5.775   3.692 -0.1975  0.3912 -1.0247
 1364TIP3    H225508   4.833   5.905   3.692  1.2919 -0.4499  0.4183
 1365TIP3   OH225509   0.575   3.842  16.698 -0.5507 -0.1969 -0.2176
 1365TIP3    H125510   0.490   3.843  16.742 -0.8603  0.9414 -0.8243
 1365TIP3    H225511   0.639   3.840  16.770 -1.0643  0.4987  0.2645
 1366TIP3   OH225512   3.500   4.138  15.010 -0.7721  0.1238 -0.1350
 1366TIP3    H125513   3.512   4.063  14.952  0.0732  1.6895 -2.1027
 1366TIP3    H225514   3.588   4.171  15.026 -0.9803 -0.2454  2.1190
 1367TIP3   OH225515   5.758   4.077   0.271  0.3358 -0.6449  0.2466
 1367TIP3    H125516   5.842   4.116   0.246 -0.6427  0.9707 -0.6386
 1367TIP3    H225517   5.778   3.984   0.285  2.1635 -0.3877 -0.4206
 1368TIP3   OH225518   6.502   0.869   2.574  0.3218 -0.0020 -0.1231
 1368TIP3    H125519   6.579   0.872   2.631  0.2380  1.7244 -0.0448
 1368TIP3    H225520   6.536   0.842   2.488  0.6215 -1.4813  0.4238
 1369TIP3   OH225521   1.702   5.422  14.225 -0.2408  0.5083 -0.1250
 1369TIP3    H125522   1.631   5.382  14.275 -1.1656  1.9262 -0.2422
 1369TIP3    H225523   1.780   5.372  14.249 -0.7088  0.9054  2.4465
 1370TIP3   OH225524   1.600   4.501  14.577 -0.1757  0.1757 -0.1874
 1370TIP3    H125525   1.515   4.544  14.562 -0.6667 -0.3715  0.8773
 1370TIP3    H225526   1.591   4.461  14.663  1.6992  1.3397  0.6018
 1371TIP3   OH225527   0.926   1.141  15.370 -0.1343 -0.2836 -0.6531
 1371TIP3    H125528   0.871   1.146  15.292  1.7983 -1.6637 -2.2202
 1371TIP3    H225529   1.011   1.176  15.342  0.4898 -0.3996  0.9631
 1372TIP3   OH225530   6.503   5.453   1.853  0.3060  0.3950  0.3407
 1372TIP3    H125531   6.464   5.371   1.885  2.5420  0.0664  2.4923
 1372TIP3    H225532   6.595   5.447   1.879  1.0620  2.6069 -1.5306
 1373TIP3   OH225533   0.891   5.696  16.895  0.2681  0.3966  0.3456
 1373TIP3    H125534   0.823   5.755  16.928  0.3482  0.2648  0.7618
 1373TIP3    H225535   0.870   5.683  16.803 -1.1040 -0.7708  0.7951
 1374TIP3   OH225536   4.976   6.066   5.692  0.1397 -0.5320 -0.0156
 1374TIP3    H125537   4.886   6.094   5.708 -0.0848 -2.0566  1.6607
 1374TIP3    H225538   4.969   5.998   5.626  0.1493 -0.0932 -0.4688
 1375TIP3   OH225539   2.693   0.704  13.979  0.3372  0.0189 -0.1343
 1375TIP3    H125540   2.782   0.717  14.012 -0.0694  0.9416  0.6136
 1375TIP3    H225541   2.701   0.627  13.922  1.5162 -0.1988  0.2806
 1376TIP3   OH225542   0.887   6.294   4.971 -0.6634  0.6377 -0.2847
 1376TIP3    H125543   0.947   6.223   4.949 -1.2996  0.2812 -0.9271
 1376TIP3    H225544   0.901   6.360   4.903 -1.6898  0.1135 -1.0386
 1377TIP3   OH225545   5.625   1.771  16.144 -0.4023  0.1067  0.1190
 1377TIP3    H125546   5.617   1.863  16.167 -0.5858  0.3742 -0.9757
 1377TIP3    H225547   5.712   1.746  16.175 -0.5497  0.4980  0.8834
 1378TIP3   OH225548   4.560   5.153   1.970 -0.0811  0.3617  0.0664
 1378TIP3    H125549   4.628   5.200   2.019 -0.7808  1.6849 -0.1854
 1378TIP3    H225550   4.479   5.174   2.017 -0.3655 -1.0170  0.2280
 1379TIP3   OH225551   1.273   3.602  16.491  0.5723  0.6124 -0.0622
 1379TIP3    H125552   1.204   3.610  16.425  1.2838  0.3085 -0.8530
 1379TIP3    H225553   1.225   3.587  16.573 -0.2666 -2.6490 -1.0148
 1380TIP3   OH225554   4.283   0.405   4.506 -0.7067 -0.5241 -0.3040
 1380TIP3    H125555   4.372   0.370   4.513 -0.7247 -0.2473  2.4313
 1380TIP3    H225556   4.282   0.453   4.423  1.6168 -0.7228 -0.5057
 1381TIP3   OH225557   5.203   4.074   5.495 -0.3052  0.3593 -0.5337
 1381TIP3    H125558   5.193   4.163   5.530 -0.2400  0.3477 -0.4859
 1381TIP3    H225559   5.126   4.027   5.527  0.4190 -0.0224  0.7399
 1382TIP3   OH225560   6.089   1.847  15.046  0.4636  0.1951  0.2058
 1382TIP3    H125561   6.066   1.827  14.956  2.4180 -2.0123  0.1052
 1382TIP3    H225562   6.179   1.878  15.042  0.0727  1.5792  1.2735
 1383TIP3   OH225563   4.960   2.399  15.094 -0.3747 -0.5706  0.2545
 1383TIP3    H125564   4.869   2.417  15.072 -0.1980  1.1713  0.7950
 1383TIP3    H225565   4.999   2.370  15.012 -1.0401  0.3012 -0.3896
 1384TIP3   OH225566   4.946   3.451   0.655 -0.5200  0.0566  0.1145
 1384TIP3    H125567   4.974   3.418   0.741 -1.0523 -0.7748 -0.0212
 1384TIP3    H225568   4.907   3.537   0.675 -2.6994 -1.0794  1.0561
 1385TIP3   OH225569   3.813   3.009   6.250 -0.5824  0.4250  0.0279
 1385TIP3    H125570   3.829   3.032   6.342 -4.0901  0.7464  0.6935
 1385TIP3    H225571   3.766   2.926   6.254  0.7401 -0.4678 -1.6366
 1386TIP3   OH225572   5.886   4.180   3.763 -0.2287  0.0469  0.1485
 1386TIP3    H125573   5.829   4.252   3.735 -0.9514 -0.7264 -0.4134
 1386TIP3    H225574   5.952   4.174   3.693  1.1657  1.5433  1.2376
 1387TIP3   OH225575   4.194   0.891  11.280  0.0312 -0.9886 -0.3730
 1387TIP3    H125576   4.169   0.843  11.359 -1.8648 -0.9446 -0.9072
 1387TIP3    H225577   4.125   0.957  11.269  1.7763  0.9134 -0.4869
 1388TIP3   OH225578   3.289   3.743   4.337  0.1758 -0.2911 -0.1338
 1388TIP3    H125579   3.359   3.800   4.305 -0.0728 -1.4044 -2.8834
 1388TIP3    H225580   3.209   3.794   4.324  0.1822 -0.2655 -0.0742
 1389TIP3   OH225581   4.808   4.155  13.830 -0.0643  0.0988  0.5597
 1389TIP3    H125582   4.837   4.095  13.899 -0.9787  0.2470  1.0954
 1389TIP3    H225583   4.719   4.180  13.856  0.4129  1.9688  0.5341
 1390TIP3   OH225584   5.098   5.946   0.427  0.4461  0.1037 -0.7899
 1390TIP3    H125585   5.011   5.907   0.441  0.2742  0.1771 -1.5705
 1390TIP3    H225586   5.149   5.876   0.388 -0.0755  0.8145 -2.8867
 1391TIP3   OH225587   1.120   2.062  16.404  0.7898  0.2078 -0.2720
 1391TIP3    H125588   1.039   2.090  16.362 -0.2792 -0.2665  1.3697
 1391TIP3    H225589   1.091   2.015  16.482  2.5811 -2.0245 -0.8460
 1392TIP3   OH225590   2.586   3.886   3.566 -0.2237  0.1219 -0.3796
 1392TIP3    H125591   2.621   3.815   3.621 -0.9968  0.1153  0.1312
 1392TIP3    H225592   2.640   3.962   3.587  0.6727 -0.3368 -0.9994
 1393TIP3   OH225593   5.981   0.784  13.505 -0.2013  0.0958 -0.4675
 1393TIP3    H125594   6.062   0.810  13.549  1.2673 -1.2850 -2.2147
 1393TIP3    H225595   5.933   0.867  13.493  0.2647  0.7765  1.7422
 1394TIP3   OH225596   0.843   1.756  12.588  0.7378 -0.5043  0.2759
 1394TIP3    H125597   0.863   1.664  12.604  1.8026 -0.3940 -0.2959
 1394TIP3    H225598   0.874   1.772  12.499  0.5490  0.3976  0.3636
 1395TIP3   OH225599   4.455   2.342  11.720  0.4389 -0.0057 -0.1537
 1395TIP3    H125600   4.499   2.339  11.805 -0.6324  0.4974  0.4493
 1395TIP3    H225601   4.380   2.400  11.735  0.2192  0.0655 -1.4440
 1396TIP3   OH225602   0.861   4.508  14.903  0.2513  0.0292 -0.4865
 1396TIP3    H125603   0.872   4.429  14.956  0.8271 -0.2936 -1.0745
 1396TIP3    H225604   0.775   4.541  14.928  0.6840  0.1303  0.9689
 1397TIP3   OH225605   2.827   0.214   0.169  0.1765  0.1423  0.6390
 1397TIP3    H125606   2.892   0.279   0.143  0.9912 -0.8747 -0.0017
 1397TIP3    H225607   2.768   0.260   0.228 -0.2779  1.8988 -1.0845
 1398TIP3   OH225608   4.350   3.769  11.626  0.0147 -0.8422  0.5358
 1398TIP3    H125609   4.439   3.773  11.591 -0.6867  1.4536 -1.2186
 1398TIP3    H225610   4.358   3.799  11.716  0.8069  1.3341 -0.2004
 1399TIP3   OH225611   5.388   5.120   1.289 -0.0736 -0.3367  0.4394
 1399TIP3    H125612   5.404   5.160   1.204 -0.8909  0.8593  0.8086
 1399TIP3    H225613   5.387   5.026   1.272 -2.3926 -0.0915 -1.3224
 1400TIP3   OH225614   1.940   0.330  15.313  0.1932  0.5872 -0.1195
 1400TIP3    H125615   1.918   0.417  15.344 -2.1271  0.6406 -1.6189
 1400TIP3    H225616   2.021   0.342  15.263  0.3298  1.7055  0.3351
 1401TIP3   OH225617   6.617   1.819   0.746  0.3968 -0.3668  0.1595
 1401TIP3    H125618   6.624   1.914   0.758  5.2173 -0.2058 -1.5577
 1401TIP3    H225619   6.619   1.783   0.835 -0.1919  1.0967  0.7923
 1402TIP3   OH225620   2.197   3.755   5.939 -0.3687 -0.0321 -0.1865
 1402TIP3    H125621   2.205   3.712   6.024 -1.4849 -1.9232 -0.9686
 1402TIP3    H225622   2.242   3.839   5.949  0.6779 -0.7907  1.8454
 1403TIP3   OH225623   3.977   1.018  12.190  0.7534  0.6532  0.0047
 1403TIP3    H125624   3.912   0.964  12.235  1.7971 -0.8813 -0.2585
 1403TIP3    H225625   4.061   0.979  12.214  1.4157  0.5935 -2.1904
 1404TIP3   OH225626   6.040   2.737   3.710 -0.2748  0.1475  0.1691
 1404TIP3    H125627   6.058   2.788   3.789  1.2823  1.3219 -0.8669
 1404TIP3    H225628   5.982   2.666   3.739  1.3148 -0.2663  2.6160
 1405TIP3   OH225629   3.926   2.920   2.451 -0.0008  0.0847 -0.1899
 1405TIP3    H125630   3.944   2.920   2.545  1.8210 -4.2406 -0.3100
 1405TIP3    H225631   3.993   2.978   2.414  0.6558  0.1558  1.0620
 1406TIP3   OH225632   6.452   0.651  11.896 -0.3974 -0.1486  0.1108
 1406TIP3    H125633   6.361   0.656  11.869 -0.5105 -0.2930  0.4646
 1406TIP3    H225634   6.449   0.647  11.992 -0.0173 -0.0498  0.1295
 1407TIP3   OH225635   5.915   4.698  12.322 -0.0613  0.3042  0.3700
 1407TIP3    H125636   5.978   4.727  12.388  0.5532 -1.9807  0.8544
 1407TIP3    H225637   5.963   4.636  12.267 -1.5223 -0.4839 -0.0747
 1408TIP3   OH225638   2.747   5.332   2.939 -0.5052  0.3564  0.3532
 1408TIP3    H125639   2.782   5.358   2.854 -2.1538  3.0394  0.3748
 1408TIP3    H225640   2.726   5.239   2.928 -0.8203  0.6474 -2.2505
 1409TIP3   OH225641   4.537   3.313   4.441 -0.6752  0.0640 -0.6984
 1409TIP3    H125642   4.564   3.323   4.532  0.6747  0.5320 -1.1283
 1409TIP3    H225643   4.562   3.396   4.400  1.9749 -1.4093 -2.2615
 1410TIP3   OH225644   6.556   6.105  13.118 -0.2156  0.1971 -0.0848
 1410TIP3    H125645   6.511   6.093  13.201  1.4997 -0.9153  0.7274
 1410TIP3    H225646   6.646   6.075  13.133  0.7673  2.0032 -1.7172
 1411TIP3   OH225647   1.926   5.196  13.153  0.0313 -0.2711  0.5638
 1411TIP3    H125648   2.008   5.196  13.202  0.2549  2.0639  0.2855
 1411TIP3    H225649   1.908   5.103  13.137  2.5771 -0.8568  0.6655
 1412TIP3   OH225650   5.565   1.260  13.248 -0.4948  0.4549  0.7103
 1412TIP3    H125651   5.531   1.181  13.290 -0.6003 -0.6346 -1.2817
 1412TIP3    H225652   5.647   1.231  13.207  0.3431  1.8263  1.3557
 1413TIP3   OH225653   6.329   5.903  13.632 -0.6697  0.0844  0.3835
 1413TIP3    H125654   6.245   5.936  13.665  0.6777  1.9482  2.1746
 1413TIP3    H225655   6.391   5.919  13.703  1.4431 -0.1857 -1.2964
 1414TIP3   OH225656   6.101   6.270   3.207 -0.4257  0.1949 -0.2431
 1414TIP3    H125657   6.149   6.195   3.171 -0.4311 -0.4298  1.0213
 1414TIP3    H225658   6.060   6.310   3.130  0.8262 -0.1764 -1.1515
 1415TIP3   OH225659   4.786   4.802  16.102  0.2127 -0.2564  0.2036
 1415TIP3    H125660   4.871   4.847  16.101  0.5077 -0.7994 -0.0578
 1415TIP3    H225661   4.729   4.858  16.155  1.0834 -0.5088  1.4572
 1416TIP3   OH225662   5.355   1.956  15.555  0.1008  0.5882 -0.2380
 1416TIP3    H125663   5.340   2.000  15.638 -0.2483  1.7505 -0.8907
 1416TIP3    H225664   5.448   1.970  15.537  0.3153 -0.1805  0.2297
 1417TIP3   OH225665   5.342   5.963   1.870  0.1802  0.0098 -0.1594
 1417TIP3    H125666   5.338   5.944   1.777 -0.3418 -1.4136  0.1341
 1417TIP3    H225667   5.376   5.883   1.910 -2.2695 -0.4488  1.1611
 1418TIP3   OH225668   1.060   2.616  12.440 -0.3853 -0.2710  0.3759
 1418TIP3    H125669   1.053   2.704  12.477  1.4612  0.3981 -0.7153
 1418TIP3    H225670   1.007   2.620  12.360 -0.0351 -0.0158  0.1493
 1419TIP3   OH225671   5.513   2.117   2.987 -0.5708  0.0661  0.5050
 1419TIP3    H125672   5.540   2.031   3.017 -1.9801  0.0410  1.7952
 1419TIP3    H225673   5.509   2.108   2.891 -2.3355 -1.8581  0.6729
 1420TIP3   OH225674   1.746   4.733  16.740  0.1878 -0.1132 -0.1988
 1420TIP3    H125675   1.837   4.702  16.737  0.0321 -0.5475 -0.5625
 1420TIP3    H225676   1.738   4.777  16.825  0.6511 -0.3400 -0.0342
 1421TIP3   OH225677   3.328   0.425  15.934  0.0364  0.3908 -0.3664
 1421TIP3    H125678   3.413   0.381  15.933  0.0605  0.2593  2.0684
 1421TIP3    H225679   3.276   0.379  15.868  0.5395 -2.3677  1.0286
 1422TIP3   OH225680   3.036   3.073   3.548  0.4253  0.0569  0.0366
 1422TIP3    H125681   2.952   3.112   3.573  0.9884  0.7668  0.8979
 1422TIP3    H225682   3.020   3.035   3.462 -1.3075 -1.5235  0.9950
 1423TIP3   OH225683   5.473   0.137  16.146 -0.2427  0.3537 -0.2695
 1423TIP3    H125684   5.504   0.124  16.235 -1.5768  0.2388  0.2045
 1423TIP3    H225685   5.384   0.173  16.156 -1.4697 -2.0616 -1.4965
 1424TIP3   OH225686   1.510   3.768  12.010 -0.4626  1.2711 -0.3321
 1424TIP3    H125687   1.494   3.721  11.928  0.5923  0.7153 -0.2363
 1424TIP3    H225688   1.429   3.758  12.059 -1.2569  1.9408 -1.4493
 1425TIP3   OH225689   4.587   1.520  14.084 -0.6691 -0.4781  0.1127
 1425TIP3    H125690   4.538   1.580  14.140 -0.0583  1.4022 -1.2937
 1425TIP3    H225691   4.613   1.449  14.143 -0.8879  0.9218  1.9842
 1426TIP3   OH225692   3.400   0.412  11.467  0.0998 -0.2315 -0.5030
 1426TIP3    H125693   3.372   0.504  11.468  0.9608  0.0837  1.8630
 1426TIP3    H225694   3.492   0.416  11.439  0.7299 -0.0738  1.3841
 1427TIP3   OH225695   6.306   4.793   5.630  0.1524 -0.3889 -0.4403
 1427TIP3    H125696   6.220   4.752   5.616  0.5225 -1.5026  0.4103
 1427TIP3    H225697   6.367   4.739   5.580  0.8660 -1.8805  1.8713
 1428TIP3   OH225698   4.731   2.727  12.431  0.0444 -0.0971 -0.8624
 1428TIP3    H125699   4.636   2.739  12.423  0.0299 -0.2324 -0.9095
 1428TIP3    H225700   4.765   2.813  12.453 -0.2371 -0.3267  0.5279
 1429TIP3   OH225701   4.772   4.335   3.119  0.2105  0.2758  0.2476
 1429TIP3    H125702   4.811   4.423   3.121  0.2120  0.2665  0.8109
 1429TIP3    H225703   4.805   4.296   3.038  1.4650  0.2288  0.7570
 1430TIP3   OH225704   4.189   1.753   3.278  0.0000  0.0094  0.0384
 1430TIP3    H125705   4.222   1.842   3.289  1.4842 -0.7111  2.0603
 1430TIP3    H225706   4.254   1.710   3.223 -0.0185 -0.1635  0.1497
 1431TIP3   OH225707   5.602   2.227   4.774  0.0185  0.1798 -0.2031
 1431TIP3    H125708   5.563   2.286   4.838 -1.2360 -0.4976 -0.3182
 1431TIP3    H225709   5.534   2.213   4.709  0.3822 -1.1364 -0.3460
 1432TIP3   OH225710   4.354   5.839   2.741  0.3320 -0.3129 -0.2021
 1432TIP3    H125711   4.274   5.841   2.794  0.0244 -2.3518 -0.5337
 1432TIP3    H225712   4.390   5.751   2.754  2.7920  0.6745  0.2724
 1433TIP3   OH225713   2.243   1.472  12.654 -0.2538 -0.1139  0.1027
 1433TIP3    H125714   2.203   1.390  12.684 -2.2386  0.7492 -0.0557
 1433TIP3    H225715   2.326   1.477  12.701 -1.9640 -0.1822  3.4044
 1434TIP3   OH225716   0.826   3.955  13.412 -0.1369  0.1574 -0.1973
 1434TIP3    H125717   0.908   4.002  13.402 -0.1121  0.1912  0.1352
 1434TIP3    H225718   0.764   4.020  13.446 -0.3761  0.2013 -0.7124
 1435TIP3   OH225719   2.924   1.150  14.377  0.2059  0.2189  0.0882
 1435TIP3    H125720   2.949   1.142  14.285  0.4629 -1.1106  0.2579
 1435TIP3    H225721   2.937   1.063  14.414  1.3635  1.0217  1.7165
 1436TIP3   OH225722   2.051   5.760   0.165  0.1392  0.0426 -0.2134
 1436TIP3    H125723   2.074   5.775   0.073 -2.2330  1.4161 -0.6659
 1436TIP3    H225724   2.064   5.845   0.207  2.1986 -0.8009  1.0623
 1437TIP3   OH225725   3.190   6.044  13.719 -0.0587 -0.2040  0.0097
 1437TIP3    H125726   3.250   5.980  13.756 -0.0977 -0.2532 -0.0111
 1437TIP3    H225727   3.192   6.027  13.625  1.8574  1.4740 -0.3148
 1438TIP3   OH225728   4.999   4.686  12.914 -0.1472 -0.1718 -0.1081
 1438TIP3    H125729   4.949   4.605  12.929 -1.0498  0.7594  2.4026
 1438TIP3    H225730   4.958   4.725  12.837 -0.7453 -1.3092 -0.3992
 1439TIP3   OH225731   3.129   5.021  15.157  0.4888  0.7361  0.4703
 1439TIP3    H125732   3.216   5.014  15.197 -0.0798 -0.2984  1.5835
 1439TIP3    H225733   3.077   5.070  15.220 -0.2568 -0.3778  0.7423
 1440TIP3   OH225734   0.559   4.541   2.816  0.3257 -0.3667 -0.5987
 1440TIP3    H125735   0.484   4.512   2.868  1.2950 -1.3423  0.3057
 1440TIP3    H225736   0.633   4.538   2.877  1.3755 -0.8449 -1.8516
 1441TIP3   OH225737   6.325   3.315  16.137 -0.0227 -0.3830 -0.3443
 1441TIP3    H125738   6.391   3.282  16.076  1.3837  1.2403  0.2055
 1441TIP3    H225739   6.375   3.334  16.217 -1.0435  1.3403 -0.0745
 1442TIP3   OH225740   1.867   3.863  14.610  0.3097 -0.0449  0.1440
 1442TIP3    H125741   1.791   3.905  14.571  0.1848 -0.0691  0.3608
 1442TIP3    H225742   1.938   3.881  14.548 -0.0079 -0.5779 -0.3804
 1443TIP3   OH225743   4.241   0.842  11.768 -0.4420 -0.4638  0.0364
 1443TIP3    H125744   4.327   0.815  11.736  0.0766  0.0882  0.9230
 1443TIP3    H225745   4.221   0.922  11.719 -0.7490 -0.9493 -0.6366
 1444TIP3   OH225746   3.235   5.249  12.468 -0.3117 -0.4676 -0.6651
 1444TIP3    H125747   3.157   5.252  12.523 -0.0113  1.1814 -0.2746
 1444TIP3    H225748   3.202   5.239  12.379 -0.9646  0.0715 -0.4872
 1445TIP3   OH225749   3.442   5.354   0.707 -0.1162 -0.0693 -0.2805
 1445TIP3    H125750   3.482   5.344   0.621 -1.0000 -0.8587 -0.6052
 1445TIP3    H225751   3.350   5.370   0.690 -0.0420  1.4080  0.4761
 1446TIP3   OH225752   6.058   1.196   4.878  0.9194  0.0118 -0.3170
 1446TIP3    H125753   6.136   1.161   4.921  1.1331  0.1468 -0.5941
 1446TIP3    H225754   5.985   1.168   4.934  1.2922  1.3641  0.8970
 1447TIP3   OH225755   3.607   2.037   3.988 -0.3212  0.0576 -0.2593
 1447TIP3    H125756   3.685   2.081   4.020 -0.8483 -0.0406  1.2703
 1447TIP3    H225757   3.629   1.944   3.990 -0.0039  0.1113 -1.1977
 1448TIP3   OH225758   5.852   3.972  13.737  0.6344  0.3068 -0.2398
 1448TIP3    H125759   5.812   4.031  13.673  1.9886  1.1431 -0.3481
 1448TIP3    H225760   5.830   3.884  13.706 -0.0591  0.7252 -0.9644
 1449TIP3   OH225761   4.980   2.264   6.061  0.5563  0.0875 -0.5564
 1449TIP3    H125762   4.998   2.329   5.993  0.4354  0.3688 -0.3243
 1449TIP3    H225763   5.062   2.217   6.072  0.2896 -0.6628 -1.6283
 1450TIP3   OH225764   3.803   1.888   0.547 -0.0779 -0.3452  0.5005
 1450TIP3    H125765   3.735   1.949   0.576  1.6396  1.4321  1.0844
 1450TIP3    H225766   3.792   1.811   0.602 -0.3183  0.7691  2.0805
 1451TIP3   OH225767   0.276   2.401   0.197  0.6673 -0.0828 -0.1284
 1451TIP3    H125768   0.274   2.335   0.266 -0.4948  0.4649  0.3917
 1451TIP3    H225769   0.250   2.482   0.240  0.6273  0.4211 -1.0593
 1452TIP3   OH225770   3.837   1.917   2.275  0.0806 -0.3381  0.6291
 1452TIP3    H125771   3.827   1.858   2.351 -1.2872 -2.1946 -0.8931
 1452TIP3    H225772   3.928   1.903   2.246  0.4154 -0.0928  1.5233
 1453TIP3   OH225773   5.447   2.968   5.119  0.2987 -0.5907 -0.2820
 1453TIP3    H125774   5.405   2.890   5.084 -0.2364 -1.3592  1.8863
 1453TIP3    H225775   5.375   3.026   5.142  0.5371 -0.7150  0.8336
 1454TIP3   OH225776   1.770   0.627  11.960  0.1257 -0.3331  0.0947
 1454TIP3    H125777   1.755   0.623  12.054 -1.0793 -0.1710 -0.0716
 1454TIP3    H225778   1.737   0.543  11.927  0.8228 -0.5179 -0.1550
 1455TIP3   OH225779   0.007   2.423  12.144  0.0405  0.1939  0.6945
 1455TIP3    H125780  -0.054   2.453  12.077  0.0135 -1.1307  0.0796
 1455TIP3    H225781   0.013   2.495  12.206 -1.6777  0.5857  0.4458
 1456TIP3   OH225782   3.125   5.171  16.927  0.1588  0.1751 -0.2108
 1456TIP3    H125783   3.091   5.256  16.954  1.0544  0.1888  0.9697
 1456TIP3    H225784   3.215   5.189  16.901 -0.4002 -0.0092 -2.4210
 1457TIP3   OH225785   5.926   6.047  13.241 -0.0683  0.1828 -0.3785
 1457TIP3    H125786   5.945   6.000  13.160  1.9371 -0.7130  0.5431
 1457TIP3    H225787   5.927   6.140  13.216 -1.1826 -0.1229 -1.6663
 1458TIP3   OH225788   5.510   2.923   4.147 -0.0781 -0.3867 -0.0872
 1458TIP3    H125789   5.503   2.956   4.057  0.8645 -0.5694 -0.2438
 1458TIP3    H225790   5.499   2.828   4.138  0.7837 -0.4926 -0.1258
 1459TIP3   OH225791   6.523   2.074  13.227  0.2060 -0.2323  0.0130
 1459TIP3    H125792   6.485   2.121  13.152  1.4733  2.1152  0.7493
 1459TIP3    H225793   6.465   1.999  13.239 -2.9549  1.9221 -0.3026
 1460TIP3   OH225794   1.860   5.963   3.203  0.0114  0.5242 -0.0973
 1460TIP3    H125795   1.949   5.999   3.201  0.5180 -0.5987  0.5304
 1460TIP3    H225796   1.870   5.880   3.251 -1.8435  1.6341  2.3918
 1461TIP3   OH225797   2.304   6.804  15.116 -0.4985 -0.4531  0.3003
 1461TIP3    H125798   2.283   6.712  15.102 -2.3033 -0.0943  0.3623
 1461TIP3    H225799   2.301   6.843  15.028 -0.0154 -0.3999  0.3071
 1462TIP3   OH225800   6.071   2.820  14.497 -0.2466 -0.1193  0.8264
 1462TIP3    H125801   6.125   2.826  14.576 -0.7822 -0.5707  1.2360
 1462TIP3    H225802   6.040   2.910  14.483 -1.6602 -0.3200  2.2336
 1463TIP3   OH225803   5.172   3.203  11.032 -0.4130 -0.1497  0.2654
 1463TIP3    H125804   5.228   3.277  11.005  0.4029  0.0580  2.3642
 1463TIP3    H225805   5.137   3.169  10.949  1.0162  1.1381 -0.9437
 1464TIP3   OH225806   4.038   3.288  14.073  0.2915  0.1487 -0.1014
 1464TIP3    H125807   4.064   3.279  13.981 -1.2374  1.5443 -0.7149
 1464TIP3    H225808   4.114   3.328  14.115  0.6637  0.3735 -0.9628
 1465TIP3   OH225809   5.026   4.023  16.091 -0.2652 -0.2704 -0.1137
 1465TIP3    H125810   5.088   4.096  16.091  0.0050 -0.4670 -1.8776
 1465TIP3    H225811   4.989   4.023  16.179  1.2028  0.7311  0.5318
 1466TIP3   OH225812   3.242   4.469   4.806 -0.2497 -0.6752 -0.0443
 1466TIP3    H125813   3.283   4.482   4.892  1.2499  0.6671 -0.9341
 1466TIP3    H225814   3.230   4.557   4.771  1.7019 -1.2274 -2.3561
 1467TIP3   OH225815   1.396   5.317  14.659 -0.1703 -0.1594 -0.1431
 1467TIP3    H125816   1.350   5.336  14.577 -1.6678  0.2842  0.7481
 1467TIP3    H225817   1.379   5.394  14.714  1.7709  0.0616  0.2125
 1468TIP3   OH225818   2.914   2.782   6.386 -0.0200 -0.0584 -0.1796
 1468TIP3    H125819   2.990   2.733   6.419 -0.5087 -0.7820 -0.0915
 1468TIP3    H225820   2.850   2.714   6.364 -1.4630  0.5845  1.7535
 1469TIP3   OH225821   4.107   3.749   4.262  0.3169 -0.1189  0.2219
 1469TIP3    H125822   4.032   3.751   4.322 -1.0627 -0.8627 -1.3683
 1469TIP3    H225823   4.147   3.664   4.277  0.9105  0.3103  1.1317
 1470TIP3   OH225824   2.477   4.313  13.141 -0.3777 -0.4828 -0.5968
 1470TIP3    H125825   2.422   4.287  13.067 -1.7690 -1.2543  0.6486
 1470TIP3    H225826   2.416   4.318  13.215  0.6338  2.0017  0.1677
 1471TIP3   OH225827   3.844   2.727   3.797 -0.1798  0.1750 -0.2356
 1471TIP3    H125828   3.760   2.710   3.840 -0.2805 -1.4150 -0.9579
 1471TIP3    H225829   3.885   2.640   3.791  0.0610  0.3931 -2.8158
 1472TIP3   OH225830   3.833   2.334  15.754 -0.2698  0.2781  0.5641
 1472TIP3    H125831   3.926   2.315  15.750 -0.5407 -1.3535  1.1502
 1472TIP3    H225832   3.791   2.252  15.727 -1.5306  0.9341  0.4718
 1473TIP3   OH225833   0.025   2.012   2.551 -0.0400  0.0421  0.0775
 1473TIP3    H125834   0.109   1.971   2.531 -0.5915 -1.7856  1.2170
 1473TIP3    H225835  -0.020   2.019   2.467  1.0816  0.7056 -0.4880
 1474TIP3   OH225836   3.736   1.795  12.496 -0.4064 -0.0706 -0.6645
 1474TIP3    H125837   3.814   1.793  12.440  0.3451  0.2018  0.3359
 1474TIP3    H225838   3.722   1.887  12.514 -1.2803 -0.0780 -1.2400
 1475TIP3   OH225839   0.802   3.488  13.556  0.6232 -0.2411 -0.0450
 1475TIP3    H125840   0.822   3.556  13.492  0.9998 -0.2640  0.0439
 1475TIP3    H225841   0.781   3.411  13.504 -1.3006  0.3345 -0.1756
 1476TIP3   OH225842   2.500   2.917  15.279  0.0260  0.1513 -0.3422
 1476TIP3    H125843   2.570   2.983  15.271 -0.2320  0.4720 -0.0003
 1476TIP3    H225844   2.429   2.950  15.224 -1.3675  1.8589  2.2450
 1477TIP3   OH225845   0.166   2.008  14.965  0.1493 -0.5315  0.8071
 1477TIP3    H125846   0.151   1.916  14.988  0.1662 -0.7716 -0.0756
 1477TIP3    H225847   0.220   2.043  15.036  0.6606 -1.3711  0.8458
 1478TIP3   OH225848   6.032   0.147  14.234  0.0051 -0.1922 -0.3625
 1478TIP3    H125849   6.053   0.198  14.156 -1.1026  0.7478 -0.0644
 1478TIP3    H225850   6.056   0.203  14.307 -0.8009 -0.2763 -0.0299
 1479TIP3   OH225851   5.101   3.650   2.236  0.1484 -0.1344 -0.0360
 1479TIP3    H125852   5.182   3.620   2.197  1.0713  0.2431  1.4814
 1479TIP3    H225853   5.037   3.648   2.165  1.1649 -1.6370 -0.9671
 1480TIP3   OH225854   5.782   0.353  10.793 -0.0442 -0.0353 -0.3229
 1480TIP3    H125855   5.786   0.327  10.885 -2.1352  2.2379  0.5186
 1480TIP3    H225856   5.849   0.300  10.750  1.5414 -0.6289  2.6318
 1481TIP3   OH225857   1.608   6.685   1.622 -0.3295 -0.7963  0.1423
 1481TIP3    H125858   1.626   6.650   1.710  0.5802  1.1277  0.7796
 1481TIP3    H225859   1.526   6.733   1.632  0.5328  0.7060  0.3924
 1482TIP3   OH225860   0.173   5.068  12.107  0.2204  0.0235  0.3778
 1482TIP3    H125861   0.214   5.135  12.052 -0.3648 -0.1086 -0.2314
 1482TIP3    H225862   0.238   5.049  12.174  1.3356 -0.4914 -0.8124
 1483TIP3   OH225863   6.592   6.391   3.139 -0.0938  0.1310 -0.8163
 1483TIP3    H125864   6.566   6.300   3.125  0.6878 -0.1682 -0.3975
 1483TIP3    H225865   6.581   6.404   3.233  1.0446  0.0506 -0.6534
 1484TIP3   OH225866   4.070   3.289  11.935 -0.7722 -0.2389  0.2952
 1484TIP3    H125867   3.993   3.336  11.966 -1.2306 -0.8459  0.1038
 1484TIP3    H225868   4.054   3.198  11.961  0.1302 -0.2858  0.7236
 1485TIP3   OH225869   0.610   2.157   3.421  0.7409 -1.0667 -0.3051
 1485TIP3    H125870   0.684   2.181   3.478 -0.7862  1.2378  0.8551
 1485TIP3    H225871   0.534   2.155   3.480 -0.6782  0.0577 -2.0093
 1486TIP3   OH225872   3.115   0.945  16.744 -0.3656  0.4510 -0.1182
 1486TIP3    H125873   3.065   0.998  16.683 -1.9825 -0.0029  0.7748
 1486TIP3    H225874   3.159   1.009  16.801  1.3829  0.8909 -1.8222
 1487TIP3   OH225875   4.705   4.151  11.140 -0.3838 -0.1280  0.2458
 1487TIP3    H125876   4.646   4.142  11.065 -0.7323  0.7161  0.4116
 1487TIP3    H225877   4.752   4.233  11.124  0.9114 -0.8708  0.0186
 1488TIP3   OH225878   3.108   6.585  13.097 -0.1773  0.1574 -0.3631
 1488TIP3    H125879   3.114   6.490  13.082 -1.8336  0.0318 -0.4324
 1488TIP3    H225880   3.081   6.620  13.012 -3.1726  0.2192  0.5033
 1489TIP3   OH225881   0.791   1.575  16.911  0.4040  0.4054 -0.8062
 1489TIP3    H125882   0.846   1.638  16.959  0.5361 -0.7013  0.5425
 1489TIP3    H225883   0.801   1.493  16.959 -0.6054 -0.3980 -1.9195
 1490TIP3   OH225884   5.652   1.563  11.082  0.1206  0.1943 -0.5428
 1490TIP3    H125885   5.584   1.499  11.060  2.2214 -2.3670 -0.1725
 1490TIP3    H225886   5.608   1.626  11.139 -1.8924 -1.4824 -0.0970
 1491TIP3   OH225887   4.836   3.188  15.492  0.7083  0.2962 -0.0082
 1491TIP3    H125888   4.756   3.136  15.497 -0.4169  1.9901  0.5155
 1491TIP3    H225889   4.854   3.195  15.399  0.3076 -0.1936 -0.1289
 1492TIP3   OH225890   2.584   2.831   3.078 -1.0211  0.1560  0.6188
 1492TIP3    H125891   2.537   2.882   3.144 -0.1569 -0.5250  1.8000
 1492TIP3    H225892   2.610   2.751   3.124  1.2612  0.4928  0.0257
 1493TIP3   OH225893   3.010   6.163   2.123  0.5912  0.1713 -0.0519
 1493TIP3    H125894   2.930   6.213   2.115  0.1389 -0.6133 -0.6245
 1493TIP3    H225895   3.003   6.119   2.208  1.6247  2.1145  1.0950
 1494TIP3   OH225896   6.247   6.191  16.508  0.5177  0.3934 -0.2310
 1494TIP3    H125897   6.337   6.220  16.495  0.4616 -0.1530 -2.0375
 1494TIP3    H225898   6.208   6.193  16.421 -0.5984 -1.3757  0.1717
 1495TIP3   OH225899   5.661   6.475  14.247  0.7575 -0.5107 -0.7639
 1495TIP3    H125900   5.695   6.423  14.174  1.3269  0.8973 -1.5270
 1495TIP3    H225901   5.731   6.473  14.312  0.6859 -0.8823 -0.6951
 1496TIP3   OH225902   6.795   6.144   4.320  0.0748 -0.2083 -0.7008
 1496TIP3    H125903   6.777   6.095   4.401  1.3205  2.2757  1.2156
 1496TIP3    H225904   6.715   6.194   4.304  0.3319  0.4041 -0.1246
 1497TIP3   OH225905   2.017   3.522   3.206 -0.2424 -0.0464 -0.3543
 1497TIP3    H125906   1.931   3.562   3.192 -0.4044  0.2024  1.1662
 1497TIP3    H225907   2.017   3.496   3.298  1.2103 -0.3021 -0.3976
 1498TIP3   OH225908   5.245   4.690  13.289 -0.1741  0.1179  0.1488
 1498TIP3    H125909   5.200   4.754  13.233 -1.4608 -0.4242  0.5147
 1498TIP3    H225910   5.222   4.717  13.378 -0.1834 -0.4666  0.3239
 1499TIP3   OH225911   1.411   3.682   5.508  0.9402  0.5335 -0.6369
 1499TIP3    H125912   1.458   3.707   5.429  0.4104  0.5161 -0.9628
 1499TIP3    H225913   1.420   3.757   5.567 -0.4996  1.4706 -1.5365
 1500TIP3   OH225914   5.921   5.792  14.724  0.1629  0.9744  0.0788
 1500TIP3    H125915   6.009   5.774  14.693  0.0831 -0.2418  0.5108
 1500TIP3    H225916   5.914   5.887  14.724  1.3370  1.0676 -0.3228
 1501TIP3   OH225917   2.677   1.025  13.942 -0.0560  0.1780 -0.5330
 1501TIP3    H125918   2.620   1.065  14.007  1.1129 -0.9517  1.2962
 1501TIP3    H225919   2.663   0.931  13.953 -0.2762 -0.0516 -2.3881
 1502TIP3   OH225920   2.815   3.013   0.973 -0.2555  0.1450  0.0001
 1502TIP3    H125921   2.771   2.999   1.057  1.7638 -0.7663  0.9740
 1502TIP3    H225922   2.871   3.089   0.989  1.7627 -1.3211  0.2246
 1503TIP3   OH225923   0.996   6.784   3.772 -0.2334 -0.0645  0.3695
 1503TIP3    H125924   0.991   6.879   3.785 -0.2067  0.0296 -0.2976
 1503TIP3    H225925   1.070   6.756   3.825 -0.6225  0.1966  1.0666
 1504TIP3   OH225926   3.017   1.965  14.728  0.5703  0.7950 -0.1976
 1504TIP3    H125927   3.014   1.909  14.806 -2.6472  0.3678 -0.4800
 1504TIP3    H225928   3.108   1.994  14.722  1.2677 -0.4570  2.7687
 1505TIP3   OH225929   2.379   6.543  14.177 -0.1624  0.0742 -0.2684
 1505TIP3    H125930   2.420   6.494  14.106  0.8343  1.0858 -0.4096
 1505TIP3    H225931   2.426   6.626  14.180 -1.1211  0.6114  0.6593
 1506TIP3   OH225932   1.273   0.052  16.880 -0.1816 -0.2107 -0.0831
 1506TIP3    H125933   1.196   0.009  16.843 -0.4254 -0.6513  0.8928
 1506TIP3    H225934   1.317  -0.018  16.930  0.6563  0.1241 -0.3281
 1507TIP3   OH225935   5.995   2.797   5.601 -0.2620  0.4051 -0.0911
 1507TIP3    H125936   6.054   2.825   5.672 -1.3541  1.6530  0.3490
 1507TIP3    H225937   5.966   2.878   5.560 -1.7477 -0.1737 -0.2401
 1508TIP3   OH225938   6.799   5.102   1.028 -0.5912 -0.1493  0.0564
 1508TIP3    H125939   6.745   5.060   1.096  0.0722 -1.4099 -0.1782
 1508TIP3    H225940   6.863   5.035   1.003 -1.7248 -0.2715 -2.8724
 1509TIP3   OH225941   1.729   1.745  11.297  0.8391  0.1769 -0.7013
 1509TIP3    H125942   1.785   1.780  11.366  0.5646 -4.1879  2.1040
 1509TIP3    H225943   1.652   1.803  11.298  1.5135  1.1647  1.5930
 1510TIP3   OH225944   3.314   4.524  13.537 -0.5463  0.1501  0.0668
 1510TIP3    H125945   3.258   4.529  13.614 -0.5944 -0.1328  0.0540
 1510TIP3    H225946   3.274   4.583  13.474 -1.5156 -0.9270 -0.3658
 1511TIP3   OH225947   5.314   3.088   1.535  0.4233  0.5861  0.0456
 1511TIP3    H125948   5.344   3.153   1.598  0.7896 -0.2242  0.7335
 1511TIP3    H225949   5.393   3.038   1.513  0.1478  0.3745 -0.4677
 1512TIP3   OH225950   6.360   0.864   4.740  0.1846  0.4912 -0.7390
 1512TIP3    H125951   6.313   0.905   4.813 -1.0707  0.0349 -1.2557
 1512TIP3    H225952   6.366   0.934   4.674  1.9336  1.1148  0.0233
 1513TIP3   OH225953   0.246   2.160  16.070  0.2993  0.1129  0.2979
 1513TIP3    H125954   0.208   2.129  16.152  0.9617  0.3452  0.6984
 1513TIP3    H225955   0.333   2.121  16.067 -0.5731 -1.8635 -1.4711
 1514TIP3   OH225956   1.535   5.718  12.645 -0.2942  0.4311 -0.4192
 1514TIP3    H125957   1.575   5.774  12.711 -2.3247 -0.1255  1.4016
 1514TIP3    H225958   1.553   5.629  12.675 -0.4423  0.1443 -1.1479
 1515TIP3   OH225959   0.071   4.206   1.379  0.7018 -0.2038 -0.4585
 1515TIP3    H125960   0.007   4.202   1.308  0.2394 -0.4733 -0.0324
 1515TIP3    H225961   0.052   4.129   1.433 -0.4204  1.1561  1.1842
 1516TIP3   OH225962   1.746   0.767   5.579  0.3645 -0.0564 -0.4610
 1516TIP3    H125963   1.834   0.804   5.580  0.2544  0.2047 -0.4521
 1516TIP3    H225964   1.729   0.740   5.669 -0.3957  1.8591  0.0173
 1517TIP3   OH225965   3.633   2.832   0.104  0.6363 -0.1509 -0.0266
 1517TIP3    H125966   3.690   2.907   0.120  0.2561  0.2223 -0.4106
 1517TIP3    H225967   3.629   2.787   0.189  1.7117 -0.3364 -0.0610
 1518TIP3   OH225968   4.939   5.448   0.756 -0.1196  0.2925 -0.4063
 1518TIP3    H125969   4.977   5.399   0.829  0.7848 -0.3588 -1.3075
 1518TIP3    H225970   4.852   5.474   0.788 -1.2966 -3.1421 -0.3869
 1519TIP3   OH225971   5.590   0.396   2.774  0.1923 -0.3243 -0.1623
 1519TIP3    H125972   5.580   0.422   2.865  0.3809 -0.2159 -0.1728
 1519TIP3    H225973   5.588   0.478   2.725  0.6129 -0.3415 -0.2106
 1520TIP3   OH225974   3.401   5.997  16.631 -0.1049  0.9956 -0.1495
 1520TIP3    H125975   3.440   5.957  16.554  1.0848 -0.8027  1.2872
 1520TIP3    H225976   3.453   6.076  16.647  1.6328 -0.2137  0.4741
 1521TIP3   OH225977   5.850   3.734  13.103 -0.3615 -0.0038  0.0030
 1521TIP3    H125978   5.920   3.677  13.072  0.3484  0.9389 -0.1608
 1521TIP3    H225979   5.811   3.687  13.177  0.2852 -0.6390 -0.0546
 1522TIP3   OH225980   6.532   2.605  13.980  0.9623 -0.3747 -0.5117
 1522TIP3    H125981   6.622   2.637  13.977  0.6143  0.7175 -0.0215
 1522TIP3    H225982   6.500   2.631  14.067 -0.1470  0.1954 -1.0705
 1523TIP3   OH225983   5.246   1.146   2.795  0.5358  0.1209 -0.4519
 1523TIP3    H125984   5.193   1.079   2.838  0.3481 -0.3386 -1.3822
 1523TIP3    H225985   5.276   1.105   2.714  0.6478  1.0576 -0.9002
 1524TIP3   OH225986   3.189   4.995   1.988 -0.0645 -0.5109 -0.0258
 1524TIP3    H125987   3.219   4.946   1.912  0.3000  0.2168 -0.3583
 1524TIP3    H225988   3.148   5.074   1.952 -0.7723 -0.6287  0.4954
 1525TIP3   OH225989   3.863   3.534   0.485 -0.1032 -0.0102  0.1516
 1525TIP3    H125990   3.817   3.516   0.568  1.3579  1.0532  1.2483
 1525TIP3    H225991   3.921   3.607   0.506  0.1840  0.3843 -1.8910
 1526TIP3   OH225992   0.028   3.668   4.206 -0.8820 -0.4130  0.1699
 1526TIP3    H125993   0.037   3.574   4.191  0.5334 -0.2155 -0.2986
 1526TIP3    H225994  -0.030   3.674   4.283 -1.4504 -1.6353 -0.1359
 1527TIP3   OH225995   3.895   4.477  12.755  0.1456  0.4499 -0.5058
 1527TIP3    H125996   3.985   4.472  12.789  0.1440  2.1622 -0.1429
 1527TIP3    H225997   3.847   4.523  12.824 -0.9819 -0.2672 -0.7891
 1528TIP3   OH225998   5.640   1.598  11.431 -0.1589 -0.3606  0.2160
 1528TIP3    H125999   5.705   1.625  11.366 -3.1484  0.1191 -2.8102
 1528TIP3    H226000   5.647   1.664  11.500  1.5269  0.5217 -0.7219
 1529TIP3   OH226001   6.548   2.224   3.965 -0.7048  0.7608  0.4961
 1529TIP3    H126002   6.509   2.137   3.966  0.2242  0.3145 -0.1086
 1529TIP3    H226003   6.555   2.247   3.872  0.6275  0.7179  0.5554
 1530TIP3   OH226004   6.107   2.237  14.477  0.2093 -0.2410  0.5452
 1530TIP3    H126005   6.100   2.182  14.399  2.5759  0.9763 -0.6469
 1530TIP3    H226006   6.016   2.255  14.502 -0.6738 -0.0596 -2.4077
 1531TIP3   OH226007   5.680   1.612  14.412 -0.2723 -0.1429 -0.5201
 1531TIP3    H126008   5.627   1.547  14.366 -1.1893  0.5065 -0.4265
 1531TIP3    H226009   5.734   1.652  14.344 -0.2073 -0.5287 -0.6937
 1532TIP3   OH226010   1.404   0.499   2.788 -0.4301 -0.3109  0.1832
 1532TIP3    H126011   1.402   0.592   2.812 -3.7648 -0.1477 -0.2159
 1532TIP3    H226012   1.398   0.452   2.871 -0.8345 -0.0883  0.2829
 1533TIP3   OH226013   4.871   4.938   2.416 -0.5277  0.2673  0.7011
 1533TIP3    H126014   4.861   4.977   2.330  0.4686 -1.5541 -0.3084
 1533TIP3    H226015   4.855   5.010   2.478  0.5369  2.0555 -1.0021
 1534TIP3   OH226016   4.539   0.719   4.169  0.4107  0.4703 -0.2372
 1534TIP3    H126017   4.521   0.808   4.196 -2.2675  0.3612 -1.3325
 1534TIP3    H226018   4.566   0.727   4.077  0.8977  0.1923 -0.1232
 1535TIP3   OH226019   0.736   4.932   0.056  0.1808 -0.0105  0.1973
 1535TIP3    H126020   0.738   4.840   0.028 -0.2802  0.0853 -0.1823
 1535TIP3    H226021   0.728   4.929   0.151  0.9009 -0.3567  0.2516
 1536TIP3   OH226022   3.094   3.750   0.611  0.1705  0.0649  0.5092
 1536TIP3    H126023   3.006   3.713   0.614 -0.2350  1.0042  0.5751
 1536TIP3    H226024   3.140   3.700   0.543 -0.2263 -0.8194  0.8895
 1537TIP3   OH226025   3.904   5.640   3.537 -0.6179  0.2616  0.2814
 1537TIP3    H126026   3.972   5.703   3.512  0.2557  0.1916  2.3128
 1537TIP3    H226027   3.942   5.554   3.515  0.3006  0.1765  1.9906
 1538TIP3   OH226028   0.434   4.154   0.603 -0.0176  0.2001  0.5860
 1538TIP3    H126029   0.424   4.249   0.604 -0.8211  0.1310  0.3958
 1538TIP3    H226030   0.437   4.128   0.695 -1.3878  0.2762  0.6722
 1539TIP3   OH226031   0.767   2.266  12.053  0.0370 -0.1168  0.4101
 1539TIP3    H126032   0.793   2.180  12.087 -0.6024  0.3244  2.1335
 1539TIP3    H226033   0.848   2.304  12.020  0.8668 -0.3399  2.0809
 1540TIP3   OH226034   2.023   6.509   2.861  0.0867  0.2765 -0.6643
 1540TIP3    H126035   1.942   6.554   2.884  2.1774  4.4212 -0.4816
 1540TIP3    H226036   2.035   6.526   2.768  1.4718  1.2141 -0.3579
 1541TIP3   OH226037   4.879   2.251  15.649 -0.3173 -0.3925  0.3574
 1541TIP3    H126038   4.960   2.292  15.619  0.0978 -0.7854  0.9272
 1541TIP3    H226039   4.861   2.291  15.734 -0.7808 -0.2410  0.1963
 1542TIP3   OH226040   3.767   1.489  16.791 -0.1411  0.2423  0.6943
 1542TIP3    H126041   3.813   1.428  16.848 -0.1103 -0.0161  0.3940
 1542TIP3    H226042   3.674   1.477  16.814 -0.3844 -1.6290 -0.9630
 1543TIP3   OH226043   6.568   1.352   5.518  0.1594  0.3359 -0.1855
 1543TIP3    H126044   6.550   1.416   5.587 -0.0387 -0.5911  0.6516
 1543TIP3    H226045   6.663   1.351   5.510  0.2375 -0.1066  0.6452
 1544TIP3   OH226046   3.277   0.172  10.209 -0.2561  0.5959  0.5131
 1544TIP3    H126047   3.264   0.099  10.148 -1.0793 -0.3935  1.8319
 1544TIP3    H226048   3.206   0.163  10.272  2.6986 -0.8062  3.9608
 1545TIP3   OH226049   2.659   3.473  10.955 -0.3537  0.3551  0.7225
 1545TIP3    H126050   2.633   3.548  11.008  3.5789  0.7995  2.3468
 1545TIP3    H226051   2.663   3.506  10.866  2.0549  2.4625  1.5058
 1546TIP3   OH226052   2.665   3.051   6.041 -0.0395  0.3855  0.0396
 1546TIP3    H126053   2.648   3.036   6.134  2.3957  0.1006  0.5107
 1546TIP3    H226054   2.724   3.126   6.039  0.8882 -0.3364 -1.1827
 1547TIP3   OH226055   6.461   3.453   1.773  0.0898 -0.2490  0.0814
 1547TIP3    H126056   6.408   3.377   1.799  0.7307 -0.7534 -0.0581
 1547TIP3    H226057   6.539   3.447   1.828 -1.6699  2.7559  3.3147
 1548TIP3   OH226058   0.561   5.098  15.680  0.3226  0.3450 -0.1516
 1548TIP3    H126059   0.561   5.028  15.745  0.6455  0.5879  0.1167
 1548TIP3    H226060   0.518   5.171  15.725 -0.0831  0.2946 -0.4565
 1549TIP3   OH226061   2.608   2.691   3.801 -0.0578 -0.2294 -0.3305
 1549TIP3    H126062   2.610   2.597   3.780  0.0896 -0.0694 -1.0474
 1549TIP3    H226063   2.699   2.720   3.791 -0.3626  0.3160 -1.6637
 1550TIP3   OH226064   2.419   5.966   2.660  0.9797  0.7558 -0.3163
 1550TIP3    H126065   2.425   5.883   2.707  1.0781  2.1565  2.3630
 1550TIP3    H226066   2.370   5.946   2.580 -1.8921 -1.2804  1.7736
 1551TIP3   OH226067   2.011   4.133  13.931  0.2674 -0.1161 -0.4446
 1551TIP3    H126068   2.102   4.147  13.904  0.4097  0.2359  0.1913
 1551TIP3    H226069   2.012   4.150  14.025 -0.5502  0.3482 -0.5146
 1552TIP3   OH226070   4.092   0.177   0.834 -0.8329 -0.0737  0.3756
 1552TIP3    H126071   4.134   0.175   0.920  1.0300 -0.9065 -0.5011
 1552TIP3    H226072   4.045   0.094   0.829 -1.0855  0.0490  0.6298
 1553TIP3   OH226073   3.016   5.845  14.183  0.0412 -0.0095 -0.7479
 1553TIP3    H126074   2.946   5.812  14.239 -0.2932 -0.1385 -1.2310
 1553TIP3    H226075   3.045   5.926  14.226  0.1437 -0.3749 -0.1218
 1554TIP3   OH226076   0.445   2.969   0.547 -0.6346 -0.5728  0.3622
 1554TIP3    H126077   0.407   2.996   0.630 -1.8240 -1.4673  0.1363
 1554TIP3    H226078   0.521   3.026   0.535 -2.1872  1.6741  0.5792
 1555TIP3   OH226079   2.060   2.773  11.008  0.2184  0.1928  0.5376
 1555TIP3    H126080   2.012   2.844  11.051 -0.0493  0.6133 -0.4337
 1555TIP3    H226081   2.118   2.818  10.946  0.8419 -0.3891  0.6822
 1556TIP3   OH226082   0.491   0.612   2.610  0.2475  0.0343 -0.0217
 1556TIP3    H126083   0.411   0.659   2.634 -0.8344 -1.1248 -1.1894
 1556TIP3    H226084   0.484   0.528   2.656 -0.0328 -0.7084 -1.3545
 1557TIP3   OH226085   2.790   0.694  12.639  0.2369 -0.2105  0.7598
 1557TIP3    H126086   2.882   0.716  12.624 -0.0014  1.1094  1.1026
 1557TIP3    H226087   2.751   0.775  12.673 -1.0859 -0.6988  0.4694
 1558TIP3   OH226088   5.455   2.480   5.296  0.1637  0.1879  0.1373
 1558TIP3    H126089   5.473   2.521   5.381  1.4685  1.1665 -0.5648
 1558TIP3    H226090   5.505   2.532   5.233 -0.8501 -0.4515 -1.2625
 1559TIP3   OH226091   6.172   4.266  12.351 -0.7407 -0.1806 -0.3636
 1559TIP3    H126092   6.119   4.335  12.392  0.6540  0.6326  0.1437
 1559TIP3    H226093   6.211   4.219  12.425 -0.0061 -0.1501 -0.7281
 1560TIP3   OH226094   3.490   4.443   5.491 -0.3220  0.0028  0.0994
 1560TIP3    H126095   3.427   4.372   5.477 -0.4478  0.4046 -1.7056
 1560TIP3    H226096   3.570   4.412   5.450 -0.6558  1.2439 -1.5977
 1561TIP3   OH226097   5.287   6.241  17.032 -0.4105  0.3009 -0.0714
 1561TIP3    H126098   5.372   6.200  17.016 -0.7691 -0.3794 -0.2633
 1561TIP3    H226099   5.266   6.218  17.123 -0.2430  0.7431  0.0798
 1562TIP3   OH226100   4.627   2.048  14.816 -0.2817 -0.1885  0.3248
 1562TIP3    H126101   4.576   1.968  14.827 -0.6345 -0.6021 -3.0838
 1562TIP3    H226102   4.712   2.027  14.855 -1.3652 -0.9453  2.4655
 1563TIP3   OH226103   2.572   2.222   0.736 -0.2665 -0.2062  0.2679
 1563TIP3    H126104   2.489   2.179   0.754  0.3565 -0.4414  3.0343
 1563TIP3    H226105   2.548   2.309   0.705 -1.4940 -1.0212 -1.2539
 1564TIP3   OH226106   3.055   2.467   5.574 -0.1963  0.1428  0.1576
 1564TIP3    H126107   3.046   2.394   5.635  1.5829 -1.5892 -1.5217
 1564TIP3    H226108   3.147   2.490   5.577 -0.2751  0.7132 -1.0859
 1565TIP3   OH226109   1.839   5.752  11.638  0.2516 -0.5517  0.3547
 1565TIP3    H126110   1.765   5.701  11.608  0.2468 -0.4490  0.1926
 1565TIP3    H226111   1.841   5.737  11.733 -0.9833  0.7425  0.6232
 1566TIP3   OH226112   0.708   1.233   5.339 -0.1542  0.1187 -0.3479
 1566TIP3    H126113   0.716   1.138   5.335  1.2788  0.1606  0.5263
 1566TIP3    H226114   0.680   1.251   5.429 -0.4298  0.5263 -0.5119
 1567TIP3   OH226115   5.400   1.789  13.284  0.1861 -0.6092  0.6173
 1567TIP3    H126116   5.391   1.840  13.365  1.9142 -1.4328  1.3858
 1567TIP3    H226117   5.340   1.831  13.223  0.2479  1.2428  1.7439
 1568TIP3   OH226118   2.380   3.253  13.723  0.2072 -0.2167 -0.5413
 1568TIP3    H126119   2.431   3.180  13.688 -1.4790 -1.3347 -0.7879
 1568TIP3    H226120   2.291   3.238  13.690 -0.5710  0.9430  0.8970
 1569TIP3   OH226121   2.341   4.947  12.645 -0.1518 -0.2596  0.0031
 1569TIP3    H126122   2.355   4.929  12.552  0.5212 -0.9768  0.2355
 1569TIP3    H226123   2.328   4.861  12.685 -2.0648  0.1249  0.3400
 1570TIP3   OH226124   1.354   3.162   2.738 -0.5903 -0.4243  0.1753
 1570TIP3    H126125   1.358   3.099   2.666  1.3429  0.3095 -0.4391
 1570TIP3    H226126   1.446   3.182   2.756 -0.9530 -1.1503  3.4016
 1571TIP3   OH226127   3.145   2.626  11.524 -0.0765  0.6249 -1.0371
 1571TIP3    H126128   3.060   2.647  11.485 -0.7638  0.1245  0.1136
 1571TIP3    H226129   3.126   2.617  11.618  1.0977 -0.2569 -0.8616
 1572TIP3   OH226130   2.777   0.591   1.816  0.2739 -0.1535 -0.1122
 1572TIP3    H126131   2.708   0.526   1.827 -0.5648  0.5318 -1.1756
 1572TIP3    H226132   2.799   0.587   1.723  0.7885  0.5216 -0.0277
 1573TIP3   OH226133   1.542   5.245   3.701  0.0830  0.1854 -0.0949
 1573TIP3    H126134   1.493   5.237   3.783  0.2316 -1.8960 -0.1478
 1573TIP3    H226135   1.632   5.263   3.729 -0.0738  0.6436  0.1334
 1574TIP3   OH226136   0.597   0.920   0.867  0.6585 -0.0097  0.3345
 1574TIP3    H126137   0.631   0.913   0.778  1.7115  1.2449  0.5954
 1574TIP3    H226138   0.510   0.960   0.857  0.9166  0.4480 -0.1193
 1575TIP3   OH226139   2.952   0.291  11.122  0.2014  0.3103  0.3784
 1575TIP3    H126140   3.047   0.301  11.109  0.6246 -0.2109  2.6489
 1575TIP3    H226141   2.941   0.199  11.145 -1.1199 -0.0428 -1.5011
 1576TIP3   OH226142   5.602   0.816   3.059  0.3408  0.4638  0.6006
 1576TIP3    H126143   5.646   0.878   3.117  1.2360  0.9522 -0.5476
 1576TIP3    H226144   5.621   0.848   2.971 -2.8097  1.0350  0.0116
 1577TIP3   OH226145   4.396   4.198   4.098  0.1095  0.3795  0.0855
 1577TIP3    H126146   4.304   4.174   4.112  0.4274 -0.6581  0.4906
 1577TIP3    H226147   4.440   4.115   4.081  0.8962  0.9214 -0.5915
 1578TIP3   OH226148   4.803   4.748  16.447 -0.3607  0.0762 -0.1931
 1578TIP3    H126149   4.828   4.756  16.540 -1.6599  0.7357  0.1283
 1578TIP3    H226150   4.836   4.828  16.407 -0.6697  0.2632 -0.0782
 1579TIP3   OH226151   5.671   5.713  15.293 -0.0198 -0.1490  0.4445
 1579TIP3    H126152   5.735   5.667  15.349  3.0144  1.0808 -1.7610
 1579TIP3    H226153   5.623   5.770  15.354  1.5595 -0.5022  2.1166
 1580TIP3   OH226154   4.364   4.941  11.953  0.0312 -0.0997 -0.2626
 1580TIP3    H126155   4.445   4.931  12.004  1.6168  0.2485 -2.5482
 1580TIP3    H226156   4.294   4.917  12.014  1.8527 -0.5800  1.7677
 1581TIP3   OH226157   4.341   0.818  16.004  0.5337 -0.6156  0.0631
 1581TIP3    H126158   4.427   0.804  15.963  0.6038  1.3992 -0.5603
 1581TIP3    H226159   4.346   0.906  16.040 -1.9150  0.3345 -1.6928
 1582TIP3   OH226160   3.079   6.727   6.102 -0.2317  1.0290 -0.2876
 1582TIP3    H126161   3.149   6.681   6.149 -0.6203  0.0567 -0.6360
 1582TIP3    H226162   3.124   6.800   6.059  0.0422  2.3089  2.0012
 1583TIP3   OH226163   1.083   5.348   3.636  0.2091 -0.3811 -0.7818
 1583TIP3    H126164   1.050   5.424   3.685  1.3525  0.9247 -1.9583
 1583TIP3    H226165   1.008   5.289   3.632 -0.6689  0.5929  0.3245
 1584TIP3   OH226166   2.398   4.674  11.914  0.7286  0.6227 -0.2004
 1584TIP3    H126167   2.437   4.586  11.922 -1.3213 -0.2748  0.4767
 1584TIP3    H226168   2.370   4.679  11.822 -0.5002 -0.0642  0.1157
 1585TIP3   OH226169   4.242   2.606  13.752 -0.3256  0.1308 -0.3867
 1585TIP3    H126170   4.244   2.591  13.847 -0.4662 -1.6861 -0.6247
 1585TIP3    H226171   4.152   2.631  13.733  0.4684  4.2346  0.3645
 1586TIP3   OH226172   4.624   6.416   1.685 -0.1483  0.1307  0.4031
 1586TIP3    H126173   4.697   6.391   1.629 -1.6200  0.9415 -2.0390
 1586TIP3    H226174   4.556   6.447   1.624 -1.9216  0.9592  2.6403
 1587TIP3   OH226175   0.314   2.970  16.764  0.4831  0.2247  0.3981
 1587TIP3    H126176   0.232   2.967  16.814  0.6982  0.2090  0.7454
 1587TIP3    H226177   0.292   2.927  16.681 -0.1146  1.0364  0.1231
 1588TIP3   OH226178   2.119   6.553  16.719  0.1497 -0.7909  0.7314
 1588TIP3    H126179   2.191   6.543  16.656  0.9102 -1.0642  1.6203
 1588TIP3    H226180   2.045   6.583  16.666  0.9818 -0.2683 -0.1657
 1589TIP3   OH226181   6.726   1.120  12.843  0.2194  0.4865  0.0148
 1589TIP3    H126182   6.815   1.156  12.837 -0.0710  1.4377  0.9999
 1589TIP3    H226183   6.702   1.102  12.752  0.3647  2.9143 -0.5889
 1590TIP3   OH226184   6.436   1.340  11.707 -0.2413  0.0152 -0.0752
 1590TIP3    H126185   6.500   1.274  11.736  0.9298  1.2734  0.3188
 1590TIP3    H226186   6.413   1.387  11.787 -1.6130 -0.3498 -0.2329
 1591TIP3   OH226187   2.206   2.916   0.465 -0.5755 -0.6284 -0.2692
 1591TIP3    H126188   2.241   2.838   0.507 -1.1535  0.1089  1.6856
 1591TIP3    H226189   2.141   2.883   0.403 -0.4006 -1.7184  0.1134
 1592TIP3   OH226190   0.661   6.560  10.517 -0.8225  0.1694  0.2262
 1592TIP3    H126191   0.576   6.557  10.474 -0.1224  1.4429 -1.3540
 1592TIP3    H226192   0.664   6.647  10.558 -0.7678 -0.3522  1.3644
 1593TIP3   OH226193   2.311   2.380  14.686 -0.2957  0.5064  0.2404
 1593TIP3    H126194   2.386   2.436  14.706  0.6313 -0.4498 -0.4168
 1593TIP3    H226195   2.283   2.408  14.599 -0.5365  0.6860  0.3747
 1594TIP3   OH226196   0.351   2.435   6.429 -0.5583  0.5119  0.5335
 1594TIP3    H126197   0.282   2.394   6.480 -2.5783  0.6894 -1.8476
 1594TIP3    H226198   0.319   2.524   6.412  0.4127  0.7268 -0.2912
 1595TIP3   OH226199   1.978   1.517   2.545 -0.2452  0.0087 -0.4531
 1595TIP3    H126200   1.985   1.574   2.622 -0.1560  0.3623 -0.7210
 1595TIP3    H226201   2.000   1.574   2.471 -0.3373 -0.3285 -0.7412
 1596TIP3   OH226202   1.693   6.663  14.298  0.1721 -0.3868  0.1201
 1596TIP3    H126203   1.721   6.685  14.387  1.0019  1.0792 -0.4583
 1596TIP3    H226204   1.623   6.725  14.279  0.1008 -0.5909 -0.2879
 1597TIP3   OH226205   1.752   0.265   1.328 -0.2871  0.1523  0.1813
 1597TIP3    H126206   1.663   0.247   1.359 -0.3786  2.7654  1.6969
 1597TIP3    H226207   1.741   0.334   1.263  0.5038 -0.9499 -1.1849
 1598TIP3   OH226208   4.094   4.673  15.994 -0.2592 -0.0902 -0.5803
 1598TIP3    H126209   4.101   4.580  15.972  1.5033 -0.0779 -0.1640
 1598TIP3    H226210   4.057   4.673  16.083 -1.3748 -0.3244 -1.0194
 1599TIP3   OH226211   2.377   2.955  13.921 -0.0039 -0.7086  0.5171
 1599TIP3    H126212   2.444   2.987  13.982 -0.0671 -0.2741  0.3654
 1599TIP3    H226213   2.300   3.010  13.939 -0.1913 -0.9303  0.4090
 1600TIP3   OH226214   1.471   1.711   3.591  0.0059  0.0294  0.3902
 1600TIP3    H126215   1.497   1.718   3.499 -0.2009  1.0546  0.3933
 1600TIP3    H226216   1.552   1.691   3.638  0.1868 -0.0783  0.0359
 1601TIP3   OH226217   0.598   6.565   3.001 -0.0583  0.9905  0.1150
 1601TIP3    H126218   0.588   6.515   2.920  1.0187  0.3374  0.3613
 1601TIP3    H226219   0.508   6.588   3.026 -0.5205 -0.0857 -0.4651
 1602TIP3   OH226220   4.459   4.625   0.868  0.3307 -0.0728  0.3388
 1602TIP3    H126221   4.414   4.578   0.798 -0.4030 -1.2236  1.5476
 1602TIP3    H226222   4.457   4.717   0.839 -1.5206 -0.2736 -0.3342
 1603TIP3   OH226223   5.442   5.044   2.400  0.2868  0.4519  0.2441
 1603TIP3    H126224   5.440   4.968   2.459 -0.4126 -0.0040 -0.3550
 1603TIP3    H226225   5.532   5.075   2.405  1.2236 -1.7785 -1.1968
 1604TIP3   OH226226   5.221   4.902   2.825 -0.0157 -0.5935 -0.1048
 1604TIP3    H126227   5.149   4.849   2.859 -1.2594 -1.9511 -4.2624
 1604TIP3    H226228   5.183   4.989   2.812 -0.1139 -0.6022  0.1238
 1605TIP3   OH226229   2.912   6.082  15.032 -0.2825 -0.9259 -0.5919
 1605TIP3    H126230   2.897   5.998  14.989 -1.8598 -1.0141  0.0649
 1605TIP3    H226231   2.827   6.105  15.071 -0.1734  1.4247 -1.5528
 1606TIP3   OH226232   3.301   6.153   1.476  0.2453  0.6859  0.4992
 1606TIP3    H126233   3.357   6.107   1.413  1.3069  0.7906  1.3434
 1606TIP3    H226234   3.301   6.098   1.553 -0.4654  0.9146  0.6671
 1607TIP3   OH226235   1.692   1.895   0.145  0.6097 -0.1968  0.5088
 1607TIP3    H126236   1.629   1.841   0.097  0.9740  1.3920 -1.9176
 1607TIP3    H226237   1.639   1.948   0.204 -0.1668 -0.0632 -0.3039
 1608TIP3   OH226238   1.766   4.536  15.335 -0.0719  0.2477  0.5352
 1608TIP3    H126239   1.730   4.466  15.390  1.5271 -0.5635  0.6066
 1608TIP3    H226240   1.859   4.515  15.326  0.2575  1.8401 -0.2700
 1609TIP3   OH226241   0.116   4.606  13.174  0.4729  0.2903 -0.7681
 1609TIP3    H126242   0.132   4.696  13.144  0.7372  0.0364 -1.4005
 1609TIP3    H226243   0.093   4.558  13.095 -3.0744  0.4980 -0.0170
 1610TIP3   OH226244   5.604   2.299   5.625 -0.1727  0.2605 -0.3098
 1610TIP3    H126245   5.635   2.368   5.566 -0.4120  0.1211 -0.6030
 1610TIP3    H226246   5.588   2.224   5.567 -0.9928  0.3067 -0.1492
 1611TIP3   OH226247   2.460   0.433   5.658 -0.3131 -0.6010 -0.0437
 1611TIP3    H126248   2.487   0.346   5.688 -2.3465 -1.2595  0.0135
 1611TIP3    H226249   2.506   0.445   5.575  0.1932 -1.5989  0.0761
 1612TIP3   OH226250   6.544   3.793  11.761 -0.3443  0.1870 -0.5806
 1612TIP3    H126251   6.634   3.764  11.774 -0.7964 -0.4685  1.4405
 1612TIP3    H226252   6.546   3.887  11.780 -0.1541  0.0967 -0.1556
 1613TIP3   OH226253   5.990   1.700   0.846  0.3201  0.0028 -0.1960
 1613TIP3    H126254   5.958   1.737   0.928  2.6303  2.5814 -0.3289
 1613TIP3    H226255   6.070   1.652   0.870  0.8440  0.5128 -0.8688
 1614TIP3   OH226256   3.170   3.854  11.500  0.3348  0.1957  0.1687
 1614TIP3    H126257   3.120   3.774  11.518  0.4333 -0.4700 -2.2105
 1614TIP3    H226258   3.108   3.912  11.455  1.2110  0.0050 -1.3475
 1615TIP3   OH226259   2.311   6.502   4.810  0.0367  0.2919  0.7962
 1615TIP3    H126260   2.401   6.533   4.817  0.4942 -1.1691  2.0269
 1615TIP3    H226261   2.319   6.407   4.808 -1.4403  0.1596 -0.0569
 1616TIP3   OH226262   5.930   2.557   0.627 -0.0010  0.4535  0.2788
 1616TIP3    H126263   5.956   2.465   0.631 -0.8132  0.2626  1.9644
 1616TIP3    H226264   5.977   2.599   0.699 -1.6993  0.7693  1.2722
 1617TIP3   OH226265   3.362   5.465  14.909  0.0489  0.6367 -0.2728
 1617TIP3    H126266   3.335   5.536  14.850 -0.3611  0.2943 -0.5044
 1617TIP3    H226267   3.452   5.486  14.931 -0.4706  1.9766  0.7547
 1618TIP3   OH226268   0.460   1.166   4.351  0.1274  0.4954 -0.5691
 1618TIP3    H126269   0.402   1.239   4.327 -2.2164 -1.4173 -1.0892
 1618TIP3    H226270   0.449   1.158   4.446 -1.1416 -0.3361 -0.7601
 1619TIP3   OH226271   4.488   0.559   3.105  0.6017 -0.6310 -0.7079
 1619TIP3    H126272   4.504   0.487   3.044  0.4854 -0.4469 -0.9590
 1619TIP3    H226273   4.574   0.577   3.144  0.6733 -0.7645 -0.8028
 1620TIP3   OH226274   2.657   1.949  14.254 -0.0701  0.1105  0.4279
 1620TIP3    H126275   2.717   1.991  14.192  1.6837 -0.6174  1.5583
 1620TIP3    H226276   2.637   1.864  14.215  0.8146 -0.2362  0.7031
 1621TIP3   OH226277   2.568   1.238   5.843  0.0623 -0.2315  0.6330
 1621TIP3    H126278   2.519   1.155   5.837 -1.3724  0.6062  0.2275
 1621TIP3    H226279   2.660   1.212   5.845 -0.3153 -1.7898 -0.5771
 1622TIP3   OH226280   4.962   4.915  15.508 -0.2278  0.4448 -0.3878
 1622TIP3    H126281   4.994   5.005  15.504  1.8518 -0.2904 -1.9614
 1622TIP3    H226282   4.870   4.921  15.483 -0.7495  2.3388  1.6570
 1623TIP3   OH226283   0.349   1.643   0.803 -0.2038 -0.2538 -0.3650
 1623TIP3    H126284   0.323   1.627   0.894  2.1436  1.1875  0.6604
 1623TIP3    H226285   0.320   1.732   0.785  0.6513  0.0131 -0.4755
 1624TIP3   OH226286   0.688   1.532  14.087  0.3655  0.1538  0.5206
 1624TIP3    H126287   0.691   1.438  14.105 -0.3567  0.3230  1.6421
 1624TIP3    H226288   0.699   1.539  13.993 -0.0753 -1.0979  0.3544
 1625TIP3   OH226289   4.373   4.512   5.856  0.0355  0.1990  0.7470
 1625TIP3    H126290   4.366   4.538   5.764 -0.0500 -0.8796  0.4331
 1625TIP3    H226291   4.466   4.495   5.870  0.4230  2.6685  1.5414
 1626TIP3   OH226292   2.815   1.581  13.264 -0.6904 -0.5183 -0.3872
 1626TIP3    H126293   2.738   1.543  13.305  0.5550 -1.1177  1.5406
 1626TIP3    H226294   2.781   1.655  13.213 -2.4689 -0.4292  0.8367
 1627TIP3   OH226295   2.649   2.929  10.377  0.0370  0.1929  0.0910
 1627TIP3    H126296   2.678   3.014  10.345  1.0959 -0.2287 -0.0817
 1627TIP3    H226297   2.575   2.949  10.435 -0.0268  1.1808 -0.3237
 1628TIP3   OH226298   2.828   1.933  11.795 -0.1486 -0.0732  0.4450
 1628TIP3    H126299   2.817   1.847  11.753 -1.6374  1.1815 -1.9319
 1628TIP3    H226300   2.912   1.965  11.762  0.2702 -0.4512  1.1093
 1629TIP3   OH226301   2.356   4.251  12.896 -0.5742  0.2842 -0.7371
 1629TIP3    H126302   2.380   4.329  12.845 -1.3748 -0.3378 -2.1163
 1629TIP3    H226303   2.413   4.182  12.864 -1.0890 -0.1149 -0.8160
 1630TIP3   OH226304   1.773   5.004  14.496  0.0807 -0.5120  0.5862
 1630TIP3    H126305   1.765   5.091  14.537 -1.1618  0.6784 -1.9751
 1630TIP3    H226306   1.738   4.944  14.562  0.6868  0.9312  2.3205
 1631TIP3   OH226307   1.362   4.187   1.214 -0.3727  0.1325 -0.3913
 1631TIP3    H126308   1.303   4.184   1.139 -1.9186 -0.2202  0.7810
 1631TIP3    H226309   1.363   4.097   1.247  0.7113  0.1673 -0.2983
 1632TIP3   OH226310   5.404   2.396  14.235  0.4377 -0.1270 -0.5182
 1632TIP3    H126311   5.486   2.393  14.283  0.1461  1.1801  0.1281
 1632TIP3    H226312   5.425   2.362  14.148  1.6298  0.0859 -0.3302
 1633TIP3   OH226313   5.246   4.849   4.890  0.0198 -0.0136 -0.1552
 1633TIP3    H126314   5.278   4.935   4.915 -1.0714  0.8439 -1.5612
 1633TIP3    H226315   5.175   4.830   4.951  1.3702 -0.7325  1.2590
 1634TIP3   OH226316   3.905   2.718   0.714  0.5112 -0.6206 -0.0907
 1634TIP3    H126317   3.986   2.671   0.698  1.2843  0.3436  0.7980
 1634TIP3    H226318   3.892   2.711   0.809 -0.7463 -1.2126 -0.2811
 1635TIP3   OH226319   5.829   3.853   5.326  0.2128  0.3951 -0.2850
 1635TIP3    H126320   5.787   3.805   5.397  1.7609 -1.3322 -0.4797
 1635TIP3    H226321   5.837   3.789   5.255  1.7172  1.1151 -0.8058
 1636TIP3   OH226322   6.269   4.128   4.966 -0.3877  0.7881  0.6963
 1636TIP3    H126323   6.272   4.163   4.877 -1.5897  1.8484  1.0397
 1636TIP3    H226324   6.225   4.043   4.956  0.6117  0.3222  0.1326
 1637TIP3   OH226325   4.281   4.531   4.035 -0.5226 -0.1008 -0.0677
 1637TIP3    H126326   4.246   4.618   4.013 -0.7446 -0.5016 -1.4615
 1637TIP3    H226327   4.260   4.478   3.958  0.8307 -1.0433  0.1899
 1638TIP3   OH226328   2.155   2.219  12.280  0.0662 -0.5724  0.0156
 1638TIP3    H126329   2.232   2.195  12.229  1.3641 -1.3770  2.2098
 1638TIP3    H226330   2.093   2.147  12.265  0.6589 -1.0933  0.0152
 1639TIP3   OH226331   2.476   4.824   0.043  1.0690 -0.0795 -0.2378
 1639TIP3    H126332   2.483   4.734   0.074  0.0333 -0.4443 -1.0248
 1639TIP3    H226333   2.502   4.821  -0.049 -1.3958 -0.0812 -1.0083
 1640TIP3   OH226334   4.749   4.288   1.948  0.2190 -0.2911  0.3918
 1640TIP3    H126335   4.719   4.376   1.928  0.6855 -0.3134 -0.4696
 1640TIP3    H226336   4.786   4.256   1.866 -0.7723 -1.6411  0.4468
 1641TIP3   OH226337   2.530   0.662  15.588 -0.4257  0.2217  0.0844
 1641TIP3    H126338   2.541   0.582  15.536  3.0887  0.1604  0.6443
 1641TIP3    H226339   2.505   0.631  15.675 -5.1631  0.2625 -0.9978
 1642TIP3   OH226340   3.561   4.853  15.728  0.5202  0.1714  0.0523
 1642TIP3    H126341   3.490   4.897  15.681  0.8436 -0.4210 -1.0432
 1642TIP3    H226342   3.531   4.764  15.740  0.8593  0.0544  0.0556
 1643TIP3   OH226343   2.827   1.602  13.924 -0.5654  0.1047  0.3816
 1643TIP3    H126344   2.912   1.595  13.968 -1.6222 -0.6628  2.4719
 1643TIP3    H226345   2.848   1.611  13.831  1.7427 -2.0845  0.5932
 1644TIP3   OH226346   5.019   3.828  16.795  0.0342  0.1446  0.0237
 1644TIP3    H126347   5.016   3.894  16.725  0.0787  0.5621  0.4086
 1644TIP3    H226348   4.934   3.835  16.838  0.3900  0.6281  0.6705
 1645TIP3   OH226349   4.604   5.305   3.273  0.1282  0.7645 -0.4605
 1645TIP3    H126350   4.604   5.377   3.336  0.0038  0.4242 -0.0697
 1645TIP3    H226351   4.603   5.348   3.187  0.3373  1.2288 -0.2306
 1646TIP3   OH226352   3.523   4.321  13.917  0.2455 -0.0646 -0.0891
 1646TIP3    H126353   3.567   4.341  13.834  0.0927  1.7602  0.2096
 1646TIP3    H226354   3.429   4.325  13.896  0.1765 -1.9907 -0.3071
 1647TIP3   OH226355   2.187   4.735   4.848 -0.3076  0.0746 -0.1365
 1647TIP3    H126356   2.092   4.732   4.864 -0.7472 -0.4270 -2.4608
 1647TIP3    H226357   2.199   4.810   4.790  0.9630  1.0040  1.2634
 1648TIP3   OH226358   0.607   2.824   6.050 -0.1024 -0.4173  0.0839
 1648TIP3    H126359   0.569   2.811   6.137  0.3614 -1.9193  0.0881
 1648TIP3    H226360   0.672   2.892   6.063  2.0586 -2.5841  1.6293
 1649TIP3   OH226361   3.161   0.290  13.188  0.5002 -0.1381  0.2483
 1649TIP3    H126362   3.169   0.240  13.269 -0.3208  0.7521  0.8980
 1649TIP3    H226363   3.072   0.272  13.157  0.4061  0.4270  0.1703
 1650TIP3   OH226364   4.957   0.288   0.680 -0.0389 -0.3300 -0.1685
 1650TIP3    H126365   5.051   0.306   0.684  0.3509 -2.1437 -0.1184
 1650TIP3    H226366   4.920   0.337   0.753  1.1650 -1.0720  0.9932
 1651TIP3   OH226367   6.514   5.089   0.166  0.0958  0.3905 -0.1339
 1651TIP3    H126368   6.463   5.158   0.122 -0.3750  0.2160  0.1372
 1651TIP3    H226369   6.600   5.092   0.123  0.3148  1.6258  0.3575
 1652TIP3   OH226370   3.843   4.008   3.755 -0.1137  0.1922  0.0913
 1652TIP3    H126371   3.803   3.943   3.698 -1.3145  0.9010  0.0805
 1652TIP3    H226372   3.910   4.050   3.701  0.9600 -1.2697  0.2257
 1653TIP3   OH226373   1.300   3.328  11.551 -0.5323 -0.9138 -0.7430
 1653TIP3    H126374   1.222   3.382  11.542 -0.0692  0.0592  0.7525
 1653TIP3    H226375   1.364   3.368  11.493 -0.3734 -0.2062 -0.0817
 1654TIP3   OH226376   1.259   4.634  12.001 -0.3142 -0.3986 -0.5198
 1654TIP3    H126377   1.285   4.544  12.018  0.9316  0.0806  0.3235
 1654TIP3    H226378   1.342   4.683  12.001 -1.0423  0.9159  0.2203
 1655TIP3   OH226379   5.639   5.570   4.301  0.3512 -0.6601  0.0684
 1655TIP3    H126380   5.668   5.534   4.385 -1.9785 -0.9651  0.8152
 1655TIP3    H226381   5.606   5.657   4.322 -0.6660 -0.9136 -0.4292
 1656TIP3   OH226382   4.471   1.045  14.193 -0.4147  0.1300  0.1323
 1656TIP3    H126383   4.408   0.991  14.146 -0.2365  0.4633 -0.4912
 1656TIP3    H226384   4.430   1.059  14.279 -0.1195 -1.6493  0.6170
 1657TIP3   OH226385   1.050   1.810   6.443 -0.0306  0.5048  0.5111
 1657TIP3    H126386   0.955   1.803   6.453 -0.1686  1.4767  0.0365
 1657TIP3    H226387   1.077   1.725   6.407 -0.7519  0.3106  0.4097
 1658TIP3   OH226388   1.837   3.373  11.700  0.1217  0.3331  0.0222
 1658TIP3    H126389   1.775   3.440  11.728  1.3993  1.6266 -0.0956
 1658TIP3    H226390   1.891   3.416  11.633  0.8618 -0.8728 -0.1974
 1659TIP3   OH226391   2.996   3.969  11.342  0.0622 -0.4757  0.4938
 1659TIP3    H126392   3.038   4.048  11.307 -1.1511  0.0433  0.1449
 1659TIP3    H226393   2.903   3.982  11.324 -0.3917 -1.1029  2.1726
 1660TIP3   OH226394   1.127   0.212   0.542  0.4058  0.0826  0.1469
 1660TIP3    H126395   1.187   0.217   0.616  0.7500 -0.5374 -0.0839
 1660TIP3    H226396   1.087   0.125   0.550  1.3314 -0.4886 -1.0528
 1661TIP3   OH226397   4.936   4.135   2.271  0.1166  0.4206 -0.0610
 1661TIP3    H126398   4.905   4.160   2.358 -0.9453  1.8559 -0.8149
 1661TIP3    H226399   4.858   4.107   2.224  0.7419 -0.7459 -0.4349
 1662TIP3   OH226400   3.980   6.775   4.835 -0.2858 -0.2260  0.0200
 1662TIP3    H126401   4.055   6.757   4.891 -0.2154  0.1657  0.0515
 1662TIP3    H226402   3.970   6.695   4.783 -0.2777 -0.5485  0.5012
 1663TIP3   OH226403   0.335   1.079   3.932  0.0733 -0.5297  0.0442
 1663TIP3    H126404   0.272   1.141   3.895  0.1696 -0.9431 -0.8365
 1663TIP3    H226405   0.313   1.074   4.025  1.5596  2.6606  0.6927
 1664TIP3   OH226406   1.949   1.199  12.317  0.2708 -0.5056 -0.1930
 1664TIP3    H126407   1.864   1.169  12.349  0.0344  0.0863 -0.2620
 1664TIP3    H226408   1.954   1.291  12.343  1.6092 -0.9569  1.2845
 1665TIP3   OH226409   2.688   4.032  13.293 -0.3822  0.5913  0.5462
 1665TIP3    H126410   2.635   4.040  13.213  1.7103 -0.1468 -0.9874
 1665TIP3    H226411   2.739   3.952  13.280 -0.5437  0.0177  3.0171
 1666TIP3   OH226412   0.496   4.552   5.318  0.5021  0.3070  0.3603
 1666TIP3    H126413   0.429   4.494   5.354  0.5641  0.6534  1.0382
 1666TIP3    H226414   0.478   4.638   5.357  1.3835  0.3871  0.6219
 1667TIP3   OH226415   6.634   1.681  13.231  0.9238 -0.3011  0.4023
 1667TIP3    H126416   6.676   1.596  13.247 -1.4050 -1.2068  2.2139
 1667TIP3    H226417   6.642   1.727  13.314 -2.5819 -1.0286  1.2979
 1668TIP3   OH226418   3.178   4.402   4.355 -0.1039 -0.3791  0.0417
 1668TIP3    H126419   3.172   4.376   4.447 -1.5251 -1.9681 -0.4463
 1668TIP3    H226420   3.171   4.497   4.357 -0.9252 -0.4341  1.5334
 1669TIP3   OH226421   0.063   5.675   3.635  0.2363  0.2681 -0.0462
 1669TIP3    H126422   0.001   5.681   3.562  0.1982 -0.8442 -0.1203
 1669TIP3    H226423   0.015   5.630   3.704  0.8386 -0.2983  0.0165
 1670TIP3   OH226424   6.379   0.831   1.744  0.0560 -0.2027  0.0647
 1670TIP3    H126425   6.416   0.841   1.657 -0.1476 -1.1894 -0.1570
 1670TIP3    H226426   6.308   0.895   1.748  1.4756  1.3983  0.3402
 1671TIP3   OH226427   2.901   2.221  16.751  0.1639 -0.2835  0.6904
 1671TIP3    H126428   2.942   2.274  16.819  0.5011  0.8600 -0.3522
 1671TIP3    H226429   2.811   2.253  16.747  0.5559  0.7871 -0.4322
 1672TIP3   OH226430   0.597   5.806  14.336  0.3816  0.0820  0.0737
 1672TIP3    H126431   0.597   5.739  14.405 -0.6322 -0.3917 -0.3680
 1672TIP3    H226432   0.604   5.757  14.255  3.2812  0.7158 -0.1608
 1673TIP3   OH226433   4.931   3.214  15.075 -0.1320  0.3721  1.1824
 1673TIP3    H126434   5.019   3.251  15.072 -0.1482  0.3733 -0.9638
 1673TIP3    H226435   4.941   3.133  15.126  1.4424 -0.3149 -0.1045
 1674TIP3   OH226436   0.509   0.795  12.189 -0.3052  0.4231  0.6437
 1674TIP3    H126437   0.475   0.722  12.138 -1.1343  0.6913  0.7859
 1674TIP3    H226438   0.598   0.770  12.213 -0.6548 -0.6383  0.8797
 1675TIP3   OH226439   4.357   4.805  14.853  0.0251  0.4686 -0.4975
 1675TIP3    H126440   4.347   4.872  14.921 -0.6281  1.7897 -1.8488
 1675TIP3    H226441   4.429   4.836  14.799  1.4625 -1.2612  0.3011
 1676TIP3   OH226442   1.864   2.540   1.311  0.5273  0.1716 -0.2889
 1676TIP3    H126443   1.854   2.602   1.382 -2.4237 -1.4152  0.9020
 1676TIP3    H226444   1.868   2.594   1.232  2.0047  1.9183  0.9162
 1677TIP3   OH226445   2.870   1.727  12.567 -0.0066  0.4969 -0.0478
 1677TIP3    H126446   2.823   1.736  12.650  1.8109  1.0427  0.9675
 1677TIP3    H226447   2.949   1.779  12.579  0.1254  0.8901 -2.2761
 1678TIP3   OH226448   1.058   1.185  14.417  0.0375  0.5647  0.2097
 1678TIP3    H126449   1.127   1.228  14.366  0.6811  1.4627  1.7437
 1678TIP3    H226450   1.025   1.116  14.360 -1.1009  3.0871 -2.4372
 1679TIP3   OH226451   2.681   0.253  16.201 -0.2917  0.1290  0.2287
 1679TIP3    H126452   2.623   0.184  16.232  2.5782 -2.4771  0.3353
 1679TIP3    H226453   2.721   0.216  16.122  2.6878  0.8345  1.2768
 1680TIP3   OH226454   6.151   0.398  12.987  0.0327  0.6236 -0.1099
 1680TIP3    H126455   6.138   0.491  12.969  0.6979  0.6008 -0.7405
 1680TIP3    H226456   6.228   0.374  12.935 -0.0598 -0.2495  0.1458
 1681TIP3   OH226457   5.200   2.276  10.681 -0.7708 -0.4981  0.5577
 1681TIP3    H126458   5.138   2.343  10.709  0.0331  1.5073 -2.0777
 1681TIP3    H226459   5.157   2.233  10.608  0.2091 -0.3001 -0.1530
 1682TIP3   OH226460   6.072   4.297   0.531  0.2576  0.1265  0.2627
 1682TIP3    H126461   6.001   4.328   0.475  0.9550  0.6971 -0.3236
 1682TIP3    H226462   6.076   4.203   0.515 -0.1404  0.1453  0.0424
 1683TIP3   OH226463   3.556   0.356   3.647 -0.2228  0.2250 -0.2720
 1683TIP3    H126464   3.558   0.378   3.740 -1.6058  0.5520 -0.3122
 1683TIP3    H226465   3.558   0.260   3.645 -2.6775  0.1106  0.2158
 1684TIP3   OH226466   3.632   4.316  12.944  0.2426 -0.1279 -0.3722
 1684TIP3    H126467   3.611   4.298  13.035 -0.4229 -0.6652 -0.6253
 1684TIP3    H226468   3.691   4.245  12.918  3.1301  1.7337  0.5380
 1685TIP3   OH226469   2.956   3.809  16.257  0.3175 -0.2617  0.1810
 1685TIP3    H126470   2.902   3.748  16.207  0.5941  0.3028 -0.8522
 1685TIP3    H226471   2.899   3.885  16.272  0.4667 -0.1198  0.0438
 1686TIP3   OH226472   4.075   4.142   1.954  0.4114  0.1735  0.0281
 1686TIP3    H126473   4.095   4.208   2.021 -1.0428  1.5486 -0.8002
 1686TIP3    H226474   3.981   4.125   1.966 -0.0188  0.8664 -1.9510
 1687TIP3   OH226475   5.285   1.961  16.439 -0.0705 -0.5902 -0.0655
 1687TIP3    H126476   5.363   2.007  16.407 -0.3717 -1.0318 -1.4981
 1687TIP3    H226477   5.241   1.931  16.360  0.0241 -3.2334  0.7837
 1688TIP3   OH226478   0.400   5.973  15.763  0.7284  0.4008 -0.0959
 1688TIP3    H126479   0.381   5.977  15.857 -0.5308  0.7415 -0.3551
 1688TIP3    H226480   0.367   5.888  15.735 -1.3197  1.3470 -0.7167
 1689TIP3   OH226481   6.692   1.054  14.010  0.2964  0.0785 -0.1562
 1689TIP3    H126482   6.691   0.996  13.933  1.5682  0.2944 -0.3615
 1689TIP3    H226483   6.631   1.013  14.071 -0.2292 -0.4644 -1.0236
 1690TIP3   OH226484   0.294   6.289   6.064 -0.0414 -0.0659  0.4051
 1690TIP3    H126485   0.264   6.351   6.131  0.7426  1.0615 -0.2413
 1690TIP3    H226486   0.360   6.235   6.109 -0.4184 -0.1537  0.8640
 1691TIP3   OH226487   2.976   0.247   4.178 -0.4222 -0.2644 -0.4985
 1691TIP3    H126488   2.997   0.340   4.171 -1.6212 -0.1281 -3.5814
 1691TIP3    H226489   2.880   0.244   4.175 -0.3774 -1.6623 -3.2241
 1692TIP3   OH226490   3.917   2.115   0.351 -0.7208  0.2138 -0.1180
 1692TIP3    H126491   3.981   2.085   0.415  0.3913  1.2896 -0.6891
 1692TIP3    H226492   3.857   2.041   0.340  0.6772 -0.9805  0.0887
 1693TIP3   OH226493   0.598   1.685   0.203  0.3485  0.0935 -0.1856
 1693TIP3    H126494   0.571   1.593   0.200  0.5255  0.0655 -0.8645
 1693TIP3    H226495   0.551   1.727   0.131 -0.9831  0.8805  1.0772
 1694TIP3   OH226496   6.803   4.493   2.571  0.6331  0.2044  0.2761
 1694TIP3    H126497   6.814   4.553   2.645  2.4635  0.0038  0.2162
 1694TIP3    H226498   6.709   4.477   2.567  0.1600  2.5213  0.7105
 1695TIP3   OH226499   4.147   5.324   0.263 -0.2684  0.0807  0.0071
 1695TIP3    H126500   4.187   5.399   0.307  0.7497 -0.7755  0.5998
 1695TIP3    H226501   4.059   5.319   0.301 -0.4105  1.0681 -0.1667
 1696TIP3   OH226502   6.687   3.898  13.052  0.2556 -0.3188 -0.6286
 1696TIP3    H126503   6.708   3.808  13.025  1.2232  0.5502 -3.0776
 1696TIP3    H226504   6.602   3.916  13.010 -0.1704 -0.2277  0.2560
 1697TIP3   OH226505   5.529   2.621   3.779 -0.2432 -0.2185  0.0345
 1697TIP3    H126506   5.586   2.649   3.707 -0.3590  1.0038  0.4103
 1697TIP3    H226507   5.521   2.526   3.766  0.6520 -0.1911 -0.9010
 1698TIP3   OH226508   1.345   2.622   0.721 -0.0866  0.5099 -0.2660
 1698TIP3    H126509   1.376   2.700   0.767  0.6104  1.1670 -1.7775
 1698TIP3    H226510   1.423   2.586   0.679 -0.3383 -1.1962  0.6332
 1699TIP3   OH226511   4.854   3.854  11.917  0.4369  0.1424 -0.3512
 1699TIP3    H126512   4.834   3.777  11.972 -0.5200  0.2506 -0.5369
 1699TIP3    H226513   4.946   3.873  11.935  0.1998  0.0382  1.0542
 1700TIP3   OH226514   3.313   3.115   3.067 -0.0305  0.1147 -0.2445
 1700TIP3    H126515   3.322   3.210   3.070 -2.5266  0.4007  0.1749
 1700TIP3    H226516   3.288   3.090   3.155  1.5127 -1.0999 -0.1016
 1701TIP3   OH226517   5.790   1.637   6.481 -0.1994  0.0156  0.1250
 1701TIP3    H126518   5.793   1.550   6.441  0.6845  0.3066 -0.4685
 1701TIP3    H226519   5.761   1.621   6.571  0.9752 -1.0100  0.3441
 1702TIP3   OH226520   4.413   2.289  14.351  0.2771  0.1376 -0.4166
 1702TIP3    H126521   4.324   2.289  14.386  0.3178  0.3722 -0.3166
 1702TIP3    H226522   4.466   2.246  14.419  0.9259  3.2856  1.2299
 1703TIP3   OH226523   1.285   2.680  16.136 -0.1744 -0.0520 -0.5347
 1703TIP3    H126524   1.247   2.684  16.224 -0.4309 -3.1132 -0.4115
 1703TIP3    H226525   1.210   2.668  16.078  0.1078  0.6972 -1.0792
 1704TIP3   OH226526   2.815   3.906   0.109  0.1332 -0.5233 -0.5365
 1704TIP3    H126527   2.824   3.997   0.078 -0.1499 -0.9699 -2.0362
 1704TIP3    H226528   2.746   3.909   0.175 -1.0052  0.1225 -1.7107
 1705TIP3   OH226529   5.120   1.038   0.381  0.1430  0.2359 -0.2605
 1705TIP3    H126530   5.117   0.945   0.405 -2.0971  0.6359  1.3184
 1705TIP3    H226531   5.206   1.049   0.341 -0.0479 -2.8316 -1.9113
 1706TIP3   OH226532   5.198   3.513  16.282  0.3553 -0.4785 -0.3156
 1706TIP3    H126533   5.184   3.605  16.304 -0.3548 -1.0375  1.7242
 1706TIP3    H226534   5.289   3.509  16.251  1.5184  0.4353  2.6420
 1707TIP3   OH226535   4.074   6.215  15.125 -0.1426 -0.4344  0.2074
 1707TIP3    H126536   4.025   6.289  15.162  0.0708 -0.2824  0.1841
 1707TIP3    H226537   4.036   6.138  15.169  0.7797 -0.1841  1.5033
 1708TIP3   OH226538   4.595   6.616  16.662 -0.6289  0.2439  0.2705
 1708TIP3    H126539   4.627   6.696  16.622  2.1993 -1.1499 -0.5672
 1708TIP3    H226540   4.591   6.636  16.756  0.5858  1.2178  0.1394
 1709TIP3   OH226541   4.201   4.921  12.165 -0.2762 -0.7945  0.1722
 1709TIP3    H126542   4.173   4.849  12.221 -1.5839 -1.0698 -0.7880
 1709TIP3    H226543   4.150   4.996  12.194  2.6745  0.4778  2.7061
 1710TIP3   OH226544   1.348   5.786  13.721  0.1673 -0.6493 -0.1713
 1710TIP3    H126545   1.423   5.792  13.662 -0.3366  2.6831 -0.6677
 1710TIP3    H226546   1.355   5.863  13.776 -2.8535 -0.2460 -0.2048
 1711TIP3   OH226547   3.786   2.646  14.640  0.4657 -0.0510  0.0928
 1711TIP3    H126548   3.791   2.578  14.573 -0.8638  1.0672 -1.2024
 1711TIP3    H226549   3.776   2.598  14.722  2.4093 -1.4570 -0.4257
 1712TIP3   OH226550   6.543   4.409   2.232 -0.0381  1.0043  0.5381
 1712TIP3    H126551   6.455   4.392   2.200  1.1661 -2.0906 -1.6303
 1712TIP3    H226552   6.590   4.443   2.156  1.2792 -0.0230  0.8612
 1713TIP3   OH226553   4.940   6.126   3.613 -0.3033  0.1161 -0.3435
 1713TIP3    H126554   4.853   6.093   3.588 -0.4429  1.2506 -1.4254
 1713TIP3    H226555   4.966   6.183   3.540  1.0117  0.4049  0.3320
 1714TIP3   OH226556   0.721   1.642   1.009  0.0884  0.1509 -0.2274
 1714TIP3    H126557   0.746   1.558   1.047 -1.0919 -0.6324 -1.1137
 1714TIP3    H226558   0.644   1.669   1.058  0.6063  0.8564  0.2160
 1715TIP3   OH226559   2.230   3.641   2.315 -0.0047  0.8803 -0.2272
 1715TIP3    H126560   2.243   3.576   2.246 -2.8998  0.1422 -0.2110
 1715TIP3    H226561   2.174   3.708   2.276 -1.0767  0.8352  1.1621
 1716TIP3   OH226562   0.470   2.388   0.576 -0.3606 -0.6382  0.1220
 1716TIP3    H126563   0.396   2.349   0.528 -0.0868 -1.3224  0.2365
 1716TIP3    H226564   0.437   2.473   0.605 -1.5349 -1.4152  1.1881
 1717TIP3   OH226565   4.629   1.136  10.811  0.1327  0.5235  0.2320
 1717TIP3    H126566   4.656   1.200  10.746 -1.9747  1.1644 -0.0831
 1717TIP3    H226567   4.629   1.052  10.764  1.7855  0.4354  0.3393
 1718TIP3   OH226568   0.916   5.015  14.853 -0.1182 -0.4475 -0.0215
 1718TIP3    H126569   0.963   4.991  14.774 -0.3467  0.9206 -0.5987
 1718TIP3    H226570   0.980   5.005  14.923  0.7040  0.2777 -0.6461
 1719TIP3   OH226571   1.335   1.978  16.879  0.1562  0.0613 -0.0434
 1719TIP3    H126572   1.258   2.035  16.870 -1.0178 -1.6489 -1.7305
 1719TIP3    H226573   1.379   1.983  16.795  1.5136  0.4408  0.6607
 1720TIP3   OH226574   3.419   6.009   3.790 -0.0436 -0.4278 -0.5109
 1720TIP3    H126575   3.458   6.001   3.877 -0.2195  0.3956 -0.3509
 1720TIP3    H226576   3.364   5.931   3.781  0.3647 -0.7698 -0.0884
 1721TIP3   OH226577   4.326   2.751  15.851 -0.4798  0.0990  0.3474
 1721TIP3    H126578   4.242   2.770  15.893  0.1191  4.1417  0.0357
 1721TIP3    H226579   4.302   2.714  15.766 -1.8346 -0.9177  1.1166
 1722TIP3   OH226580   4.138   3.661  13.105 -0.0338  0.5805 -0.0471
 1722TIP3    H126581   4.079   3.704  13.044 -1.7942  0.7782  1.7077
 1722TIP3    H226582   4.081   3.606  13.160  1.7976 -1.9034 -0.4255
 1723TIP3   OH226583   0.151   5.991   4.717  0.1431  0.1096  0.3369
 1723TIP3    H126584   0.119   5.957   4.801  1.8637 -0.2461  0.8943
 1723TIP3    H226585   0.122   6.083   4.716  1.9916  0.7972  2.4161
 1724TIP3   OH226586   3.716   4.671  12.507 -0.0476  0.7615  0.4400
 1724TIP3    H126587   3.733   4.593  12.560 -0.5294  0.3993  0.0690
 1724TIP3    H226588   3.726   4.744  12.568  1.0060  0.4593  0.6532
 1725TIP3   OH226589   4.795   6.492   5.365 -0.2023  0.7238 -0.1495
 1725TIP3    H126590   4.864   6.475   5.429  0.8289 -0.1260 -1.4243
 1725TIP3    H226591   4.717   6.450   5.402  0.4843 -0.1426  0.3527
 1726TIP3   OH226592   6.204   6.810  15.303 -0.4450  0.1774 -1.0335
 1726TIP3    H126593   6.261   6.864  15.358 -0.1373 -1.6298  0.5142
 1726TIP3    H226594   6.120   6.855  15.305 -0.0300  0.9502 -0.3342
 1727TIP3   OH226595   6.562   3.748   2.762 -0.6405 -0.0857  0.6534
 1727TIP3    H126596   6.527   3.743   2.851  1.7524 -2.3114  1.6136
 1727TIP3    H226597   6.650   3.784   2.773 -1.4047  2.7139 -1.3004
 1728TIP3   OH226598   5.770   5.540   6.569  0.6562 -0.2200  0.4657
 1728TIP3    H126599   5.781   5.628   6.605  0.7094  0.2823 -0.7414
 1728TIP3    H226600   5.855   5.497   6.584  1.1431  0.4495 -0.2877
 1729TIP3   OH226601   4.382   6.066   4.366 -0.2465  0.1673 -0.2616
 1729TIP3    H126602   4.369   5.997   4.432  0.5141  1.7889  1.6704
 1729TIP3    H226603   4.305   6.059   4.309 -0.6889 -1.6156  0.4796
 1730TIP3   OH226604   5.984   2.988  13.036  0.3179  0.1235  0.5308
 1730TIP3    H126605   5.955   3.079  13.044  0.1059  0.1533 -0.3924
 1730TIP3    H226606   5.983   2.971  12.941  0.1610 -0.9022  0.7049
 1731TIP3   OH226607   6.016   0.915  14.487 -0.2002 -0.8428  0.4321
 1731TIP3    H126608   6.101   0.938  14.525 -0.1527  2.3919 -1.2559
 1731TIP3    H226609   6.038   0.860  14.411  0.4049 -0.3384  0.2271
 1732TIP3   OH226610   1.483   3.343   1.988 -0.1168  0.4235  0.0463
 1732TIP3    H126611   1.574   3.369   2.006 -0.2886  0.5775  0.7131
 1732TIP3    H226612   1.457   3.398   1.914  0.4451  0.1289 -0.3825
 1733TIP3   OH226613   3.600   4.964   4.430 -0.6440  0.1628  0.8510
 1733TIP3    H126614   3.530   4.905   4.456 -0.4328 -0.3446  0.3104
 1733TIP3    H226615   3.677   4.907   4.420 -0.6515  0.3582 -0.5707
 1734TIP3   OH226616   6.207   0.060   0.312  0.6985  0.0105 -0.1001
 1734TIP3    H126617   6.116   0.090   0.307  0.1878 -1.0181  1.7582
 1734TIP3    H226618   6.258   0.130   0.272 -0.8445  1.0092 -0.4111
 1735TIP3   OH226619   6.295   3.440   0.841  0.0139  0.5487 -0.3382
 1735TIP3    H126620   6.363   3.403   0.785 -0.4654  1.4353 -1.5378
 1735TIP3    H226621   6.245   3.499   0.784 -2.1268 -0.4913  0.3188
 1736TIP3   OH226622   6.369   6.365  16.204 -0.0939  0.0719  0.5844
 1736TIP3    H126623   6.280   6.332  16.215  0.4487 -0.9383  2.4418
 1736TIP3    H226624   6.378   6.432  16.272 -0.1083  1.7650 -1.0133
 1737TIP3   OH226625   5.549   4.329  12.817  0.9235  0.7982 -0.0826
 1737TIP3    H126626   5.530   4.296  12.905 -2.5245  1.7308 -0.3333
 1737TIP3    H226627   5.522   4.258  12.758  0.8950  1.0810 -0.4160
 1738TIP3   OH226628   6.147   3.478   0.244 -0.0999 -0.5086 -0.1714
 1738TIP3    H126629   6.137   3.387   0.217 -0.8214 -0.8729  1.2183
 1738TIP3    H226630   6.071   3.495   0.300  1.3439  0.1161  1.7233
 1739TIP3   OH226631   6.705   1.790   2.687 -0.5321 -0.2291 -0.2607
 1739TIP3    H126632   6.644   1.773   2.615 -1.4784 -1.3295  0.7504
 1739TIP3    H226633   6.753   1.868   2.660 -2.1814  0.5023 -1.2462
 1740TIP3   OH226634   4.472   5.978  12.500 -0.1163  0.5908 -0.0555
 1740TIP3    H126635   4.447   6.010  12.414  0.5138  1.9346  0.2413
 1740TIP3    H226636   4.483   5.883  12.488 -0.7406  0.6483 -1.2590
 1741TIP3   OH226637   2.055   3.525  15.377  0.2216 -0.4415 -0.2557
 1741TIP3    H126638   2.053   3.483  15.463  1.2953  0.5355  0.2745
 1741TIP3    H226639   2.148   3.530  15.355 -0.0386 -0.6938 -1.4953
 1742TIP3   OH226640   4.687   5.379   5.578 -0.1156 -0.4859 -0.3876
 1742TIP3    H126641   4.777   5.392   5.548 -0.3737 -0.6493 -1.2801
 1742TIP3    H226642   4.641   5.457   5.549  0.0126  0.2325  1.2736
 1743TIP3   OH226643   3.732   5.773   5.369 -0.5357 -0.2471 -0.0265
 1743TIP3    H126644   3.773   5.840   5.424 -1.2421 -0.9905  1.4573
 1743TIP3    H226645   3.666   5.821   5.318 -1.6418  0.0809  1.6587
 1744TIP3   OH226646   0.603   2.353  16.649 -0.6171 -0.0730  0.5336
 1744TIP3    H126647   0.555   2.395  16.577 -1.3362 -0.5441  0.7205
 1744TIP3    H226648   0.659   2.422  16.684  0.5278 -0.0786 -1.1259
 1745TIP3   OH226649   6.153   2.071  11.807 -0.6159 -0.1639  0.4314
 1745TIP3    H126650   6.160   2.131  11.881 -3.1232 -1.4082  1.7846
 1745TIP3    H226651   6.201   2.115  11.736 -0.7469  2.5175  1.8775
 1746TIP3   OH226652   4.931   4.871  11.231 -0.3191  0.0899 -0.2332
 1746TIP3    H126653   5.008   4.917  11.197 -0.0253 -1.4660 -1.8083
 1746TIP3    H226654   4.912   4.804  11.166 -2.1430 -0.5140  0.8437
 1747TIP3   OH226655   5.601   2.366   0.630 -0.3793  0.2406 -0.0393
 1747TIP3    H126656   5.508   2.346   0.640 -0.0870 -0.1370  2.4705
 1747TIP3    H226657   5.635   2.294   0.576 -1.5034  0.3470 -0.9291
 1748TIP3   OH226658   0.037   5.949  11.022 -0.0940  0.0362  0.0619
 1748TIP3    H126659  -0.002   6.032  10.996  0.1892 -0.5393 -2.4679
 1748TIP3    H226660  -0.024   5.913  11.086 -0.2073  2.1607  1.2598
 1749TIP3   OH226661   3.403   1.293  11.171 -0.4901 -0.6496 -0.4474
 1749TIP3    H126662   3.415   1.349  11.248  1.8845 -0.5843 -0.8084
 1749TIP3    H226663   3.463   1.328  11.106 -0.2815 -2.5161 -1.3163
 1750TIP3   OH226664   2.061   4.849   4.295  0.0536 -0.0336 -0.1182
 1750TIP3    H126665   2.057   4.840   4.200 -0.7529 -0.5914 -0.0438
 1750TIP3    H226666   1.974   4.879   4.320  0.9521  2.5160  0.2420
 1751TIP3   OH226667   6.755   3.214   0.866 -0.6282 -0.0938  0.2637
 1751TIP3    H126668   6.689   3.282   0.859 -1.3937 -0.8000  0.4515
 1751TIP3    H226669   6.811   3.242   0.939 -2.0663 -0.5828  1.6120
 1752TIP3   OH226670   6.146   6.092   3.923  0.3112  0.5475 -0.3957
 1752TIP3    H126671   6.096   6.098   4.005  0.0155 -2.3878 -0.2440
 1752TIP3    H226672   6.205   6.017   3.937  0.8592  0.5222 -2.5595
 1753TIP3   OH226673   0.325   0.276  14.375  0.5963 -0.4178  0.0358
 1753TIP3    H126674   0.383   0.340  14.334 -1.0289  1.1535  0.0338
 1753TIP3    H226675   0.254   0.263  14.312 -1.2127  0.9774  1.6235
 1754TIP3   OH226676   3.960   0.384  11.332  0.2401 -0.0741  0.6684
 1754TIP3    H126677   3.948   0.382  11.427 -1.1720 -2.1693  0.5081
 1754TIP3    H226678   3.960   0.292  11.306 -1.0785  0.4820 -1.5362
 1755TIP3   OH226679   4.253   4.458   6.587  0.4882  0.4233 -0.4230
 1755TIP3    H126680   4.203   4.540   6.584 -0.6615 -0.2572 -0.0970
 1755TIP3    H226681   4.301   4.463   6.670  0.3150  0.7013 -0.3370
 1756TIP3   OH226682   2.883   5.552  16.224  0.3245  0.4665 -0.2282
 1756TIP3    H126683   2.825   5.507  16.285  1.5670 -0.0634  0.6119
 1756TIP3    H226684   2.910   5.484  16.162  0.3806  0.6030 -0.3552
 1757TIP3   OH226685   0.008   3.840  16.891 -0.0303  0.9941  0.2062
 1757TIP3    H126686   0.013   3.862  16.798 -0.6069 -0.8244 -0.2940
 1757TIP3    H226687  -0.084   3.849  16.913 -0.1974 -0.3206  0.1168
 1758TIP3   OH226688   2.503   4.330   1.878  0.6746 -0.5261 -0.2953
 1758TIP3    H126689   2.486   4.360   1.789 -1.1087 -0.8642 -0.1156
 1758TIP3    H226690   2.495   4.409   1.931 -0.4413 -0.6683 -0.2213
 1759TIP3   OH226691   2.689   5.666   3.283 -0.7646  0.1010 -0.3928
 1759TIP3    H126692   2.764   5.710   3.323 -0.8593  1.9037 -2.1013
 1759TIP3    H226693   2.614   5.695   3.335 -0.6504  0.8220 -0.6243
 1760TIP3   OH226694   5.080   6.000  15.319  0.4189 -0.1527 -0.1289
 1760TIP3    H126695   5.080   5.952  15.401  1.8555 -1.2465 -0.7371
 1760TIP3    H226696   4.993   5.985  15.282 -0.1368  0.1143  1.0277
 1761TIP3   OH226697   3.140   2.599   0.547 -0.2350  0.3881 -0.5018
 1761TIP3    H126698   3.177   2.511   0.563 -0.0574  0.7010  0.9287
 1761TIP3    H226699   3.147   2.610   0.452 -1.3173 -1.6043 -0.8788
 1762TIP3   OH226700   2.198   0.047   2.785 -0.8374  0.0196 -0.3453
 1762TIP3    H126701   2.244   0.011   2.709 -1.4403 -0.2115 -0.5996
 1762TIP3    H226702   2.209  -0.019   2.853  0.2259  0.4911 -0.0241
 1763TIP3   OH226703   1.806   5.676  15.240 -0.1771  0.3080 -0.2820
 1763TIP3    H126704   1.884   5.645  15.285  0.2322  1.3450 -0.2531
 1763TIP3    H226705   1.738   5.612  15.262 -0.2718  1.3112  2.6810
 1764TIP3   OH226706   4.149   2.246  12.560 -0.7047 -0.0598 -0.1588
 1764TIP3    H126707   4.150   2.217  12.469  0.4093 -3.2867  0.7402
 1764TIP3    H226708   4.128   2.167  12.610  2.0848  0.7359  2.5782
 1765TIP3   OH226709   1.604   1.655   6.038 -0.4698  0.1171  0.1136
 1765TIP3    H126710   1.580   1.696   6.121 -0.3749  0.5135 -0.0548
 1765TIP3    H226711   1.601   1.726   5.974 -1.8832 -0.4455 -0.4842
 1766TIP3   OH226712   5.628   5.912   1.593  0.1636 -0.0733  0.3260
 1766TIP3    H126713   5.623   5.994   1.641  0.4604 -0.3739  0.8700
 1766TIP3    H226714   5.696   5.927   1.527  1.3138 -0.3829  1.4098
 1767TIP3   OH226715   3.716   4.745  15.238  0.4130  0.2177  0.1749
 1767TIP3    H126716   3.668   4.668  15.207  2.6441 -1.4771  0.6791
 1767TIP3    H226717   3.668   4.819  15.202 -0.6767 -1.4562 -2.0369
 1768TIP3   OH226718   4.287   2.495  14.008 -0.3127 -0.1152 -0.0294
 1768TIP3    H126719   4.321   2.498  14.098 -3.4022  0.5820  1.2245
 1768TIP3    H226720   4.296   2.403  13.982  4.8245  0.3113 -0.9618
 1769TIP3   OH226721   5.929   5.354   4.156  0.2944 -0.0522  0.2078
 1769TIP3    H126722   5.988   5.374   4.084  0.0490  0.1514  0.0634
 1769TIP3    H226723   5.885   5.437   4.175 -2.1037 -0.7861 -1.6184
 1770TIP3   OH226724   2.300   1.948   2.827 -0.7541  0.2008  0.0266
 1770TIP3    H126725   2.307   1.868   2.878 -0.6742  0.0348 -0.2445
 1770TIP3    H226726   2.217   1.939   2.780 -0.4227 -0.0255 -0.5194
 1771TIP3   OH226727   2.803   2.498  14.082  0.4315 -0.3181 -0.2674
 1771TIP3    H126728   2.842   2.428  14.135  0.2972  0.4377  0.8671
 1771TIP3    H226729   2.715   2.509  14.119  0.9143  1.3338  0.4635
 1772TIP3   OH226730   4.522   0.216  11.383  0.3922 -0.0933 -0.4935
 1772TIP3    H126731   4.449   0.263  11.342 -1.1371 -1.7088  0.2723
 1772TIP3    H226732   4.495   0.204  11.474  1.9841 -0.0590  0.0223
 1773TIP3   OH226733   3.739   5.591   1.154 -0.5189  0.1020 -0.1547
 1773TIP3    H126734   3.784   5.643   1.088 -2.8489  0.6020 -1.4541
 1773TIP3    H226735   3.658   5.563   1.112 -1.9716  0.1930  2.3743
 1774TIP3   OH226736   3.791   5.868   3.072 -0.0057 -0.2038 -0.7869
 1774TIP3    H126737   3.781   5.949   3.022 -1.6429 -1.9818 -3.6339
 1774TIP3    H226738   3.701   5.835   3.081  0.2471 -0.2844  3.0796
 1775TIP3   OH226739   5.289   6.104  13.015  0.3523  0.2484 -0.4384
 1775TIP3    H126740   5.362   6.094  12.953 -0.1408  1.4295 -1.2392
 1775TIP3    H226741   5.259   6.015  13.031  1.1331 -0.1508 -1.1248
 1776TIP3   OH226742   3.813   4.105  12.906  0.0073  0.2648 -0.3888
 1776TIP3    H126743   3.848   4.111  12.817  2.2414  1.4622  0.5009
 1776TIP3    H226744   3.785   4.014  12.914  0.3293 -0.0310 -2.1017
 1777TIP3   OH226745   5.469   1.437  11.613  0.1913  0.2117  0.2920
 1777TIP3    H126746   5.403   1.396  11.669 -1.6133 -1.1919 -2.5977
 1777TIP3    H226747   5.419   1.499  11.559  1.7325  1.1508 -0.1044
 1778TIP3   OH226748   4.975   1.280  14.721 -0.0543 -0.9075  0.0734
 1778TIP3    H126749   4.953   1.361  14.675  1.2499  0.0491  1.0486
 1778TIP3    H226750   5.048   1.243  14.670 -1.3980 -2.1268 -1.0437
 1779TIP3   OH226751   3.683   4.223  15.235 -0.5968  0.2569  0.6257
 1779TIP3    H126752   3.760   4.237  15.290 -0.3051 -1.8810  0.8408
 1779TIP3    H226753   3.652   4.136  15.259 -1.9067  0.2646 -0.8892
 1780TIP3   OH226754   0.655   1.320  16.786 -0.6549  0.4118 -0.5810
 1780TIP3    H126755   0.614   1.407  16.785 -1.1592  0.1815 -1.7272
 1780TIP3    H226756   0.674   1.303  16.878 -1.3661  1.3611 -0.2466
 1781TIP3   OH226757   0.427   6.768   2.566 -0.3684  0.0708 -0.4930
 1781TIP3    H126758   0.478   6.687   2.561 -1.1928 -0.8662  3.2606
 1781TIP3    H226759   0.354   6.747   2.624 -0.5274  3.5137  0.7708
 1782TIP3   OH226760   1.209   6.607  15.805  0.1752 -0.1868 -0.0308
 1782TIP3    H126761   1.147   6.650  15.746  1.9333 -0.9999 -2.6374
 1782TIP3    H226762   1.163   6.528  15.834  0.0491 -0.9712 -2.2178
 1783TIP3   OH226763   2.488   3.823   5.114 -0.5011  0.7688  0.0194
 1783TIP3    H126764   2.410   3.862   5.074 -0.3961 -1.3473 -2.5725
 1783TIP3    H226765   2.456   3.779   5.192 -1.6896  0.9942 -0.3179
 1784TIP3   OH226766   4.914   6.437  16.222 -0.4590  0.5782  0.2871
 1784TIP3    H126767   4.953   6.524  16.220  2.4002 -0.5465 -2.3064
 1784TIP3    H226768   4.853   6.437  16.149  0.1946  0.2098 -0.2748
 1785TIP3   OH226769   4.657   2.074   5.926  0.2594  0.0779  0.0479
 1785TIP3    H126770   4.712   2.003   5.960 -2.1388 -1.0631  1.8449
 1785TIP3    H226771   4.682   2.151   5.977  1.2299 -0.0221 -0.2560
 1786TIP3   OH226772   3.445   6.516  13.836 -0.8280  0.8486  0.0116
 1786TIP3    H126773   3.398   6.536  13.916  0.0040 -0.1886  0.7864
 1786TIP3    H226774   3.402   6.438  13.801  0.4918 -0.3264  0.9202
 1787TIP3   OH226775   0.966   4.557   1.698  0.3464 -0.2718 -0.3677
 1787TIP3    H126776   0.973   4.638   1.648 -0.2048 -0.0373 -0.0739
 1787TIP3    H226777   1.056   4.530   1.713  0.5354 -0.4150 -1.5978
 1788TIP3   OH226778   2.860   0.106   2.313 -0.4045  0.7545 -0.8489
 1788TIP3    H126779   2.923   0.094   2.384  0.2147  1.0559 -1.3382
 1788TIP3    H226780   2.820   0.191   2.330  0.1073  1.0585 -1.1259
 1789TIP3   OH226781   2.297   4.301   5.732  0.4074 -0.4449 -0.0239
 1789TIP3    H126782   2.361   4.325   5.799  0.8083 -1.6151  0.0255
 1789TIP3    H226783   2.218   4.278   5.781 -0.1925  1.2593 -0.0942
 1790TIP3   OH226784   2.453   0.620   1.849 -0.0427  0.0256 -0.1282
 1790TIP3    H126785   2.395   0.620   1.773 -0.0244 -2.1730 -0.2042
 1790TIP3    H226786   2.516   0.690   1.831 -2.1025  1.8777 -0.4343
 1791TIP3   OH226787   3.090   3.633   4.076  0.1027 -0.6870  0.1707
 1791TIP3    H126788   3.110   3.726   4.074 -0.2998 -0.5860  0.9025
 1791TIP3    H226789   3.050   3.618   4.161  0.1166 -1.5198  0.0386
 1792TIP3   OH226790   2.415   6.597   1.262  0.0327 -0.4117  0.2476
 1792TIP3    H126791   2.365   6.528   1.306 -1.1460 -0.0684 -0.5109
 1792TIP3    H226792   2.350   6.646   1.213  1.0745  0.3078 -0.4548
 1793TIP3   OH226793   0.546   6.728   6.218 -0.7104  0.4963  0.1738
 1793TIP3    H126794   0.548   6.657   6.282 -0.0562  0.5954  0.2677
 1793TIP3    H226795   0.464   6.714   6.169 -1.2359  0.4392  1.0438
 1794TIP3   OH226796   1.175   3.068   4.529 -0.1992 -0.7386  0.0700
 1794TIP3    H126797   1.085   3.071   4.499 -0.1210  1.1011 -0.0614
 1794TIP3    H226798   1.191   2.975   4.549 -2.0195 -1.1180 -0.1299
 1795TIP3   OH226799   5.239   3.753  15.093 -0.1903  0.4667  0.3206
 1795TIP3    H126800   5.196   3.724  15.174 -0.6777  0.1661 -0.0383
 1795TIP3    H226801   5.305   3.815  15.122 -1.5669  1.7820  0.8206
 1796TIP3   OH226802   6.120   4.566  12.236 -0.4998  0.0570 -0.1913
 1796TIP3    H126803   6.195   4.512  12.211 -1.5681 -0.3582 -2.8838
 1796TIP3    H226804   6.146   4.656  12.214 -0.0895  0.1748  0.7504
 1797TIP3   OH226805   5.129   3.656  15.327  0.4980 -0.0003  0.0003
 1797TIP3    H126806   5.038   3.631  15.307  0.0591  0.9830  0.6460
 1797TIP3    H226807   5.151   3.604  15.404  0.2986  0.1158  0.1383
 1798TIP3   OH226808   6.398   2.734  14.452 -0.8371  0.6278 -0.1359
 1798TIP3    H126809   6.453   2.724  14.530 -0.8035  2.4989  0.1320
 1798TIP3    H226810   6.339   2.659  14.455  0.2137 -0.2060  0.8063
 1799TIP3   OH226811   3.351   2.764  11.407 -0.0716  0.0173 -0.4109
 1799TIP3    H126812   3.293   2.767  11.331 -2.2792  3.7255  1.1445
 1799TIP3    H226813   3.297   2.725  11.476  0.6289 -0.0085  0.1299
 1800TIP3   OH226814   3.858   4.763   3.769 -0.0394  0.1976  0.0247
 1800TIP3    H126815   3.913   4.821   3.715  0.1771 -1.2263 -1.3601
 1800TIP3    H226816   3.807   4.823   3.824  1.7537  1.6163  0.2449
 1801TIP3   OH226817   1.671   1.310   5.214 -0.8681 -0.2878  0.3257
 1801TIP3    H126818   1.627   1.296   5.298 -1.9732  0.2997 -0.1263
 1801TIP3    H226819   1.637   1.240   5.158 -1.2329  0.1657 -0.0243
 1802TIP3   OH226820   5.169   5.127  16.168  0.1493 -0.0536  0.2500
 1802TIP3    H126821   5.128   5.095  16.088  0.6357 -1.4047  0.5041
 1802TIP3    H226822   5.125   5.080  16.239  0.4000  0.3798  0.7038
 1803TIP3   OH226823   0.722   0.771   3.817 -0.4863  0.3868 -0.4318
 1803TIP3    H126824   0.705   0.856   3.777 -1.8789  1.1310  1.5996
 1803TIP3    H226825   0.649   0.716   3.788 -0.2833  0.2499 -0.6931
 1804TIP3   OH226826   3.242   4.789   0.871 -0.3916 -0.4200 -0.4178
 1804TIP3    H126827   3.148   4.771   0.880 -0.4976  0.4052  0.2275
 1804TIP3    H226828   3.277   4.777   0.959 -0.3647  1.7707 -0.0573
 1805TIP3   OH226829   1.005   0.786  13.864  0.0253  0.4157  0.1218
 1805TIP3    H126830   1.033   0.697  13.840  2.3425  0.6474  1.6420
 1805TIP3    H226831   0.974   0.823  13.781  0.4065 -1.3035 -0.8628
 1806TIP3   OH226832   2.819   2.882  13.896 -0.1176  0.3147  0.4210
 1806TIP3    H126833   2.836   2.789  13.886  2.4883  0.6809  0.6646
 1806TIP3    H226834   2.799   2.893  13.989  0.9011  0.1422  0.6713
 1807TIP3   OH226835   0.210   4.787   2.386 -0.1749  0.2195 -0.3835
 1807TIP3    H126836   0.302   4.796   2.413  0.2870 -2.1249 -0.9846
 1807TIP3    H226837   0.160   4.794   2.467  0.7344 -0.8134  0.2889
 1808TIP3   OH226838   4.214   5.073   4.254 -0.3821  0.2137 -0.1130
 1808TIP3    H126839   4.259   5.023   4.322 -1.2502  1.3712  1.3701
 1808TIP3    H226840   4.263   5.055   4.174  1.9606  0.4867  1.1957
 1809TIP3   OH226841   2.298   1.180   0.986 -0.4172 -0.4667 -0.4884
 1809TIP3    H126842   2.298   1.091   0.950  0.0874 -1.2148  1.2836
 1809TIP3    H226843   2.385   1.193   1.021 -0.8023  0.3443  0.2133
 1810TIP3   OH226844   3.317   3.293  16.514  0.2405  0.2724 -0.2796
 1810TIP3    H126845   3.336   3.387  16.508 -0.0169  0.3631  0.2408
 1810TIP3    H226846   3.396   3.255  16.551 -0.2024  0.5079  0.9491
 1811TIP3   OH226847   4.512   6.786   3.103 -0.0026  0.2511 -0.5476
 1811TIP3    H126848   4.448   6.725   3.139 -1.3024  1.4751 -0.6766
 1811TIP3    H226849   4.480   6.805   3.015  1.7166 -0.7058 -1.4393
 1812TIP3   OH226850   6.231   6.760  15.638 -0.3901 -0.5332  0.2908
 1812TIP3    H126851   6.150   6.743  15.590 -0.6424  0.9870  0.1068
 1812TIP3    H226852   6.202   6.805  15.717  0.1466 -1.6412  1.1293
 1813TIP3   OH226853   0.122   1.312   4.846  0.1772  0.3184  0.0289
 1813TIP3    H126854   0.105   1.268   4.762 -1.7211  1.3850 -0.2097
 1813TIP3    H226855   0.188   1.378   4.826 -1.5859  1.8294 -1.1365
 1814TIP3   OH226856   5.808   1.466  12.813  0.4926 -0.1393 -0.5512
 1814TIP3    H126857   5.885   1.434  12.859 -1.5279  1.0317  4.2520
 1814TIP3    H226858   5.839   1.543  12.765  2.3091  0.7308  1.8025
 1815TIP3   OH226859   2.677   0.341  14.805 -0.4912 -0.5299 -0.5554
 1815TIP3    H126860   2.596   0.296  14.830  0.9388 -1.6110  2.6473
 1815TIP3    H226861   2.666   0.430  14.836 -0.6380 -0.5313 -0.6022
 1816TIP3   OH226862   0.803   4.575  15.670 -0.1702  0.6943 -0.1236
 1816TIP3    H126863   0.732   4.535  15.620 -1.3370 -0.3863  2.2170
 1816TIP3    H226864   0.766   4.587  15.758  1.8958  2.0701  0.6244
 1817TIP3   OH226865   3.187   2.509   2.826 -0.4423  0.1365  0.3657
 1817TIP3    H126866   3.185   2.559   2.744 -0.8947 -0.5245 -0.0431
 1817TIP3    H226867   3.173   2.573   2.895  1.2220  0.9115  0.0282
 1818TIP3   OH226868   4.491   5.360  11.790  0.1573 -0.5044 -0.1616
 1818TIP3    H126869   4.469   5.354  11.697  0.5480  0.2825 -0.3143
 1818TIP3    H226870   4.531   5.275  11.811  0.7881 -0.4035 -0.9137
 1819TIP3   OH226871   2.555   0.260  11.193 -0.3846  0.4430 -0.0797
 1819TIP3    H126872   2.634   0.205  11.187 -1.8349 -1.8949  0.7759
 1819TIP3    H226873   2.530   0.276  11.102  0.3222  0.0433 -0.3526
 1820TIP3   OH226874   5.445   2.757  16.053  1.1459  0.2279  0.4648
 1820TIP3    H126875   5.505   2.754  16.127 -0.4972 -0.8802  1.8551
 1820TIP3    H226876   5.500   2.738  15.976  2.5738 -0.7249  1.6612
 1821TIP3   OH226877   2.960   4.529   3.927 -0.6480  0.3838  0.1548
 1821TIP3    H126878   2.951   4.578   3.845  0.0249  0.3398  0.0493
 1821TIP3    H226879   3.054   4.533   3.947 -0.2848 -2.2809 -0.7419
 1822TIP3   OH226880   1.577   1.102   0.094 -0.6148  0.3820 -0.9389
 1822TIP3    H126881   1.614   1.089   0.007 -0.3067  0.7120 -0.8574
 1822TIP3    H226882   1.581   1.196   0.108  0.9390  0.1755  0.1388
 1823TIP3   OH226883   4.383   3.939   0.809  0.3794  0.2435 -0.0589
 1823TIP3    H126884   4.382   3.985   0.893 -1.6076  0.3737 -0.1021
 1823TIP3    H226885   4.467   3.961   0.771  1.0106  0.8068  1.5607
 1824TIP3   OH226886   0.431   0.284  12.083 -0.6411  0.4182 -0.0115
 1824TIP3    H126887   0.443   0.378  12.071  1.3243  0.4082  1.3747
 1824TIP3    H226888   0.375   0.257  12.010  0.6860  2.2410 -1.8032
 1825TIP3   OH226889   3.719   3.207   4.475  0.3314 -0.1451 -0.0692
 1825TIP3    H126890   3.803   3.207   4.430  2.1918  1.0241  3.0724
 1825TIP3    H226891   3.711   3.294   4.513 -2.9718  0.2001 -1.2232
 1826TIP3   OH226892   3.706   6.225   2.093 -0.1556  0.3528 -0.2180
 1826TIP3    H126893   3.641   6.280   2.050 -0.5332 -0.4197 -0.6616
 1826TIP3    H226894   3.760   6.286   2.143 -0.9435  1.0536 -0.1983
 1827TIP3   OH226895   0.254   4.314  11.723  0.1981 -0.2810 -0.5159
 1827TIP3    H126896   0.246   4.359  11.807  1.4519 -0.1406 -0.4625
 1827TIP3    H226897   0.261   4.222  11.745  2.1891 -0.1221 -0.3370
 1828TIP3   OH226898   6.372   6.230  15.492 -0.0877 -0.0598 -0.1490
 1828TIP3    H126899   6.400   6.267  15.575 -0.6181 -0.4015  0.1857
 1828TIP3    H226900   6.292   6.277  15.469 -1.2254 -1.5204  0.6893
 1829TIP3   OH226901   3.247   3.624   3.292  0.6362 -0.7041  0.2140
 1829TIP3    H126902   3.296   3.557   3.340 -0.0240 -1.4830 -0.1943
 1829TIP3    H226903   3.206   3.577   3.220  1.2074  0.3682 -0.8409
 1830TIP3   OH226904   4.297   1.198   1.059  0.2274 -0.6637  0.8108
 1830TIP3    H126905   4.209   1.180   1.027 -0.0016  0.8853  0.4944
 1830TIP3    H226906   4.348   1.219   0.980  0.3079  0.6240  1.1804
 1831TIP3   OH226907   2.055   0.974   3.806 -0.5407 -0.1895 -0.1945
 1831TIP3    H126908   2.090   1.045   3.753  0.8336 -0.5882  0.1283
 1831TIP3    H226909   2.115   0.901   3.791 -1.0074 -0.7772  0.7106
 1832TIP3   OH226910   2.677   0.281   1.710 -0.0569 -0.1583 -0.3199
 1832TIP3    H126911   2.750   0.253   1.656 -0.1816 -1.0183 -0.0665
 1832TIP3    H226912   2.599   0.250   1.664 -0.2936  0.9862 -0.7264
 1833TIP3   OH226913   4.124   1.589   4.886  0.5098 -0.1621  0.3629
 1833TIP3    H126914   4.085   1.506   4.860 -0.3120  0.1938  0.4261
 1833TIP3    H226915   4.140   1.636   4.804 -1.8671  0.8650  0.4204
 1834TIP3   OH226916   4.190   4.176   6.130  0.1139 -0.1996 -0.6527
 1834TIP3    H126917   4.217   4.268   6.138  1.0520 -0.3927 -1.3610
 1834TIP3    H226918   4.215   4.152   6.040 -0.8975 -0.9062 -0.7569
 1835TIP3   OH226919   3.537   4.235  11.278  0.3759  0.2418  0.4318
 1835TIP3    H126920   3.547   4.317  11.230  1.0691  0.2858  0.6428
 1835TIP3    H226921   3.452   4.242  11.321 -0.0712  0.3749 -0.4572
 1836TIP3   OH226922   6.249   2.360  12.714 -0.7075 -0.6022 -0.2717
 1836TIP3    H126923   6.191   2.435  12.719  1.9247  1.5110  1.0071
 1836TIP3    H226924   6.213   2.306  12.643 -2.3091  2.2288 -1.7654
 1837TIP3   OH226925   6.654   0.725  15.268 -0.0860  0.1519  0.6599
 1837TIP3    H126926   6.677   0.818  15.273 -1.4468  0.4565  2.1264
 1837TIP3    H226927   6.644   0.707  15.175 -0.2174  1.5821  0.3858
 1838TIP3   OH226928   3.138   2.132  15.525 -0.4841 -0.0076 -0.0255
 1838TIP3    H126929   3.211   2.177  15.482  0.7494 -0.3869  1.5948
 1838TIP3    H226930   3.178   2.059  15.572 -1.9561 -0.4707  0.5726
 1839TIP3   OH226931   1.707   4.077  15.772 -0.6370 -0.3541  0.3907
 1839TIP3    H126932   1.620   4.083  15.812 -1.6679  0.8878 -1.8807
 1839TIP3    H226933   1.691   4.064  15.679  1.6648 -2.6618  0.1939
 1840TIP3   OH226934   0.565   4.680   4.517 -0.2909  0.1815  0.0740
 1840TIP3    H126935   0.591   4.739   4.588 -1.5602 -1.0166  1.6394
 1840TIP3    H226936   0.647   4.644   4.483  0.3294 -0.2197  1.8794
 1841TIP3   OH226937   2.108   0.466   1.938 -0.6001 -0.1270  0.3358
 1841TIP3    H126938   2.019   0.498   1.919 -0.9341 -1.0728  0.2532
 1841TIP3    H226939   2.149   0.458   1.851 -1.4839 -2.6035  0.0536
 1842TIP3   OH226940   3.530   0.055  16.845 -0.0213 -0.0364 -0.3092
 1842TIP3    H126941   3.556   0.113  16.773 -0.0019  0.0656 -0.2203
 1842TIP3    H226942   3.562   0.099  16.924 -0.3979  0.0505 -0.2039
 1843TIP3   OH226943   4.458   3.895   6.308  0.2927  0.0934  0.1936
 1843TIP3    H126944   4.438   3.806   6.337  1.5438  0.0948  1.1053
 1843TIP3    H226945   4.508   3.883   6.227  1.6526 -0.0855  1.0467
 1844TIP3   OH226946   4.126   1.852   5.465  0.4040 -0.6602  0.0086
 1844TIP3    H126947   4.204   1.832   5.515  0.4177 -1.8988 -0.4691
 1844TIP3    H226948   4.120   1.948   5.465  1.7452 -0.5687  0.3001
 1845TIP3   OH226949   4.907   0.668   3.880 -0.2517 -0.0137 -0.0343
 1845TIP3    H126950   4.840   0.728   3.847 -0.3658 -1.1275 -2.0005
 1845TIP3    H226951   4.890   0.586   3.833  0.0557 -1.5348  2.3526
 1846TIP3   OH226952   1.888   3.924  14.895 -0.5546  0.5986  0.7106
 1846TIP3    H126953   1.796   3.920  14.921 -1.0043  0.2083 -0.8217
 1846TIP3    H226954   1.886   3.942  14.801  0.8336 -2.2919  0.0166
 1847TIP3   OH226955   4.552   6.026  16.810  0.3102 -0.1484 -0.3255
 1847TIP3    H126956   4.578   5.942  16.845 -1.1551 -0.1840  0.7832
 1847TIP3    H226957   4.467   6.044  16.850 -0.0670  1.2074 -1.6097
 1848TIP3   OH226958   5.705   5.511   5.401  0.6096  0.2959  0.0153
 1848TIP3    H126959   5.713   5.560   5.319 -1.2101 -0.1087 -0.4344
 1848TIP3    H226960   5.613   5.520   5.426  0.9113 -0.4206  1.4983
 1849TIP3   OH226961   0.094   6.267  17.025 -0.8661  0.2816  0.1512
 1849TIP3    H126962   0.089   6.267  16.930  1.9913 -0.9410 -0.0928
 1849TIP3    H226963   0.141   6.348  17.046 -0.3820 -0.0554  0.3932
 1850TIP3   OH226964   4.227   3.051  14.206 -0.5837  0.4433 -0.2224
 1850TIP3    H126965   4.270   3.057  14.291 -1.0367  1.2093 -0.0299
 1850TIP3    H226966   4.228   3.141  14.172  0.0699  0.0602 -1.2808
 1851TIP3   OH226967   0.115   0.143  14.664  0.1394 -0.3788  0.1947
 1851TIP3    H126968   0.210   0.140  14.654  0.3934  1.9220  1.2205
 1851TIP3    H226969   0.082   0.140  14.574  1.1660 -1.2286 -0.1757
 1852TIP3   OH226970   2.692   0.247   4.229 -0.0569 -0.5339 -0.4281
 1852TIP3    H126971   2.652   0.318   4.178 -0.8313 -1.9728 -1.9097
 1852TIP3    H226972   2.622   0.183   4.242  0.5554 -0.9536  1.1057
 1853TIP3   OH226973   4.640   3.107   5.294 -0.2501  0.0570  0.1912
 1853TIP3    H126974   4.566   3.117   5.234 -0.1898  0.8122  0.2311
 1853TIP3    H226975   4.677   3.022   5.272 -1.4556 -0.5888  0.5340
 1854TIP3   OH226976   5.110   3.476  11.972  0.4215  0.0266 -0.1651
 1854TIP3    H126977   5.102   3.405  12.036  1.1069  1.3433  1.4580
 1854TIP3    H226978   5.145   3.434  11.894  2.4629 -1.2002  1.2969
 1855TIP3   OH226979   3.296   2.801   0.140 -0.0484  0.5071  0.6999
 1855TIP3    H126980   3.318   2.880   0.091  0.8430  0.7214  1.4185
 1855TIP3    H226981   3.290   2.830   0.231 -1.3798  0.0617  0.7745
 1856TIP3   OH226982   2.362   3.572   5.742  0.3445  0.7935  0.2647
 1856TIP3    H126983   2.408   3.656   5.740 -0.5432  1.2996  0.7074
 1856TIP3    H226984   2.296   3.579   5.673  0.4189  0.3615  0.1435
 1857TIP3   OH226985   4.549   5.053   2.958 -0.0767 -0.6366 -0.2738
 1857TIP3    H126986   4.541   5.100   2.875 -2.0814 -0.2628  0.0604
 1857TIP3    H226987   4.643   5.044   2.973  0.3345  1.2827 -1.4593
 1858TIP3   OH226988   1.248   2.063   4.818  0.0649 -0.8561 -0.5028
 1858TIP3    H126989   1.234   2.011   4.897  0.7487 -1.1830 -0.5952
 1858TIP3    H226990   1.227   2.153   4.844 -0.0255 -1.0099 -0.0433
 1859TIP3   OH226991   0.460   2.833  16.347  0.0200  0.5288  0.6873
 1859TIP3    H126992   0.494   2.918  16.374 -1.0099  1.5668 -1.0215
 1859TIP3    H226993   0.529   2.796  16.292 -0.5055  1.4822 -0.6860
 1860TIP3   OH226994   4.859   4.998   1.355  0.0870  0.0273 -0.0159
 1860TIP3    H126995   4.798   5.047   1.410  0.3112  0.7031 -0.3570
 1860TIP3    H226996   4.920   5.064   1.322  0.4342 -0.4932 -0.4355
 1861TIP3   OH226997   3.753   1.061  16.537  0.1545  0.3607 -0.1596
 1861TIP3    H126998   3.794   1.148  16.546 -0.5191  0.6695  0.0115
 1861TIP3    H226999   3.760   1.023  16.625 -1.0991  0.9622  0.2330
 1862TIP3   OH227000   2.044   4.222   5.817  0.7112  0.5276  0.5371
 1862TIP3    H127001   1.981   4.292   5.834  0.0010 -0.1131  0.5812
 1862TIP3    H227002   1.993   4.152   5.777  1.0833 -0.6342  2.0067
 1863TIP3   OH227003   0.798   3.262  13.379 -0.4203  0.4993 -0.0217
 1863TIP3    H127004   0.859   3.188  13.375 -0.4163  0.5242 -0.5534
 1863TIP3    H227005   0.720   3.231  13.332 -0.7760  0.5100  0.5514
 1864TIP3   OH227006   2.848   0.327   2.700  0.8647  0.1708  0.1019
 1864TIP3    H127007   2.926   0.371   2.735  0.3312  0.9284  0.3712
 1864TIP3    H227008   2.789   0.399   2.677 -1.3747 -0.3123  3.5246
 1865TIP3   OH227009   1.719   0.306   1.963 -0.3525 -0.5788 -0.8709
 1865TIP3    H127010   1.721   0.313   1.868  2.0295  2.3911 -0.7429
 1865TIP3    H227011   1.640   0.353   1.989 -0.3638 -0.3311 -1.3447
 1866TIP3   OH227012   4.789   2.754   1.287 -0.5123 -0.1502 -0.2141
 1866TIP3    H127013   4.706   2.714   1.315 -0.1640 -1.1751 -0.6130
 1866TIP3    H227014   4.767   2.803   1.208 -1.0953  1.1172  0.6939
 1867TIP3   OH227015   5.740   1.717  13.469 -0.5990 -0.1508  0.1611
 1867TIP3    H127016   5.686   1.756  13.537  2.4548 -0.2802  2.9293
 1867TIP3    H227017   5.730   1.623  13.481 -1.6337 -0.2239 -1.0416
 1868TIP3   OH227018   2.636   5.861  14.567  0.1822 -0.0766  0.5576
 1868TIP3    H127019   2.567   5.886  14.628 -0.1133  0.1307  0.1518
 1868TIP3    H227020   2.604   5.781  14.526 -0.0446  0.2764  0.0262
 1869TIP3   OH227021   1.758   0.959  13.953  0.3015 -0.3910  0.5822
 1869TIP3    H127022   1.763   0.996  13.865 -1.2657 -2.0347 -0.2779
 1869TIP3    H227023   1.848   0.938  13.976  1.0124  2.1814  0.3786
 1870TIP3   OH227024   0.306   2.420  13.186  0.4930 -0.0662 -0.5610
 1870TIP3    H127025   0.251   2.497  13.169 -1.8884 -1.0911  1.7668
 1870TIP3    H227026   0.390   2.457  13.212 -0.4101  1.7732 -0.0411
 1871TIP3   OH227027   2.178   1.354   1.294  0.1786 -0.1254 -0.1688
 1871TIP3    H127028   2.132   1.338   1.212 -0.9686  0.4846  0.3418
 1871TIP3    H227029   2.122   1.316   1.362  1.4580 -1.2627  0.2952
 1872TIP3   OH227030   2.566   5.225  11.138  0.0334  0.0267 -0.3788
 1872TIP3    H127031   2.566   5.235  11.043 -0.3120  2.1800 -0.2185
 1872TIP3    H227032   2.567   5.131  11.153 -2.2065 -0.4432 -2.5346
 1873TIP3   OH227033   4.879   2.487  11.181 -0.8831  0.1303  0.1457
 1873TIP3    H127034   4.816   2.425  11.145  0.2458 -1.2471  0.4415
 1873TIP3    H227035   4.909   2.537  11.105  0.3337 -1.6967 -0.6494
 1874TIP3   OH227036   0.631   6.136  12.687  0.2333  0.5000  0.5313
 1874TIP3    H127037   0.697   6.176  12.630  1.0740  0.2022  1.2669
 1874TIP3    H227038   0.677   6.121  12.769 -0.4827 -0.6035  0.7506
 1875TIP3   OH227039   5.574   3.434   4.253  0.0962 -0.1733 -0.4602
 1875TIP3    H127040   5.483   3.465   4.248 -0.1020 -0.6728 -0.0127
 1875TIP3    H227041   5.577   3.382   4.333  0.6225 -0.6838 -0.8110
 1876TIP3   OH227042   6.779   5.530  11.483  0.1080 -0.0686  0.7859
 1876TIP3    H127043   6.734   5.517  11.399  1.4256  0.0835  0.0291
 1876TIP3    H227044   6.726   5.481  11.546  0.5095 -2.4440 -0.5917
 1877TIP3   OH227045   4.717   1.227   0.026 -0.3306 -0.0827  0.0960
 1877TIP3    H127046   4.750   1.256  -0.059 -0.9673  0.9048  0.1753
 1877TIP3    H227047   4.691   1.136   0.011 -0.8969  0.2302 -0.8982
 1878TIP3   OH227048   4.354   4.745   1.270  0.3349 -0.3439 -0.1022
 1878TIP3    H127049   4.417   4.788   1.329  1.7528 -1.8718 -0.4626
 1878TIP3    H227050   4.355   4.798   1.191 -0.7662  1.0907  0.7813
 1879TIP3   OH227051   2.764   5.441  16.459 -0.3361  0.2481  0.6633
 1879TIP3    H127052   2.739   5.476  16.544  0.3258 -2.1300  1.9075
 1879TIP3    H227053   2.684   5.402  16.424 -0.8385  2.0231 -0.2949
 1880TIP3   OH227054   4.246   6.188  16.102 -0.0305  0.6821 -0.6336
 1880TIP3    H127055   4.213   6.231  16.023  0.1701 -2.3090 -2.5117
 1880TIP3    H227056   4.173   6.133  16.132  0.7094 -0.1250 -0.2491
 1881TIP3   OH227057   0.193   0.590  10.918 -0.0680  0.0025 -0.4299
 1881TIP3    H127058   0.191   0.627  10.829 -0.6413  2.3521  0.4771
 1881TIP3    H227059   0.286   0.579  10.937  0.2325  2.4100 -0.2541
 1882TIP3   OH227060   2.851   1.016   1.509 -0.1074  0.2593 -0.5802
 1882TIP3    H127061   2.897   1.100   1.501  0.2863 -0.0001 -1.0722
 1882TIP3    H227062   2.766   1.031   1.468 -0.4630  0.7333  0.3074
 1883TIP3   OH227063   4.956   4.146  12.406 -0.1645 -0.3538 -0.5221
 1883TIP3    H127064   4.952   4.190  12.491 -0.2415  1.2544 -1.3150
 1883TIP3    H227065   5.035   4.093  12.410  0.1275  0.1245  0.3602
 1884TIP3   OH227066   4.730   4.445   2.838  0.3959  0.1502  0.4682
 1884TIP3    H127067   4.654   4.413   2.789  0.5874 -0.7372  0.7408
 1884TIP3    H227068   4.785   4.368   2.851  1.5231  0.8398 -0.0204
 1885TIP3   OH227069   4.641   5.661  14.725 -0.0117 -0.0722  0.0534
 1885TIP3    H127070   4.568   5.623  14.775  0.1620  0.9075  1.0940
 1885TIP3    H227071   4.651   5.603  14.650 -2.9821  0.6876 -1.0618
 1886TIP3   OH227072   3.309   1.115   6.396  0.5106  0.2103 -0.8158
 1886TIP3    H127073   3.287   1.182   6.331  1.6907  0.7085 -0.7368
 1886TIP3    H227074   3.403   1.100   6.383  0.3723 -1.0309 -0.4510
 1887TIP3   OH227075   5.915   3.581   4.056 -0.4178 -0.1056 -0.6681
 1887TIP3    H127076   6.000   3.626   4.057  0.5327 -1.8069  0.4182
 1887TIP3    H227077   5.887   3.579   4.147 -0.9450 -0.7754 -0.8349
 1888TIP3   OH227078   5.413   1.149   2.052  0.4430 -0.3944  0.0885
 1888TIP3    H127079   5.449   1.091   1.984  0.0375  0.2672 -0.6963
 1888TIP3    H227080   5.466   1.228   2.047  2.5895 -1.4558  2.7352
 1889TIP3   OH227081   1.036   5.452   4.123 -0.3000  0.5694 -0.1841
 1889TIP3    H127082   1.044   5.531   4.070 -0.0770  1.2501  0.8278
 1889TIP3    H227083   1.122   5.442   4.165 -0.3310 -0.2045 -0.2869
 1890TIP3   OH227084   2.546   0.692   0.635  0.7660  0.2983 -0.3906
 1890TIP3    H127085   2.530   0.715   0.726  0.5069  0.5818 -0.5059
 1890TIP3    H227086   2.523   0.771   0.585  0.7019  0.0788 -0.7174
 1891TIP3   OH227087   2.471   4.054  12.712  0.1477  0.0097 -0.1049
 1891TIP3    H127088   2.483   3.973  12.761 -1.8659  1.1429  2.5218
 1891TIP3    H227089   2.515   4.039  12.629  1.2470 -3.1425  0.9147
 1892TIP3   OH227090   1.410   4.298   4.895  0.1327 -0.3562  0.3662
 1892TIP3    H127091   1.487   4.349   4.918 -0.4189  0.0785  1.3225
 1892TIP3    H227092   1.409   4.297   4.799  0.1020  1.5363  0.3186
 1893TIP3   OH227093   4.686   4.556  12.567 -0.5125  0.2606  0.1498
 1893TIP3    H127094   4.738   4.619  12.616  0.8387 -0.0667 -0.8193
 1893TIP3    H227095   4.645   4.608  12.498  0.0426  0.2036 -0.2261
 1894TIP3   OH227096   6.344   3.165  12.307  0.4568 -0.4390 -0.1703
 1894TIP3    H127097   6.287   3.242  12.309  1.1702  0.0828  0.4281
 1894TIP3    H227098   6.295   3.101  12.255 -0.3327  0.2643 -0.3200
 1895TIP3   OH227099   1.686   4.140   1.987 -0.1144  0.0846 -0.1561
 1895TIP3    H127100   1.658   4.210   2.045  0.6211 -0.5503  1.0170
 1895TIP3    H227101   1.698   4.182   1.902 -1.6632  0.9506  0.0178
 1896TIP3   OH227102   2.283   0.826   3.682 -0.3326 -0.1193  0.0685
 1896TIP3    H127103   2.282   0.732   3.699  0.3437 -0.2842 -0.7108
 1896TIP3    H227104   2.221   0.838   3.610  0.9152 -0.2573 -1.0744
 1897TIP3   OH227105   4.577   5.144  14.269  0.0478  0.0590 -0.2287
 1897TIP3    H127106   4.530   5.130  14.351  1.9684 -1.6867  0.6746
 1897TIP3    H227107   4.634   5.219  14.286 -0.6368  0.6552 -0.5108
 1898TIP3   OH227108   6.333   3.817  13.814  0.7726  0.0515  0.0437
 1898TIP3    H127109   6.325   3.819  13.909 -0.8605 -0.6876 -0.0418
 1898TIP3    H227110   6.304   3.903  13.785  1.8217  0.4798  0.2244
 1899TIP3   OH227111   2.681   6.334  16.934  0.3055  1.0052 -0.7290
 1899TIP3    H127112   2.627   6.331  17.013 -0.4483  0.7636 -1.2415
 1899TIP3    H227113   2.652   6.412  16.887  0.9721  1.3281 -0.6256
 1900TIP3   OH227114   2.833   3.913   4.765  0.3783  0.1945  0.0913
 1900TIP3    H127115   2.826   3.823   4.734  0.2570  0.2590 -0.0741
 1900TIP3    H227116   2.756   3.925   4.821  0.9566 -0.1330  0.9716
 1901TIP3   OH227117   2.053   1.138  12.057 -0.1992 -0.4909  0.2384
 1901TIP3    H127118   2.042   1.148  12.151 -0.0393 -0.7024  0.2818
 1901TIP3    H227119   2.115   1.207  12.033  0.2106 -0.8000  0.3878
 1902TIP3   OH227120   0.433   1.201  13.437  0.1030 -0.1647 -0.1555
 1902TIP3    H127121   0.390   1.175  13.356  0.5882 -2.1711  0.1584
 1902TIP3    H227122   0.526   1.187  13.420  0.4684  1.8273 -0.0423
 1903TIP3   OH227123   2.784   5.165   0.605 -0.4638 -0.2496  0.6811
 1903TIP3    H127124   2.786   5.072   0.582  1.0204 -0.1339  0.2041
 1903TIP3    H227125   2.824   5.209   0.529 -0.6348  0.7205  1.1369
 1904TIP3   OH227126   2.187   0.600  15.823  0.1147 -0.2549 -0.0971
 1904TIP3    H127127   2.167   0.526  15.880  1.9266 -0.5714  0.1857
 1904TIP3    H227128   2.281   0.614  15.833  0.1193  0.9983 -1.4607
 1905TIP3   OH227129   3.707   1.660  14.421 -0.2136  0.2548 -0.1375
 1905TIP3    H127130   3.718   1.624  14.333 -0.8490  1.0192 -0.5504
 1905TIP3    H227131   3.706   1.755  14.407  1.0840  0.4258  0.8771
 1906TIP3   OH227132   3.062   5.008  12.730 -0.0616 -0.5480  0.2828
 1906TIP3    H127133   3.057   5.097  12.695 -1.7362 -1.1976 -1.2885
 1906TIP3    H227134   2.972   4.977  12.728  0.3991 -2.0467  1.4865
 1907TIP3   OH227135   4.029   3.317   2.548  0.2649  0.7037 -0.3526
 1907TIP3    H127136   3.939   3.339   2.572 -0.2398  0.6503 -2.0308
 1907TIP3    H227137   4.057   3.391   2.493  0.5324 -0.1850 -1.4453
 1908TIP3   OH227138   3.559   1.244   4.628 -0.0913 -0.2063 -0.3662
 1908TIP3    H127139   3.526   1.275   4.543 -0.0410  0.0633 -0.2878
 1908TIP3    H227140   3.498   1.281   4.692  0.8986  1.1134 -0.1369
 1909TIP3   OH227141   1.133   2.260  13.969 -0.1666 -0.0692  0.1592
 1909TIP3    H127142   1.095   2.289  14.052 -0.0562 -0.5979  0.4009
 1909TIP3    H227143   1.206   2.204  13.995  0.2674  0.2759 -0.2998
 1910TIP3   OH227144   5.751   6.729   4.502 -0.4088  0.1827  0.0346
 1910TIP3    H127145   5.824   6.782   4.469 -0.0936 -0.8897 -1.1104
 1910TIP3    H227146   5.728   6.768   4.586  1.4830  0.5797  0.4184
 1911TIP3   OH227147   6.736   3.841   2.237  0.0528  0.3298  0.7013
 1911TIP3    H127148   6.668   3.788   2.196 -0.3613  2.6130 -1.8623
 1911TIP3    H227149   6.691   3.921   2.262  1.5639  1.5061 -0.1823
 1912TIP3   OH227150   1.387   5.800  14.317 -0.1171 -0.5543  0.2112
 1912TIP3    H127151   1.469   5.844  14.340 -0.3631  0.1370 -0.1832
 1912TIP3    H227152   1.415   5.716  14.280  0.4486 -0.1512 -0.3167
 1913TIP3   OH227153   2.585   3.238   1.223  0.7716  0.3326  0.3122
 1913TIP3    H127154   2.565   3.327   1.255 -1.2518  0.5336 -1.3155
 1913TIP3    H227155   2.668   3.248   1.176  0.3792  1.4761 -0.1909
 1914TIP3   OH227156   3.233   0.755   4.667  0.0550  0.3284 -0.3395
 1914TIP3    H127157   3.142   0.762   4.639  0.1584  1.0950 -0.5100
 1914TIP3    H227158   3.283   0.787   4.593  0.3711  1.6377  0.4071
 1915TIP3   OH227159   6.115   6.684  14.763  0.5311  0.1924 -0.5588
 1915TIP3    H127160   6.177   6.726  14.823  1.8955  0.5740 -2.1830
 1915TIP3    H227161   6.084   6.755  14.707 -0.7285 -0.1617 -0.3560
 1916TIP3   OH227162   0.892   2.807   3.897 -0.0042 -0.4281 -0.4380
 1916TIP3    H127163   0.799   2.785   3.898 -0.3309  0.8819  0.3044
 1916TIP3    H227164   0.897   2.885   3.841  0.8186 -1.1454 -1.3917
 1917TIP3   OH227165   2.558   1.686  14.685  0.0651 -0.2394  0.4442
 1917TIP3    H127166   2.544   1.773  14.646  2.7038  0.3395  0.5976
 1917TIP3    H227167   2.538   1.625  14.614 -0.6837  0.5235 -0.0267
 1918TIP3   OH227168   3.735   5.611  16.296 -0.6916  0.0526 -0.4331
 1918TIP3    H127169   3.787   5.691  16.284 -3.0592  1.5430 -1.4150
 1918TIP3    H227170   3.706   5.615  16.387  0.0720 -0.2788 -0.1664
 1919TIP3   OH227171   5.978   0.594  13.243  0.4060  0.5984  0.1316
 1919TIP3    H127172   6.055   0.612  13.188  0.9920  0.0098  0.7557
 1919TIP3    H227173   6.014   0.582  13.331 -0.3919  0.2052  0.4051
 1920TIP3   OH227174   6.013   3.097   1.115  0.6456 -0.1629  0.5504
 1920TIP3    H127175   5.927   3.079   1.078  0.5085  0.0612  0.7596
 1920TIP3    H227176   6.075   3.077   1.045  0.8465 -5.1020  1.7662
 1921TIP3   OH227177   3.713   3.778   1.259 -0.4873  0.0636  0.2405
 1921TIP3    H127178   3.634   3.724   1.266  0.4833 -1.4601 -0.0650
 1921TIP3    H227179   3.761   3.741   1.185  0.4890  1.0131  0.3710
 1922TIP3   OH227180   0.438   5.532   3.460  0.0749  0.0647  0.0126
 1922TIP3    H127181   0.420   5.552   3.368 -0.7418 -2.0300 -0.3417
 1922TIP3    H227182   0.394   5.601   3.508  0.6365  1.2818 -1.1536
 1923TIP3   OH227183   0.287   3.387  16.680 -0.5788  0.6797 -0.1691
 1923TIP3    H127184   0.258   3.467  16.724 -0.0586  0.3599  0.7787
 1923TIP3    H227185   0.278   3.319  16.746 -0.6620  0.0093 -0.8550
 1924TIP3   OH227186   6.353   4.196  13.000  0.2563 -0.0853 -0.2289
 1924TIP3    H127187   6.356   4.164  13.090  0.2807 -1.2841 -0.6421
 1924TIP3    H227188   6.401   4.131  12.950  0.2371  0.5676 -1.1241
 1925TIP3   OH227189   4.161   5.249  16.146 -0.3577 -0.2894  0.6108
 1925TIP3    H127190   4.213   5.329  16.155  1.7949 -0.9559 -3.5559
 1925TIP3    H227191   4.074   5.279  16.119  0.1872  0.6725 -0.1239
 1926TIP3   OH227192   1.395   4.840  13.973  0.3993 -0.2348  0.0504
 1926TIP3    H127193   1.425   4.882  13.893  0.3604 -0.4085 -0.0545
 1926TIP3    H227194   1.425   4.899  14.043  0.2992 -0.0043 -0.0975
 1927TIP3   OH227195   0.985   2.480   0.437 -0.3206 -0.2980 -0.1341
 1927TIP3    H127196   0.936   2.430   0.372 -0.4384 -1.4574  0.8055
 1927TIP3    H227197   0.918   2.516   0.495 -0.1364 -1.5158  0.8893
 1928TIP3   OH227198   6.221   2.516   2.893  0.2516 -0.4482 -0.2342
 1928TIP3    H127199   6.196   2.569   2.969 -0.4054  0.5618 -1.1321
 1928TIP3    H227200   6.214   2.426   2.923  0.2874 -0.0567  0.9947
 1929TIP3   OH227201   0.541   5.866   0.256  0.5696 -0.1388 -0.1475
 1929TIP3    H127202   0.466   5.817   0.223  1.3779 -0.1007 -2.1753
 1929TIP3    H227203   0.592   5.801   0.305 -0.2226 -0.4222  0.3162
 1930TIP3   OH227204   5.998   2.654   5.945 -0.2628 -0.0678  0.0610
 1930TIP3    H127205   5.956   2.635   6.028  1.0178 -0.4251  0.6420
 1930TIP3    H227206   6.058   2.726   5.964 -0.6999  0.5380 -0.7867
 1931TIP3   OH227207   4.475   2.783  13.967  0.2479 -0.4737  0.1789
 1931TIP3    H127208   4.495   2.710  13.909  0.2444 -0.0473 -0.3653
 1931TIP3    H227209   4.382   2.800  13.954  0.1329 -0.6959  0.6846
 1932TIP3   OH227210   6.406   3.018   1.828 -0.7698 -0.6398  0.3825
 1932TIP3    H127211   6.369   3.100   1.859 -1.4855 -0.5328 -0.6818
 1932TIP3    H227212   6.330   2.969   1.795 -0.0651 -0.7667 -1.1050
 1933TIP3   OH227213   6.120   5.400  15.736  0.2612 -0.0903  0.2066
 1933TIP3    H127214   6.073   5.457  15.796  1.3649  1.1315 -0.0478
 1933TIP3    H227215   6.125   5.316  15.783 -0.9856  0.1264  0.7762
 1934TIP3   OH227216   0.767   5.786   4.577 -0.0108  0.2757  0.5971
 1934TIP3    H127217   0.735   5.740   4.655 -0.2768 -0.9107 -0.1879
 1934TIP3    H227218   0.850   5.824   4.605 -0.6928  0.9408  1.8225
 1935TIP3   OH227219   4.058   3.959   2.643 -0.2236  0.2295 -0.2583
 1935TIP3    H127220   3.974   3.968   2.599 -0.0907 -1.7308 -1.0034
 1935TIP3    H227221   4.045   3.889   2.707 -0.2130  2.5287  2.4777
 1936TIP3   OH227222   1.213   3.043  13.466 -0.2136 -0.6104  0.1305
 1936TIP3    H127223   1.195   3.037  13.560  1.5190 -0.4859  0.4952
 1936TIP3    H227224   1.260   3.125  13.455  1.9271 -1.8258 -0.4210
 1937TIP3   OH227225   5.065   1.439   4.598 -0.0690 -0.2343  0.4185
 1937TIP3    H127226   5.159   1.426   4.583  0.2944 -0.6097  2.6707
 1937TIP3    H227227   5.029   1.351   4.597 -0.1513 -0.2074  0.9422
 1938TIP3   OH227228   1.337   1.841  16.488 -0.1922 -0.9187  0.4875
 1938TIP3    H127229   1.250   1.869  16.460 -0.1861 -0.4369  0.9377
 1938TIP3    H227230   1.323   1.803  16.575  0.4093  1.6476  1.7988
 1939TIP3   OH227231   0.908   2.532  14.558  0.2740 -0.1047  0.1508
 1939TIP3    H127232   0.965   2.470  14.514 -0.9395  0.3460 -2.2355
 1939TIP3    H227233   0.903   2.501  14.648  3.3547 -0.7641  0.1999
 1940TIP3   OH227234   1.575   5.828  11.854 -0.1601  1.2138 -1.0576
 1940TIP3    H127235   1.656   5.784  11.880 -1.1977  0.1331  0.5588
 1940TIP3    H227236   1.547   5.781  11.775 -1.0037 -0.8377  0.3801
 1941TIP3   OH227237   1.021   4.617   4.469  0.4069 -0.1237  0.1091
 1941TIP3    H127238   1.009   4.594   4.377  1.3647 -0.6470  0.0988
 1941TIP3    H227239   1.037   4.533   4.512 -1.1119 -0.0092  0.9492
 1942TIP3   OH227240   1.482   0.397   2.533 -0.0818 -0.1059 -0.0815
 1942TIP3    H127241   1.471   0.445   2.615 -0.3266 -1.4130  0.6889
 1942TIP3    H227242   1.402   0.414   2.483  2.0989  5.0426 -2.5475
 1943TIP3   OH227243   4.222   0.071  16.980 -0.0477 -0.0477  0.1166
 1943TIP3    H127244   4.274   0.151  16.994  0.4866  0.0259 -1.9603
 1943TIP3    H227245   4.286   0.007  16.948 -0.6448 -1.0391  0.8813
 1944TIP3   OH227246   6.235   5.060   3.147  0.0778  0.7229 -0.7046
 1944TIP3    H127247   6.254   5.090   3.236  1.0816 -3.0744  0.5400
 1944TIP3    H227248   6.141   5.041   3.148  0.2507 -0.1826 -0.0980
 1945TIP3   OH227249   3.840   4.507  13.175 -0.0248  0.2505  0.3249
 1945TIP3    H127250   3.860   4.415  13.153  0.6867  0.6310 -0.7087
 1945TIP3    H227251   3.911   4.533  13.235  0.8916  0.6754 -0.8997
 1946TIP3   OH227252   5.491   2.122  16.302 -0.4873  0.4333  0.1934
 1946TIP3    H127253   5.547   2.099  16.228  0.6152  1.4941  0.6549
 1946TIP3    H227254   5.415   2.164  16.263 -0.0818  0.6546 -0.3633
 1947TIP3   OH227255   2.631   5.540  14.540  0.2125 -0.4462  0.1374
 1947TIP3    H127256   2.556   5.559  14.483  0.6655  1.3705  0.0892
 1947TIP3    H227257   2.648   5.447  14.527 -0.0633 -0.2186 -2.2647
 1948TIP3   OH227258   5.846   3.269  12.680 -0.1012  0.0323 -0.0065
 1948TIP3    H127259   5.876   3.195  12.733  0.8224  0.2591 -0.1909
 1948TIP3    H227260   5.899   3.264  12.601  0.2802  1.1462  0.1629
 1949TIP3   OH227261   4.784   4.680   6.325 -0.4128  0.4695 -0.0474
 1949TIP3    H127262   4.761   4.655   6.235  1.0227  0.6851 -0.4888
 1949TIP3    H227263   4.836   4.759   6.316  1.0089 -0.3177  0.8500
 1950TIP3   OH227264   6.598   5.277   2.591 -0.4953 -0.5418 -0.0592
 1950TIP3    H127265   6.632   5.273   2.501  0.1964  1.1281  0.0895
 1950TIP3    H227266   6.513   5.233   2.586 -0.3997 -0.6276 -1.4990
 1951TIP3   OH227267   3.616   2.764  11.461  0.1343  0.4113  0.2208
 1951TIP3    H127268   3.527   2.753  11.427  0.5696  0.2693 -0.9028
 1951TIP3    H227269   3.620   2.706  11.537 -1.2367  1.6365  1.2923
 1952TIP3   OH227270   5.440   4.287  16.762 -0.4097 -0.3357 -0.2460
 1952TIP3    H127271   5.527   4.297  16.798 -0.4696 -1.2675  0.1784
 1952TIP3    H227272   5.398   4.221  16.817 -1.4523  0.2432 -0.3188
 1953TIP3   OH227273   0.167   2.151  15.239  0.3612  0.1429 -0.0215
 1953TIP3    H127274   0.137   2.136  15.328 -3.0653  1.3347 -0.7918
 1953TIP3    H227275   0.181   2.246  15.233  0.0892  0.1461 -0.8371
 1954TIP3   OH227276   0.398   1.138  15.059  0.2154  0.1797  0.2541
 1954TIP3    H127277   0.303   1.138  15.048  0.2509  2.5938 -0.7029
 1954TIP3    H227278   0.433   1.126  14.971  0.8324 -0.7186  0.6027
 1955TIP3   OH227279   1.732   6.094   0.985  0.3457 -0.1149  0.0423
 1955TIP3    H127280   1.670   6.022   0.993 -0.6508  0.8803  2.4736
 1955TIP3    H227281   1.817   6.056   1.008 -0.2940 -0.4295  2.0537
 1956TIP3   OH227282   0.617   1.174  16.070 -0.0369 -0.5385  0.4190
 1956TIP3    H127283   0.621   1.109  16.000  0.9500  0.3508 -0.3892
 1956TIP3    H227284   0.524   1.186  16.087 -0.4758  0.8677 -2.3578
 1957TIP3   OH227285   4.247   2.510  11.754  0.4919 -0.2205  0.4835
 1957TIP3    H127286   4.281   2.564  11.826  0.2162  1.5226 -0.6258
 1957TIP3    H227287   4.197   2.572  11.701 -0.1011 -1.6763 -0.6871
 1958TIP3   OH227288   6.519   4.093   0.114 -0.7610 -0.0507 -0.0610
 1958TIP3    H127289   6.521   4.113   0.208 -0.2959  0.6551 -0.2176
 1958TIP3    H227290   6.607   4.061   0.095 -0.7905  0.0126 -0.3048
 1959TIP3   OH227291   5.239   0.915   1.369 -0.2779  0.1278  0.5233
 1959TIP3    H127292   5.287   0.947   1.445 -0.0025 -1.9538  1.2644
 1959TIP3    H227293   5.148   0.936   1.388 -0.0427  1.1891  0.5853
 1960TIP3   OH227294   2.138   2.543   1.533 -0.5773  0.0122  0.0948
 1960TIP3    H127295   2.194   2.591   1.594  0.3256 -0.5571 -0.2639
 1960TIP3    H227296   2.069   2.605   1.509  1.9148  2.1320 -2.3551
 1961TIP3   OH227297   4.186   4.035   6.376 -0.3995 -0.1193  0.1029
 1961TIP3    H127298   4.276   4.004   6.365 -0.3769  0.3499 -1.2794
 1961TIP3    H227299   4.166   4.080   6.294 -1.8332 -0.0368  0.4645
 1962TIP3   OH227300   4.879   4.224   2.901 -0.4272 -0.2007  0.4662
 1962TIP3    H127301   4.972   4.222   2.878 -0.8057  0.0458 -1.2268
 1962TIP3    H227302   4.845   4.141   2.868 -0.5732 -0.9152  2.3156
 1963TIP3   OH227303   6.219   0.933   1.207  0.6155  0.7739  0.1152
 1963TIP3    H127304   6.259   0.899   1.127  0.3801 -0.4587  0.4897
 1963TIP3    H227305   6.247   1.024   1.211  0.4974  0.9218 -1.4547
 1964TIP3   OH227306   6.196   3.848  15.757  0.4370 -0.2260 -0.6231
 1964TIP3    H127307   6.244   3.892  15.828 -2.4793  3.2169 -0.4815
 1964TIP3    H227308   6.229   3.888  15.677 -0.9556  1.0560 -0.6160
 1965TIP3   OH227309   2.089   2.780   0.258 -0.2669 -0.0631 -0.3682
 1965TIP3    H127310   2.113   2.687   0.258 -1.2595 -0.3259 -0.5811
 1965TIP3    H227311   2.055   2.796   0.170  0.8434  0.7659 -0.6691
 1966TIP3   OH227312   0.050   5.099   0.505  0.0366  0.0429  0.1911
 1966TIP3    H127313   0.038   5.193   0.496 -0.6397 -0.1826 -1.9017
 1966TIP3    H227314  -0.034   5.061   0.478  0.3804 -1.1673  0.7374
 1967TIP3   OH227315   5.862   4.440   4.655 -0.1300 -0.5108 -0.0752
 1967TIP3    H127316   5.925   4.498   4.612 -0.1730 -1.2528 -1.1710
 1967TIP3    H227317   5.916   4.374   4.698 -0.0986  0.0595  0.7859
 1968TIP3   OH227318   1.827   3.287  15.057  0.0989 -0.5602  0.3191
 1968TIP3    H127319   1.734   3.276  15.073  0.0109  0.2403  0.3840
 1968TIP3    H227320   1.865   3.201  15.076 -0.5055 -0.6607  1.1434
 1969TIP3   OH227321   0.153   1.565  15.993  0.0027 -0.4203  0.0034
 1969TIP3    H127322   0.068   1.544  16.033  0.7149 -2.0989  0.7008
 1969TIP3    H227323   0.210   1.583  16.067  0.3142  0.5761 -0.4608
 1970TIP3   OH227324   6.471   5.144   1.725  0.5020 -0.1777 -0.3726
 1970TIP3    H127325   6.533   5.216   1.712  0.5363 -0.1477 -0.0378
 1970TIP3    H227326   6.414   5.147   1.648  0.4675  0.2405 -0.3308
 1971TIP3   OH227327   2.403   2.871  11.831  0.2732  0.7796 -0.3994
 1971TIP3    H127328   2.342   2.816  11.880  0.8677  0.6159  0.1669
 1971TIP3    H227329   2.417   2.947  11.887  1.6725  0.1638  0.1272
 1972TIP3   OH227330   3.033   1.370   3.803  0.2219 -0.3652 -0.5705
 1972TIP3    H127331   2.999   1.454   3.773  0.0755 -0.3325 -0.3120
 1972TIP3    H227332   3.089   1.392   3.877 -1.6519 -0.6939  1.0155
 1973TIP3   OH227333   0.202   0.903  15.623  0.0487  0.3273 -0.2465
 1973TIP3    H127334   0.208   0.998  15.639  0.7537  0.1991  0.3278
 1973TIP3    H227335   0.108   0.884  15.625 -0.0385  0.7755  1.1913
 1974TIP3   OH227336   1.044   6.747   4.315 -0.0590  0.3854  0.2000
 1974TIP3    H127337   1.135   6.762   4.340  0.0273 -0.2394  0.2806
 1974TIP3    H227338   1.036   6.651   4.311 -1.3188  0.3172  2.4896
 1975TIP3   OH227339   5.665   1.748  14.702 -0.2780 -0.5903 -0.5551
 1975TIP3    H127340   5.572   1.724  14.697 -0.5460 -1.6340  4.2866
 1975TIP3    H227341   5.710   1.677  14.655 -1.8164 -1.1985 -1.2029
 1976TIP3   OH227342   6.214   0.689   4.188 -0.7095  0.0310 -0.0873
 1976TIP3    H127343   6.168   0.605   4.191 -0.1417 -0.3233 -0.9783
 1976TIP3    H227344   6.160   0.744   4.132 -0.2239 -0.2775 -0.8615
 1977TIP3   OH227345   3.778   3.784  15.511  0.3413 -0.0812  0.0578
 1977TIP3    H127346   3.762   3.777  15.605  0.2090  0.7568  0.1042
 1977TIP3    H227347   3.815   3.699  15.487  2.5847  0.4551  1.3054
 1978TIP3   OH227348   6.301   6.344   1.015 -0.7769  0.0910  0.7644
 1978TIP3    H127349   6.213   6.377   1.029 -0.8651 -0.0258  0.4918
 1978TIP3    H227350   6.343   6.410   0.960 -1.0480 -0.3899 -0.0295
 1979TIP3   OH227351   2.717   0.638  17.087 -0.1941 -0.2211 -0.6547
 1979TIP3    H127352   2.795   0.692  17.101  0.0252 -0.7428  0.2353
 1979TIP3    H227353   2.690   0.658  16.998  1.3971 -0.6057 -1.2555
 1980TIP3   OH227354   1.307   1.522   4.991  0.5100  0.0353  0.0890
 1980TIP3    H127355   1.232   1.572   5.022  0.9043 -0.1660  1.4281
 1980TIP3    H227356   1.288   1.432   5.016  0.4034 -0.2987 -1.1474
 1981TIP3   OH227357   6.016   1.906   1.033 -0.4730  0.1559  0.4486
 1981TIP3    H127358   5.994   1.992   1.069  0.0536 -0.8590  3.4430
 1981TIP3    H227359   6.107   1.914   1.004 -0.0433  0.3522  1.7760
 1982TIP3   OH227360   6.585   5.718   1.950 -0.1913 -0.2008  0.5245
 1982TIP3    H127361   6.587   5.682   1.862  2.0532  1.5002 -0.2120
 1982TIP3    H227362   6.496   5.751   1.961 -0.5080 -0.4323 -1.1112
 1983TIP3   OH227363   6.599   0.122  11.401  0.8682  0.0672  0.0453
 1983TIP3    H127364   6.564   0.144  11.314  0.2052  0.7495  0.4730
 1983TIP3    H227365   6.680   0.171  11.408  0.7777  0.2361 -0.0815
 1984TIP3   OH227366   2.904   5.300   0.923 -0.0308  0.0130  0.1871
 1984TIP3    H127367   2.835   5.352   0.884  1.1446  1.4813 -0.0526
 1984TIP3    H227368   2.983   5.352   0.911  0.8932 -0.9316  1.7205
 1985TIP3   OH227369   2.123   3.374   1.377  0.3128 -0.2776  0.2918
 1985TIP3    H127370   2.072   3.416   1.447 -0.4319 -2.9347  1.4671
 1985TIP3    H227371   2.115   3.280   1.395  2.8852 -0.9205 -1.4732
 1986TIP3   OH227372   0.865   3.181  16.981  0.1195  0.3646  0.3451
 1986TIP3    H127373   0.944   3.131  16.962 -1.3660 -1.1645 -2.4789
 1986TIP3    H227374   0.823   3.135  17.053 -0.1780 -1.3238 -0.8496
 1987TIP3   OH227375   5.403   1.629  13.585  0.1565  0.0153 -0.0821
 1987TIP3    H127376   5.383   1.703  13.528  1.0398 -0.3530 -0.8898
 1987TIP3    H227377   5.448   1.566  13.529  4.3258  1.0781  1.6503
 1988TIP3   OH227378   1.658   5.919  13.310  0.0808  0.0386 -0.6969
 1988TIP3    H127379   1.581   5.914  13.254  0.0138  0.9217 -0.6973
 1988TIP3    H227380   1.725   5.961  13.256 -0.1273  1.3289  0.0111
 1989TIP3   OH227381   6.641   2.318   0.341  0.2790  0.3464  0.2462
 1989TIP3    H127382   6.671   2.391   0.394  2.0708  0.7257 -1.1952
 1989TIP3    H227383   6.660   2.344   0.251 -1.0854 -0.9818 -0.4868
 1990TIP3   OH227384   1.478   1.538  12.931  0.0757 -0.2864 -0.0098
 1990TIP3    H127385   1.485   1.604  13.000  0.0630 -0.1514 -0.1339
 1990TIP3    H227386   1.383   1.527  12.918  0.0423  1.0929 -1.3025
 1991TIP3   OH227387   1.748   1.455   4.839  0.0760 -0.2960 -0.5403
 1991TIP3    H127388   1.731   1.548   4.857  0.5096 -0.0708 -1.2492
 1991TIP3    H227389   1.666   1.423   4.800 -0.0311 -0.1804 -0.4117
 1992TIP3   OH227390   1.531   0.673  12.508  0.0540 -0.9720  0.4960
 1992TIP3    H127391   1.609   0.701  12.460 -0.5935 -2.9464 -1.9160
 1992TIP3    H227392   1.564   0.644  12.593  1.7692 -0.6351 -0.0202
 1993TIP3   OH227393   3.914   0.767   5.696  0.3861  0.4988  0.6635
 1993TIP3    H127394   3.984   0.735   5.752  1.4735 -2.1642 -1.9860
 1993TIP3    H227395   3.847   0.699   5.700 -1.5598  2.3365  2.0091
 1994TIP3   OH227396   3.735   1.502   4.888  0.2146  0.6506  0.9070
 1994TIP3    H127397   3.742   1.407   4.878  0.1867  0.7710 -0.4139
 1994TIP3    H227398   3.674   1.514   4.960 -0.6926 -0.3361  0.3360
 1995TIP3   OH227399   3.895   3.981  13.279 -0.7052 -0.3319 -0.9957
 1995TIP3    H127400   3.852   3.942  13.203 -1.3527  0.5064 -1.0768
 1995TIP3    H227401   3.976   3.932  13.288 -2.2793 -2.9010  0.0280
 1996TIP3   OH227402   5.441   5.843   3.749  0.0527  0.1574  0.4483
 1996TIP3    H127403   5.513   5.786   3.775  0.0239 -0.2142 -0.2436
 1996TIP3    H227404   5.469   5.931   3.774  0.1321 -0.1452  1.4464
 1997TIP3   OH227405   0.182   0.238  14.071  0.2019 -0.2367 -0.4284
 1997TIP3    H127406   0.191   0.146  14.046 -0.9419 -0.4673 -0.0559
 1997TIP3    H227407   0.174   0.284  13.987  2.8538 -0.1798 -0.7247
 1998TIP3   OH227408   2.457   1.519  16.757  0.1511 -0.6737  0.7446
 1998TIP3    H127409   2.439   1.603  16.799 -1.4770 -0.6074 -0.0326
 1998TIP3    H227410   2.378   1.468  16.769 -0.5862 -0.5237 -2.4810
 1999TIP3   OH227411   1.699   2.490   3.925 -0.0389 -0.7994 -0.0787
 1999TIP3    H127412   1.648   2.414   3.899 -0.5614 -0.7989  0.9016
 1999TIP3    H227413   1.784   2.455   3.951 -0.0466 -0.9719 -0.2867
 2000TIP3   OH227414   1.314   1.547  14.897  0.1856  0.6063  0.7174
 2000TIP3    H127415   1.360   1.489  14.957 -3.1533 -0.8297  2.1153
 2000TIP3    H227416   1.320   1.504  14.812  0.7869  0.1083  1.0026
 2001TIP3   OH227417   3.363   1.062   2.331 -0.2668 -0.6340  0.3886
 2001TIP3    H127418   3.428   1.096   2.270 -2.0071  1.3982 -0.4693
 2001TIP3    H227419   3.404   1.072   2.417  1.4619 -1.7276 -0.2525
 2002TIP3   OH227420   2.411   3.691  12.397  0.5139  0.1682  0.3264
 2002TIP3    H127421   2.434   3.722  12.485 -0.0182  0.9423  0.1993
 2002TIP3    H227422   2.362   3.610  12.412  0.5625  0.2150  0.7367
 2003TIP3   OH227423   0.077   1.240  14.619 -0.6200  0.4558  0.0954
 2003TIP3    H127424   0.075   1.326  14.660  0.7602  0.1894  0.7765
 2003TIP3    H227425   0.117   1.256  14.533  0.7052  0.3697  0.6602
 2004TIP3   OH227426   2.463   5.990  15.807  0.1962 -0.0320 -0.2002
 2004TIP3    H127427   2.386   5.960  15.854 -0.4525  0.0761 -1.1707
 2004TIP3    H227428   2.468   6.084  15.826  1.1230 -0.3433  1.2785
 2005TIP3   OH227429   4.939   2.853   6.478  0.2265 -0.0896  0.1744
 2005TIP3    H127430   4.965   2.849   6.570  1.0055  0.3814 -0.0214
 2005TIP3    H227431   5.013   2.894   6.434 -0.4548  0.3653 -0.5527
 2006TIP3   OH227432   4.329   6.688   1.897 -0.3786 -0.4865  0.1412
 2006TIP3    H127433   4.388   6.618   1.925 -0.2794 -0.0573  1.0461
 2006TIP3    H227434   4.242   6.649   1.900 -0.3544 -0.4954  0.9410
 2007TIP3   OH227435   6.692   2.738   3.186 -0.0430  0.4705  0.7979
 2007TIP3    H127436   6.706   2.727   3.280 -0.8397  1.9489  1.1169
 2007TIP3    H227437   6.693   2.833   3.172 -0.4335  0.2933 -0.6058
 2008TIP3   OH227438   2.074   4.662  11.614  0.1502  0.2262  0.1231
 2008TIP3    H127439   2.055   4.749  11.650  0.6275  0.0234  0.8761
 2008TIP3    H227440   2.023   4.659  11.533  2.0498  2.1979 -1.2760
 2009TIP3   OH227441   1.486   3.086  16.248  0.5858  0.3349 -0.5514
 2009TIP3    H127442   1.572   3.078  16.288  1.1332  1.2577 -1.5011
 2009TIP3    H227443   1.443   3.156  16.298  0.5667  0.2052 -0.3856
 2010TIP3   OH227444   6.711   0.310  15.488  0.1145  0.2656 -0.0172
 2010TIP3    H127445   6.764   0.331  15.411 -0.2208 -1.4777 -0.7776
 2010TIP3    H227446   6.734   0.220  15.509  0.0395  0.6470  1.8311
 2011TIP3   OH227447   5.404   4.320   3.492  0.5178  0.3199  0.5440
 2011TIP3    H127448   5.333   4.325   3.556  0.7682 -0.4549  0.8934
 2011TIP3    H227449   5.484   4.336   3.543  0.6871  0.0950  0.3497
 2012TIP3   OH227450   0.674   4.680   3.946 -0.5941  0.0835  0.2611
 2012TIP3    H127451   0.766   4.668   3.925 -0.6521  1.4467 -0.9067
 2012TIP3    H227452   0.630   4.685   3.861 -1.8011 -0.8625  0.8006
 2013TIP3   OH227453   6.109   6.236  16.267 -0.3705  0.6741 -0.0012
 2013TIP3    H127454   6.150   6.200  16.189 -0.8723 -1.2323  0.5684
 2013TIP3    H227455   6.019   6.257  16.239 -0.6359 -0.2705  0.1186
 2014TIP3   OH227456   3.637   5.454  12.878  0.1246  0.0743 -0.3958
 2014TIP3    H127457   3.604   5.528  12.826 -1.3139  0.2836  0.7500
 2014TIP3    H227458   3.668   5.494  12.959 -0.5960 -0.5456  0.2050
 2015TIP3   OH227459   4.266   4.320   4.819  0.7469  0.3637  0.2370
 2015TIP3    H127460   4.228   4.408   4.823 -0.8342 -0.1978 -1.2382
 2015TIP3    H227461   4.279   4.296   4.911 -1.3126  1.1359  0.7993
 2016TIP3   OH227462   5.512   4.050   3.880 -0.1977 -0.3088 -0.3142
 2016TIP3    H127463   5.438   4.019   3.932 -1.2426 -1.7300 -2.5085
 2016TIP3    H227464   5.501   4.145   3.877 -1.8019 -0.4810 -0.3865
 2017TIP3   OH227465   0.217   5.132  11.160 -0.0026  0.1946 -0.2369
 2017TIP3    H127466   0.229   5.120  11.066  1.6889 -2.1323  0.1859
 2017TIP3    H227467   0.135   5.087  11.180  0.3498 -0.5554 -0.4280
 2018TIP3   OH227468   0.517   5.247  14.489 -0.5709  0.1387 -0.1259
 2018TIP3    H127469   0.463   5.315  14.448  0.2580  0.6467 -0.4129
 2018TIP3    H227470   0.560   5.203  14.415  0.2511  0.4767  0.1377
 2019TIP3   OH227471   1.277   0.518   1.420 -0.2922  0.2792  0.0870
 2019TIP3    H127472   1.270   0.429   1.386 -1.0761  0.3905 -0.0507
 2019TIP3    H227473   1.360   0.518   1.468 -0.7906 -0.8262  0.9823
 2020TIP3   OH227474   1.796   0.064  11.222  0.1766  0.5021  0.0391
 2020TIP3    H127475   1.835   0.093  11.140 -1.6706  0.6494 -0.8236
 2020TIP3    H227476   1.850  -0.010  11.249  0.5459  0.1642 -1.5422
 2021TIP3   OH227477   0.946   0.725   5.854 -0.2150 -0.1431  0.0847
 2021TIP3    H127478   1.015   0.791   5.865  1.7097 -1.7736 -1.4138
 2021TIP3    H227479   0.866   0.776   5.844  0.9882  1.9199  0.3363
 2022TIP3   OH227480   5.937   2.659   4.002  0.2208 -0.3598 -0.1483
 2022TIP3    H127481   6.010   2.700   4.048  0.0362 -0.6649  0.4261
 2022TIP3    H227482   5.859   2.697   4.042  0.0026 -2.2666  1.4073
 2023TIP3   OH227483   4.801   0.539   2.608  0.1722 -0.2055  0.7141
 2023TIP3    H127484   4.711   0.549   2.577  0.6273  1.5909 -0.0981
 2023TIP3    H227485   4.847   0.499   2.534  0.5945  1.3075  0.1300
 2024TIP3   OH227486   1.445   6.567   0.173  0.1779  0.0386  0.3775
 2024TIP3    H127487   1.389   6.499   0.210 -0.9560  0.7137 -0.0502
 2024TIP3    H227488   1.447   6.635   0.239  0.2690  0.1337  0.2770
 2025TIP3   OH227489   5.646   1.636   3.888 -0.2344  0.1557  0.8705
 2025TIP3    H127490   5.584   1.701   3.857  0.1815  0.1049 -0.1134
 2025TIP3    H227491   5.694   1.610   3.810  0.6666 -0.1909  1.5224
 2026TIP3   OH227492   4.606   1.524  12.150 -0.0723  0.6813 -0.0042
 2026TIP3    H127493   4.637   1.591  12.088 -0.9447  0.5637 -0.5803
 2026TIP3    H227494   4.679   1.512  12.210  0.4110  1.5464 -0.4002
 2027TIP3   OH227495   1.524   5.383   1.806 -0.0877 -0.3754 -0.1253
 2027TIP3    H127496   1.508   5.438   1.883 -1.2533 -0.8382 -0.0231
 2027TIP3    H227497   1.616   5.399   1.785 -0.0965  0.7470  0.5808
 2028TIP3   OH227498   4.078   1.200  14.266 -0.1132 -0.0447  0.6152
 2028TIP3    H127499   4.057   1.171  14.177  1.5612  0.6752 -0.0428
 2028TIP3    H227500   4.155   1.149  14.291  0.2236  0.6969  1.1380
 2029TIP3   OH227501   3.187   0.833   3.186 -0.2503 -0.4535 -0.6124
 2029TIP3    H127502   3.215   0.855   3.097 -0.9627  1.1948 -0.4663
 2029TIP3    H227503   3.177   0.918   3.230 -1.0196 -1.1855  0.7041
 2030TIP3   OH227504   0.367   3.120  13.288 -0.4162  0.3652  0.4732
 2030TIP3    H127505   0.293   3.066  13.258 -0.4363  0.1386  0.9235
 2030TIP3    H227506   0.432   3.113  13.217 -0.2953 -0.5054  0.6609
 2031TIP3   OH227507   4.901   6.500   5.099  0.4015  0.1156  0.0577
 2031TIP3    H127508   4.849   6.419   5.101 -2.0855  1.5930 -0.2538
 2031TIP3    H227509   4.879   6.545   5.181  0.1898  1.3468 -0.6426
 2032TIP3   OH227510   1.570   5.753   1.809  0.3814 -0.1334 -0.5333
 2032TIP3    H127511   1.493   5.746   1.753 -0.6912 -1.8188  1.0281
 2032TIP3    H227512   1.623   5.822   1.769  0.0281 -1.6616 -3.9165
 2033TIP3   OH227513   5.198   0.284   5.810 -0.5307  0.2211  0.3742
 2033TIP3    H127514   5.182   0.264   5.718 -2.1989  2.0389  0.2050
 2033TIP3    H227515   5.117   0.261   5.855  0.1590 -0.3561  1.3440
 2034TIP3   OH227516   6.020   6.557  15.530 -0.6329 -0.0123  0.6726
 2034TIP3    H127517   5.985   6.502  15.600 -1.8987 -0.4676 -0.2764
 2034TIP3    H227518   5.973   6.640  15.538  1.0172  0.8738  1.8763
 2035TIP3   OH227519   6.004   3.607  11.190  0.3212  0.0097 -0.6743
 2035TIP3    H127520   5.985   3.517  11.165 -2.9222  0.4146 -0.0991
 2035TIP3    H227521   6.046   3.600  11.276  1.3952 -0.9420 -1.2483
 2036TIP3   OH227522   1.632   1.960   6.496  0.0307 -0.1162 -0.7206
 2036TIP3    H127523   1.728   1.957   6.494  0.0215 -2.1073 -0.2920
 2036TIP3    H227524   1.606   1.942   6.406  0.0533  0.2378 -0.7993
 2037TIP3   OH227525   2.640   6.764  15.689  0.2440 -0.8688 -0.2277
 2037TIP3    H127526   2.559   6.725  15.656 -0.4261  0.2837  0.0199
 2037TIP3    H227527   2.671   6.820  15.618  0.9641 -1.4661 -0.4054
 2038TIP3   OH227528   4.816   6.235  10.926 -0.2898  0.0982  0.5809
 2038TIP3    H127529   4.842   6.272  10.842  1.9966 -1.3121  0.5796
 2038TIP3    H227530   4.782   6.148  10.906  0.2886 -0.2581  1.0945
 2039TIP3   OH227531   5.207   0.462  15.041 -0.8747 -0.0303 -0.1370
 2039TIP3    H127532   5.206   0.442  15.135  1.0287 -0.1027 -0.0864
 2039TIP3    H227533   5.269   0.400  15.004  0.3706  1.6459 -1.0042
 2040TIP3   OH227534   4.117   0.976   5.739 -0.5251  0.6249  0.4445
 2040TIP3    H127535   4.061   0.911   5.698 -1.3698  0.3571  1.9597
 2040TIP3    H227536   4.202   0.933   5.747 -0.0044  1.0422 -1.8888
 2041TIP3   OH227537   6.484   4.907   3.284 -0.2308  0.2994 -0.2076
 2041TIP3    H127538   6.436   4.825   3.276 -0.4029  0.4001 -0.2206
 2041TIP3    H227539   6.417   4.971   3.308 -0.2235  0.5809 -0.9336
 2042TIP3   OH227540   4.002   0.172  12.525  0.0660 -0.2232 -0.2615
 2042TIP3    H127541   3.935   0.104  12.512 -0.2145 -0.1630  0.8479
 2042TIP3    H227542   4.018   0.206  12.437  0.6013 -2.0964 -0.9338
 2043TIP3   OH227543   2.297   1.493   2.852  0.3152  0.4765  0.2005
 2043TIP3    H127544   2.354   1.569   2.840  0.2675  0.3627 -0.8423
 2043TIP3    H227545   2.327   1.430   2.786  0.5412 -0.5342  1.2382
 2044TIP3   OH227546   0.204   2.341   4.169  0.0462  0.0174  0.1821
 2044TIP3    H127547   0.248   2.419   4.134 -0.8766  0.3242 -0.3279
 2044TIP3    H227548   0.114   2.349   4.138 -0.2212 -0.9123  0.6996
 2045TIP3   OH227549   2.136   4.263  15.519  0.1589 -0.3613 -0.4479
 2045TIP3    H127550   2.224   4.243  15.553 -0.5777 -0.9074  1.2518
 2045TIP3    H227551   2.078   4.247  15.593 -1.0858  2.9669 -0.5312
 2046TIP3   OH227552   2.531   3.408  14.945 -0.7944 -0.2009 -0.7602
 2046TIP3    H127553   2.529   3.444  14.857 -1.9785 -2.2222 -1.6174
 2046TIP3    H227554   2.607   3.350  14.946 -1.5861 -1.2559 -0.9180
 2047TIP3   OH227555   5.221   5.796   0.747 -0.0467  0.1996 -0.1984
 2047TIP3    H127556   5.315   5.797   0.730  0.5695 -1.8210  2.4176
 2047TIP3    H227557   5.189   5.719   0.700 -0.2383  0.3428 -0.3061
 2048TIP3   OH227558   5.861   3.426  12.206 -0.1816  0.1672 -0.0715
 2048TIP3    H127559   5.837   3.491  12.140  0.4740 -0.0429 -0.5272
 2048TIP3    H227560   5.841   3.341  12.165  0.6684  0.0152 -0.2037
 2049TIP3   OH227561   0.574   6.737  15.312  0.5990  0.1523 -0.3518
 2049TIP3    H127562   0.661   6.736  15.272 -0.0507  0.6127 -1.8520
 2049TIP3    H227563   0.516   6.769  15.242 -0.6958  0.3473  0.7774
 2050TIP3   OH227564   3.818   3.570  14.315 -0.1255  0.2424  0.1392
 2050TIP3    H127565   3.733   3.610  14.299  0.8203  2.0751 -0.5708
 2050TIP3    H227566   3.835   3.516  14.238  0.2533  1.5782 -0.7554
 2051TIP3   OH227567   5.760   2.087  11.538  0.3730 -0.5519  0.0656
 2051TIP3    H127568   5.694   2.069  11.472  0.6899 -3.3029  0.3741
 2051TIP3    H227569   5.831   2.129  11.490 -1.0215  1.3030 -0.4959
 2052TIP3   OH227570   6.399   6.541  13.470 -0.4126  0.5385  0.1507
 2052TIP3    H127571   6.319   6.545  13.523 -0.2876 -0.8942  0.5040
 2052TIP3    H227572   6.452   6.614  13.502 -0.3274 -0.2908  2.0971
 2053TIP3   OH227573   3.094   2.663  12.997 -0.2145  0.2632 -0.3295
 2053TIP3    H127574   3.046   2.744  13.013  0.2513  1.1121 -2.8039
 2053TIP3    H227575   3.178   2.691  12.960 -0.3330 -1.3337 -1.9595
 2054TIP3   OH227576   4.772   2.291   4.682  0.0715  0.2537  0.5209
 2054TIP3    H127577   4.743   2.260   4.768  1.4533  0.1805  0.9754
 2054TIP3    H227578   4.856   2.334   4.699  0.5071 -0.0122 -0.8393
 2055TIP3   OH227579   6.395   3.823  10.676 -0.2613  0.2338 -0.2026
 2055TIP3    H127580   6.366   3.735  10.701 -0.7701  0.4171 -0.1334
 2055TIP3    H227581   6.314   3.872  10.663 -0.1953 -0.3805 -4.3179
 2056TIP3   OH227582   5.729   6.383  15.012 -0.1848  0.0170 -0.7055
 2056TIP3    H127583   5.635   6.400  15.012 -0.0904  0.6252  0.2831
 2056TIP3    H227584   5.768   6.468  14.991  0.1261 -0.6141 -3.0056
 2057TIP3   OH227585   5.612   4.037  14.090  0.3693  0.0181  0.1280
 2057TIP3    H127586   5.571   4.052  14.004 -2.3668  0.1740  1.3470
 2057TIP3    H227587   5.599   3.944  14.107 -1.6963  0.4880  1.5027
 2058TIP3   OH227588   2.215   5.066   3.328 -0.0003 -0.1332 -0.0304
 2058TIP3    H127589   2.191   5.120   3.253  0.5812  0.3163  0.0961
 2058TIP3    H227590   2.302   5.032   3.306  0.2316  0.1030  0.4815
 2059TIP3   OH227591   1.811   1.350  12.057  0.6239 -0.4591  0.3506
 2059TIP3    H127592   1.837   1.394  11.976  0.4641  0.1960  0.6460
 2059TIP3    H227593   1.813   1.257  12.036  2.7404 -0.4296  0.2398
 2060TIP3   OH227594   6.568   1.399  11.301 -0.2929 -0.2909 -0.0089
 2060TIP3    H127595   6.622   1.339  11.354 -1.1275 -1.9687 -0.9550
 2060TIP3    H227596   6.629   1.466  11.270  0.9103 -1.2065  0.2939
 2061TIP3   OH227597   3.426   4.692  12.562  0.3872 -0.3180 -0.1671
 2061TIP3    H127598   3.406   4.773  12.609 -2.1488  0.1573 -1.8361
 2061TIP3    H227599   3.511   4.708  12.522  0.9716  0.6091  1.3490
 2062TIP3   OH227600   2.806   4.340   6.666 -0.7996  0.5677  0.1914
 2062TIP3    H127601   2.776   4.378   6.584 -2.0795  0.6774  0.6861
 2062TIP3    H227602   2.772   4.399   6.734  0.1380  0.4190  0.8070
 2063TIP3   OH227603   1.701   0.390  11.862  0.0587 -0.2695  0.4990
 2063TIP3    H127604   1.722   0.336  11.938 -0.8778  0.4968  1.3376
 2063TIP3    H227605   1.651   0.332  11.804 -1.5728 -0.1473  1.7157
 2064TIP3   OH227606   6.311   6.530  11.277  0.3523 -0.7081  0.5455
 2064TIP3    H127607   6.364   6.471  11.331  1.0711 -1.0876 -0.5533
 2064TIP3    H227608   6.263   6.471  11.218  1.2232 -0.2157 -0.6937
 2065TIP3   OH227609   3.271   3.173  12.955  0.0745  0.1638 -0.8479
 2065TIP3    H127610   3.305   3.180  13.044 -2.2807 -1.7772  0.3561
 2065TIP3    H227611   3.339   3.125  12.907  0.5991 -0.4403  0.4435
 2066TIP3   OH227612   0.507   3.381  12.838 -0.0674 -0.2507  0.2220
 2066TIP3    H127613   0.602   3.375  12.833 -0.0108 -1.4678  1.9076
 2066TIP3    H227614   0.475   3.316  12.776  0.1948  0.0885 -0.2710
 2067TIP3   OH227615   2.941   2.688   5.898 -0.2152 -0.2085 -0.1226
 2067TIP3    H127616   3.018   2.725   5.943  0.6498 -2.0955  0.0664
 2067TIP3    H227617   2.941   2.596   5.924 -3.0975 -0.0960  0.5931
 2068TIP3   OH227618   6.282   0.282   5.850  0.2422 -0.2122  0.5179
 2068TIP3    H127619   6.215   0.341   5.815  0.5084  0.4144  1.0452
 2068TIP3    H227620   6.235   0.226   5.913  0.1663  0.0611  0.7044
 2069TIP3   OH227621   2.319   5.223   1.708 -0.4037  0.1697  0.5737
 2069TIP3    H127622   2.325   5.246   1.801  1.2367 -0.3294  0.6180
 2069TIP3    H227623   2.406   5.190   1.686 -1.2405 -1.3074 -0.7281
 2070TIP3   OH227624   1.839   4.295  17.077 -0.4887  0.0592  0.0057
 2070TIP3    H127625   1.923   4.269  17.116  1.5710  2.0294 -2.7320
 2070TIP3    H227626   1.858   4.306  16.984 -3.8397  0.6125 -0.7356
 2071TIP3   OH227627   4.384   0.326  13.139 -0.5920 -0.0772  0.0089
 2071TIP3    H127628   4.468   0.371  13.150 -1.4311  1.4748  0.4444
 2071TIP3    H227629   4.353   0.312  13.229 -0.3928 -1.5062 -0.1185
 2072TIP3   OH227630   6.544   5.842  11.466 -0.4506 -0.2634 -0.3941
 2072TIP3    H127631   6.571   5.818  11.554 -0.0022  1.3597 -0.0617
 2072TIP3    H227632   6.475   5.779  11.444 -0.2980 -0.9323  0.9472
 2073TIP3   OH227633   6.450   1.604  12.261 -0.0282 -0.1827  0.3339
 2073TIP3    H127634   6.424   1.678  12.315  1.4407  0.7181 -0.1315
 2073TIP3    H227635   6.499   1.642  12.188 -0.4492 -1.5061 -0.7048
 2074TIP3   OH227636   5.228   3.566   1.733  0.4658  0.0106  0.2530
 2074TIP3    H127637   5.201   3.622   1.806  1.1187  2.0332 -0.9602
 2074TIP3    H227638   5.268   3.490   1.774 -0.7022  0.2806  2.0011
 2075TIP3   OH227639   0.794   1.472   1.274 -0.4876 -0.0202 -0.4753
 2075TIP3    H127640   0.802   1.457   1.368 -0.8092  1.1009 -0.2557
 2075TIP3    H227641   0.716   1.526   1.265 -0.7944 -0.6067 -1.4469
 2076TIP3   OH227642   5.189   1.473  14.353 -0.3281  0.2015 -0.8365
 2076TIP3    H127643   5.255   1.415  14.316 -1.0177 -1.5827  0.5672
 2076TIP3    H227644   5.141   1.507  14.277  1.8722  1.1957 -1.8498
 2077TIP3   OH227645   6.206   3.150   5.545 -0.1202  0.4979  0.0190
 2077TIP3    H127646   6.258   3.229   5.562  0.5412  0.6823 -2.4436
 2077TIP3    H227647   6.251   3.108   5.471 -1.0613 -1.6480  0.6017
 2078TIP3   OH227648   5.039   1.785  11.890  0.0379 -0.7366  0.1333
 2078TIP3    H127649   5.042   1.846  11.963  0.6446  0.7260 -1.0706
 2078TIP3    H227650   5.102   1.716  11.914  0.9548  0.2207  0.5841
 2079TIP3   OH227651   0.681   6.649   0.809  0.1538  0.1285  0.1930
 2079TIP3    H127652   0.755   6.655   0.869  0.1763 -1.0268  0.3200
 2079TIP3    H227653   0.718   6.669   0.723  0.8143 -1.2015  0.1391
 2080TIP3   OH227654   5.686   5.030   1.506 -0.3893 -0.1522 -0.5675
 2080TIP3    H127655   5.744   5.087   1.455  1.1572 -1.8118 -0.7781
 2080TIP3    H227656   5.658   5.084   1.580 -1.1620  1.6970 -2.1367
 2081TIP3   OH227657   2.389   6.256  12.598 -0.2449  0.2645  0.8038
 2081TIP3    H127658   2.363   6.165  12.614  0.6322 -0.3498 -1.0457
 2081TIP3    H227659   2.482   6.258  12.619  0.4167 -0.0266 -1.7938
 2082TIP3   OH227660   1.003   1.326   4.455  0.4136 -0.1100 -0.4571
 2082TIP3    H127661   0.970   1.333   4.366  0.9058  0.1027 -0.6315
 2082TIP3    H227662   1.077   1.265   4.448  2.1702  1.9193 -0.7265
 2083TIP3   OH227663   0.835   5.342   3.365  0.4614 -0.3236  0.1716
 2083TIP3    H127664   0.885   5.415   3.328  2.1220 -0.8670  1.2302
 2083TIP3    H227665   0.774   5.384   3.426  0.3192  0.2906 -0.3823
 2084TIP3   OH227666   3.598   0.943  16.357  0.0071 -0.9480  0.2185
 2084TIP3    H127667   3.511   0.978  16.379 -0.1195 -0.1974 -1.3081
 2084TIP3    H227668   3.656   0.980  16.423 -0.3511  1.1577 -0.5613
 2085TIP3   OH227669   0.920   6.462  13.154 -0.2314  0.2835  0.2490
 2085TIP3    H127670   0.890   6.377  13.186 -1.8445  1.0630  0.8822
 2085TIP3    H227671   0.861   6.526  13.194  1.9594  1.8891  1.1608
 2086TIP3   OH227672   4.540   0.790  11.279 -0.3273  0.6238  0.1096
 2086TIP3    H127673   4.470   0.731  11.308 -0.5957  0.4004 -0.9573
 2086TIP3    H227674   4.613   0.732  11.257 -0.0006  0.8163  0.6654
 2087TIP3   OH227675   5.997   6.100   4.795  0.1041 -0.3569 -0.1416
 2087TIP3    H127676   5.945   6.088   4.716  2.0465 -2.2678 -1.2172
 2087TIP3    H227677   6.043   6.183   4.781 -2.2904  1.2263  0.7125
 2088TIP3   OH227678   1.826   0.176  10.763  0.2364  0.1633  0.4884
 2088TIP3    H127679   1.899   0.117  10.782 -0.3376 -1.1372 -1.0342
 2088TIP3    H227680   1.850   0.217  10.679 -0.1901  0.7285  0.6383
 2089TIP3   OH227681   1.980   1.309  11.788 -0.3943 -0.3344 -0.1840
 2089TIP3    H127682   1.920   1.235  11.788 -0.5446 -0.2472 -1.6670
 2089TIP3    H227683   2.047   1.286  11.723  1.0174 -0.2733  1.1730
 2090TIP3   OH227684   2.773   3.131  11.770  0.1059  0.7929  1.2900
 2090TIP3    H127685   2.788   3.095  11.683 -1.9817 -2.6859  2.1771
 2090TIP3    H227686   2.697   3.188  11.759  0.7189  1.5118  0.6345
 2091TIP3   OH227687   2.469   1.354  11.322 -0.0806 -0.1987  0.5944
 2091TIP3    H127688   2.519   1.398  11.254 -0.6603 -0.7622 -0.2102
 2091TIP3    H227689   2.536   1.316  11.380  0.4100  0.5567  0.5316
 2092TIP3   OH227690   2.307   4.249  13.368 -0.3388  0.0399  0.5988
 2092TIP3    H127691   2.286   4.253  13.461  0.5450  1.0996  0.7638
 2092TIP3    H227692   2.373   4.180  13.361 -2.1441 -1.7902  0.3715
 2093TIP3   OH227693   6.048   0.010   5.217 -0.0580 -0.6621  0.1476
 2093TIP3    H127694   6.106   0.077   5.253 -2.6331  2.4045 -0.9050
 2093TIP3    H227695   6.078  -0.003   5.127 -0.7298  0.7200 -0.3099
 2094TIP3   OH227696   0.172   2.865   3.255 -0.5779 -1.0389  0.3130
 2094TIP3    H127697   0.267   2.877   3.257 -0.6822  0.7247 -1.7488
 2094TIP3    H227698   0.144   2.879   3.345  0.8416  1.6572  0.4307
 2095TIP3   OH227699   2.498   6.352  10.629 -0.1100 -0.1191  0.1190
 2095TIP3    H127700   2.586   6.334  10.596 -0.2219 -1.7849  0.6374
 2095TIP3    H227701   2.477   6.439  10.595  0.7122 -0.7496 -2.1981
 2096TIP3   OH227702   2.514   1.812   1.570 -0.6696  0.4613  0.1166
 2096TIP3    H127703   2.498   1.860   1.489  2.0114  2.6046  0.7165
 2096TIP3    H227704   2.474   1.866   1.638  0.0127  0.4411  0.5391
 2097TIP3   OH227705   5.346   0.949  16.468 -0.7292  0.2417 -0.1611
 2097TIP3    H127706   5.280   1.011  16.439 -0.9468  0.7622  1.3412
 2097TIP3    H227707   5.427   0.999  16.470 -1.0277  0.7257  1.7092
 2098TIP3   OH227708   0.236   2.317  11.379 -0.3043 -0.5327 -0.1195
 2098TIP3    H127709   0.216   2.257  11.307  0.2630  1.0861 -1.7014
 2098TIP3    H227710   0.183   2.394  11.361  1.6366  0.8430 -0.1555
 2099TIP3   OH227711   5.508   0.315   0.021  0.3265  0.0815  0.0558
 2099TIP3    H127712   5.493   0.314   0.116  2.6766 -0.0285  0.4990
 2099TIP3    H227713   5.434   0.267  -0.016 -0.5027 -0.1005  1.8686
 2100TIP3   OH227714   1.266   2.712  12.245 -0.2033 -0.7832  0.0567
 2100TIP3    H127715   1.303   2.701  12.332 -1.8901 -1.4323  0.7422
 2100TIP3    H227716   1.171   2.717  12.260 -0.4334  0.9792 -1.5636
 2101TIP3   OH227717   1.529   5.885   0.961  0.3653 -0.2436  0.4573
 2101TIP3    H127718   1.449   5.887   1.014  1.2620 -0.0752  1.8426
 2101TIP3    H227719   1.498   5.870   0.872 -1.1500 -1.2575  1.1148
 2102TIP3   OH227720   0.992   2.239  11.487 -0.5187  0.6901  0.5593
 2102TIP3    H127721   0.952   2.247  11.574 -3.5912 -2.3753 -0.3277
 2102TIP3    H227722   1.007   2.145  11.476 -2.3652  0.6443 -2.9605
 2103TIP3   OH227723   4.153   6.479  13.195 -0.1227  0.3863  0.4216
 2103TIP3    H127724   4.172   6.466  13.287 -0.3533  0.6296  0.5037
 2103TIP3    H227725   4.069   6.437  13.181  1.4714 -2.8378 -0.4629
 2104TIP3   OH227726   3.300   0.348   2.420 -0.1229 -0.2338  0.1934
 2104TIP3    H127727   3.342   0.377   2.501 -1.5187 -0.1409  0.9027
 2104TIP3    H227728   3.325   0.256   2.412  0.1003 -0.2193  0.6751
 2105TIP3   OH227729   3.597   1.257  15.200  0.1008  0.3082  0.0704
 2105TIP3    H127730   3.660   1.209  15.146 -2.3601 -1.8768 -1.0889
 2105TIP3    H227731   3.512   1.237  15.161 -1.4320  2.5301  1.9787
 2106TIP3   OH227732   2.977   5.555  11.707  0.1628  0.1567  0.4012
 2106TIP3    H127733   2.924   5.505  11.644  0.2487  1.1144 -0.4538
 2106TIP3    H227734   3.043   5.492  11.737 -1.7046 -1.2123  1.8547
 2107TIP3   OH227735   4.449   2.366  11.324  0.0651 -0.3164  0.3730
 2107TIP3    H127736   4.516   2.426  11.292  1.0862 -1.8937 -0.6168
 2107TIP3    H227737   4.496   2.283  11.337 -2.2836 -2.8128 -4.5471
 2108TIP3   OH227738   2.045   3.197  11.762  0.1902  0.0981 -0.0772
 2108TIP3    H127739   2.061   3.201  11.856  0.1664 -1.3444  0.0050
 2108TIP3    H227740   1.989   3.272  11.744  0.6460  0.7052  0.9561
 2109TIP3   OH227741   6.302   4.431  15.501 -0.0597  0.1394  0.3738
 2109TIP3    H127742   6.354   4.453  15.424 -0.5145  0.3479  0.1230
 2109TIP3    H227743   6.365   4.431  15.573  0.1540  1.1116  0.1929
 2110TIP3   OH227744   6.588   2.134  16.509  0.1733  0.6192 -0.8195
 2110TIP3    H127745   6.656   2.196  16.483 -0.4184  2.9258  2.5468
 2110TIP3    H227746   6.507   2.171  16.472  0.0566  0.8826 -0.3059
 2111TIP3   OH227747   5.377   1.209  12.783  0.5008 -0.3013 -0.6244
 2111TIP3    H127748   5.465   1.231  12.814 -0.1415  0.3273  0.8412
 2111TIP3    H227749   5.331   1.180  12.862 -0.6115 -0.6144 -1.3747
 2112TIP3   OH227750   2.117   4.405  16.186  0.8558  0.2647  0.1518
 2112TIP3    H127751   2.138   4.407  16.092 -1.2442  0.6053 -0.3548
 2112TIP3    H227752   2.124   4.313  16.210  3.7863  0.4211  0.3169
 2113TIP3   OH227753   3.582   2.179   1.860  0.1515  0.2487  0.2253
 2113TIP3    H127754   3.522   2.112   1.893  1.6580 -0.9349  0.6618
 2113TIP3    H227755   3.566   2.255   1.916 -1.4495  0.2212 -0.1521
 2114TIP3   OH227756   0.531   2.162   2.037 -0.0667  0.6294  0.0614
 2114TIP3    H127757   0.564   2.243   1.999 -0.4828  1.3996  1.2735
 2114TIP3    H227758   0.610   2.114   2.065  0.1397  1.4999  1.0449
 2115TIP3   OH227759   4.033   2.097  13.902 -0.1222 -0.2944 -0.1501
 2115TIP3    H127760   4.003   2.008  13.888  0.0716 -0.8266  2.3936
 2115TIP3    H227761   4.123   2.097  13.870  0.1076 -1.2061  0.4780
 2116TIP3   OH227762   4.648   5.995  12.837  0.0597 -0.9448  0.2747
 2116TIP3    H127763   4.609   5.908  12.850 -1.6299 -0.0004  2.2731
 2116TIP3    H227764   4.631   6.016  12.746 -0.3842 -2.3165  0.0196
 2117TIP3   OH227765   0.849   6.317   0.256  0.5145  0.7771  0.3133
 2117TIP3    H127766   0.888   6.231   0.241  0.9016  0.5843  2.1195
 2117TIP3    H227767   0.764   6.313   0.212  1.1191 -0.0011 -0.8270
 2118TIP3   OH227768   0.163   6.584  13.723 -0.3930  0.3142 -1.0569
 2118TIP3    H127769   0.241   6.529  13.731  0.5990  1.6410 -1.2040
 2118TIP3    H227770   0.098   6.528  13.680  0.5894 -0.7149 -1.2524
 2119TIP3   OH227771   6.340   6.026   2.048  0.1708  0.6225  0.9795
 2119TIP3    H127772   6.416   6.042   2.105  0.3245  0.1576  0.9072
 2119TIP3    H227773   6.301   5.946   2.082  0.3955  0.2170  0.2928
 2120TIP3   OH227774   4.154   4.207  15.519 -0.0694  0.1748  0.4786
 2120TIP3    H127775   4.239   4.172  15.546 -0.6269 -0.9130  0.9099
 2120TIP3    H227776   4.097   4.130  15.516 -0.4045  0.4554 -2.4921
 2121TIP3   OH227777   6.065   3.569   3.033 -0.9660 -0.4954  0.2100
 2121TIP3    H127778   6.109   3.487   3.010  0.1745 -0.3468  1.7654
 2121TIP3    H227779   5.978   3.541   3.064 -0.5030 -1.1479  0.9490
 2122TIP3   OH227780   5.617   6.654   1.172 -0.1272  0.6155  0.7102
 2122TIP3    H127781   5.633   6.669   1.079 -2.8518  1.0792  0.2248
 2122TIP3    H227782   5.563   6.575   1.175  0.6754  0.0791  1.9948
 2123TIP3   OH227783   2.610   0.316  13.026 -0.0159 -0.0811 -0.4577
 2123TIP3    H127784   2.547   0.355  13.086  0.5985 -0.0492  0.1833
 2123TIP3    H227785   2.604   0.368  12.947  0.9637  1.5254  0.4542
 2124TIP3   OH227786   0.489   4.208  14.506 -0.1335  0.2354 -0.2301
 2124TIP3    H127787   0.486   4.294  14.546  1.6278  2.1252 -3.6937
 2124TIP3    H227788   0.464   4.223  14.414  1.4311 -2.6987 -1.2664
 2125TIP3   OH227789   0.275   3.463   5.215 -0.2214 -0.5171  0.7391
 2125TIP3    H127790   0.359   3.419   5.229 -0.8092 -2.6958 -1.7602
 2125TIP3    H227791   0.212   3.392   5.204 -2.2320  1.0510  1.4020
 2126TIP3   OH227792   6.293   1.294  16.838  0.3229  0.2318 -0.6536
 2126TIP3    H127793   6.370   1.290  16.895  0.6792 -1.5873 -1.1977
 2126TIP3    H227794   6.232   1.352  16.884  1.5043  0.6751  0.4166
 2127TIP3   OH227795   4.556   3.177   0.637  0.2518  0.6810  0.1446
 2127TIP3    H127796   4.509   3.229   0.573 -0.0718  0.6124  0.3242
 2127TIP3    H227797   4.648   3.195   0.620  0.6110 -3.0126 -3.5963
 2128TIP3   OH227798   4.831   3.361  12.489  0.2857 -0.3205 -0.6504
 2128TIP3    H127799   4.851   3.425  12.421 -0.5661  1.7808  0.9725
 2128TIP3    H227800   4.917   3.339  12.527  0.4063  3.2645  1.6071
 2129TIP3   OH227801   5.619   4.077   2.320  0.0555  0.2320  0.3494
 2129TIP3    H127802   5.525   4.097   2.314  0.1221  0.5722  0.3959
 2129TIP3    H227803   5.625   4.009   2.387 -0.1611  0.1993  0.3356
 2130TIP3   OH227804   4.885   1.836  16.088  0.2997 -0.2182  0.3761
 2130TIP3    H127805   4.837   1.782  16.025 -0.3819 -2.9755  3.0404
 2130TIP3    H227806   4.977   1.815  16.072  0.3141  0.6290 -0.8877
 2131TIP3   OH227807   3.793   1.287   2.061 -0.0841 -1.0415 -0.1589
 2131TIP3    H127808   3.700   1.288   2.041 -0.1937 -0.3883  0.3604
 2131TIP3    H227809   3.813   1.376   2.089  1.2578 -0.3782 -2.8565
 2132TIP3   OH227810   2.145   1.901   3.972 -0.2157 -0.1989  0.5988
 2132TIP3    H127811   2.229   1.855   3.968 -0.4647 -0.6183  0.0035
 2132TIP3    H227812   2.168   1.994   3.975  0.2610 -0.1889 -1.7547
 2133TIP3   OH227813   0.031   5.248  10.235 -0.3596  0.6962  0.0930
 2133TIP3    H127814   0.125   5.265  10.237 -0.4121  1.2452 -1.1737
 2133TIP3    H227815  -0.006   5.319  10.183 -1.1192 -0.9234 -1.7362
 2134TIP3   OH227816   2.067   3.914   6.451 -0.6029  0.1159  0.5956
 2134TIP3    H127817   2.001   3.980   6.471 -0.8432  0.2750 -0.6733
 2134TIP3    H227818   2.027   3.831   6.477 -1.9107  0.0432 -1.4289
 2135TIP3   OH227819   0.959   3.824   0.174  0.9105 -0.2151  0.1160
 2135TIP3    H127820   1.045   3.783   0.182  0.6691 -0.7724 -0.1157
 2135TIP3    H227821   0.914   3.773   0.107 -0.0702 -0.7475  1.1350
 2136TIP3   OH227822   4.993   6.222  16.752 -0.1832  0.2304 -0.1487
 2136TIP3    H127823   4.970   6.277  16.826 -0.5361 -0.7248  0.4763
 2136TIP3    H227824   4.910   6.200  16.711 -0.0155  0.4789 -0.6265
 2137TIP3   OH227825   5.286   5.724  12.489 -0.3293 -0.3589 -0.2105
 2137TIP3    H127826   5.313   5.772  12.410  1.2844  0.3210  0.7051
 2137TIP3    H227827   5.265   5.793  12.552  1.6706 -0.7687  1.0083
 2138TIP3   OH227828   3.883   4.306   3.958 -0.1505  0.0617 -0.3295
 2138TIP3    H127829   3.789   4.318   3.968  0.1752  1.7186  1.4787
 2138TIP3    H227830   3.900   4.324   3.866 -1.6936 -1.2133 -0.9095
 2139TIP3   OH227831   0.567   3.110  13.078 -0.8815 -0.4596  0.1771
 2139TIP3    H127832   0.598   3.198  13.099  0.1934  0.0131 -2.9083
 2139TIP3    H227833   0.646   3.056  13.082 -1.3716 -1.1495  1.1061
 2140TIP3   OH227834   4.162   4.789   3.997 -0.3745  0.2797  0.0380
 2140TIP3    H127835   4.101   4.848   4.040  0.5484  0.9834  0.4169
 2140TIP3    H227836   4.207   4.844   3.933 -0.0618 -0.1983 -0.1618
 2141TIP3   OH227837   3.356   0.548  13.990  1.1578  0.6240  0.3575
 2141TIP3    H127838   3.308   0.469  14.017  2.3859  0.5328  2.4582
 2141TIP3    H227839   3.336   0.613  14.057  2.9669  0.9414  0.6544
 2142TIP3   OH227840   2.395   5.731   2.799 -0.4577 -0.2388 -0.3643
 2142TIP3    H127841   2.375   5.765   2.886  0.8709  0.4083 -0.2730
 2142TIP3    H227842   2.347   5.649   2.793 -0.0981 -0.5935  1.2164
 2143TIP3   OH227843   3.404   4.157   0.190  0.0003 -0.2835 -0.2980
 2143TIP3    H127844   3.448   4.225   0.140  1.8529 -0.2336  1.2519
 2143TIP3    H227845   3.417   4.182   0.282 -2.2937 -0.9313  0.2706
 2144TIP3   OH227846   6.274   1.811   1.255  0.2678  0.4698  0.0092
 2144TIP3    H127847   6.241   1.821   1.345 -1.0402  0.5809 -0.4588
 2144TIP3    H227848   6.299   1.899   1.229  0.0971  0.5353  0.0640
 2145TIP3   OH227849   0.155   0.290  14.970 -0.2184  0.0651  0.3250
 2145TIP3    H127850   0.103   0.260  15.045 -0.6152 -0.2402 -0.0668
 2145TIP3    H227851   0.093   0.293  14.897 -0.1150  1.5304  0.2721
 2146TIP3   OH227852   6.231   3.458  17.027 -0.2261 -0.4142  0.1250
 2146TIP3    H127853   6.205   3.413  17.107  1.7797 -2.0290 -0.0514
 2146TIP3    H227854   6.258   3.388  16.967 -1.1623  0.7834 -1.7997
 2147TIP3   OH227855   4.727   4.705   4.212  0.0731  0.7116 -0.1428
 2147TIP3    H127856   4.664   4.646   4.172  0.4627 -0.2556  0.6357
 2147TIP3    H227857   4.811   4.683   4.170  0.3889  0.0436  0.7976
 2148TIP3   OH227858   1.626   5.979  15.083 -0.0274  0.0592  0.0150
 2148TIP3    H127859   1.700   5.976  15.022 -0.7301  2.5973 -1.0946
 2148TIP3    H227860   1.656   5.928  15.158  2.5852  0.4138 -0.6681
 2149TIP3   OH227861   2.188   5.100   2.356  0.1374 -0.2775 -0.2036
 2149TIP3    H127862   2.196   5.024   2.414 -0.6204 -0.0558  0.2072
 2149TIP3    H227863   2.233   5.074   2.276  0.8162 -0.7542  0.3244
 2150TIP3   OH227864   4.498   1.791  13.159  0.1493 -0.0778  0.7273
 2150TIP3    H127865   4.432   1.775  13.091  1.8285  0.4372 -1.1202
 2150TIP3    H227866   4.468   1.740  13.234 -1.5411 -1.0601 -0.5393
 2151TIP3   OH227867   5.277   5.308   5.216  0.1384  0.0466 -0.1545
 2151TIP3    H127868   5.276   5.263   5.300  1.4569  1.3750  0.6175
 2151TIP3    H227869   5.200   5.274   5.170 -0.2930 -1.1264  1.3454
 2152TIP3   OH227870   6.003   4.035  13.112  0.0617 -0.4696 -0.2270
 2152TIP3    H127871   5.913   4.062  13.125  0.4603  0.8855 -0.1072
 2152TIP3    H227872   5.999   3.964  13.048 -1.1227 -0.7791  0.1829
 2153TIP3   OH227873   6.226   5.149  13.388 -0.2294 -0.5391  0.1838
 2153TIP3    H127874   6.179   5.113  13.462  1.1754 -0.2316  1.2602
 2153TIP3    H227875   6.265   5.073  13.345 -1.8176 -0.8206 -0.8465
 2154TIP3   OH227876   2.872   0.844   3.164  0.3979  0.3536  0.1322
 2154TIP3    H127877   2.939   0.877   3.104  0.6072  0.8541  0.6351
 2154TIP3    H227878   2.796   0.901   3.147  0.5766  0.7369  0.5980
 2155TIP3   OH227879   0.369   6.628  14.031  0.1361 -0.5567 -0.2879
 2155TIP3    H127880   0.328   6.586  14.107 -2.1476  0.5488 -0.8270
 2155TIP3    H227881   0.416   6.703  14.067  1.1997 -1.4594  0.2703
 2156TIP3   OH227882   2.077   5.783  10.753  0.2240 -0.5451  0.3222
 2156TIP3    H127883   2.146   5.771  10.687  1.3960  0.6098  1.2867
 2156TIP3    H227884   2.012   5.716  10.732  1.3597 -1.2953 -0.9759
 2157TIP3   OH227885   3.656   6.287   3.685 -0.2856  0.0326  0.0325
 2157TIP3    H127886   3.583   6.349   3.686  0.9065  1.7872 -3.5767
 2157TIP3    H227887   3.714   6.316   3.755 -0.9713  1.4223  0.0429
 2158TIP3   OH227888   1.478   4.689   5.726  0.1525  0.4633 -0.0072
 2158TIP3    H127889   1.418   4.699   5.652 -0.3840  0.7028  0.4509
 2158TIP3    H227890   1.431   4.728   5.800  1.0046  0.9315  0.2942
 2159TIP3   OH227891   0.688   5.768   3.501  0.4526  0.1183 -0.2592
 2159TIP3    H127892   0.783   5.774   3.487  0.3587 -1.9181 -2.4554
 2159TIP3    H227893   0.678   5.772   3.596  2.8424 -0.4701  0.1018
 2160TIP3   OH227894   3.605   2.489   1.102 -0.0214  0.2973 -0.0552
 2160TIP3    H127895   3.511   2.500   1.089 -0.2512 -1.5776 -0.2206
 2160TIP3    H227896   3.641   2.483   1.014  0.3672  1.6484 -0.0086
 2161TIP3   OH227897   3.965   1.962   6.471 -0.3152 -0.5001 -0.1037
 2161TIP3    H127898   3.968   2.046   6.517 -0.0546 -0.3678 -0.3611
 2161TIP3    H227899   4.035   1.910   6.511  0.1533 -0.2565 -0.5941
 2162TIP3   OH227900   0.964   0.571   3.199 -0.0310  0.0203 -0.4552
 2162TIP3    H127901   0.876   0.535   3.200 -0.1200  0.2372 -0.1764
 2162TIP3    H227902   1.012   0.518   3.135 -0.7311  0.7660 -1.6515
 2163TIP3   OH227903   2.107   2.003   3.071  0.3177 -0.0715 -0.2426
 2163TIP3    H127904   2.185   1.951   3.049  0.7522  0.6018 -0.3433
 2163TIP3    H227905   2.112   2.013   3.166  1.8657  2.2189 -0.4782
 2164TIP3   OH227906   6.189   6.046  11.168  0.2373 -0.6539 -0.3734
 2164TIP3    H127907   6.167   5.955  11.149  0.9825 -0.6717 -1.1778
 2164TIP3    H227908   6.270   6.041  11.220  0.2443 -0.4465 -0.3633
 2165TIP3   OH227909   3.878   1.447  12.400  0.5595  0.2757  0.0767
 2165TIP3    H127910   3.792   1.438  12.440  0.7884 -0.0011  0.5224
 2165TIP3    H227911   3.882   1.379  12.333 -0.3833  1.6740 -1.4708
 2166TIP3   OH227912   3.324   6.691   5.657  0.0388 -0.4843  0.2135
 2166TIP3    H127913   3.360   6.745   5.587  0.1124 -1.5555 -0.6033
 2166TIP3    H227914   3.314   6.751   5.731 -1.4427  1.0484 -1.1295
 2167TIP3   OH227915   1.392   4.061   6.241 -0.1950 -0.2241 -0.2387
 2167TIP3    H127916   1.483   4.090   6.239  0.5150 -1.8648  2.3653
 2167TIP3    H227917   1.356   4.101   6.320 -1.1465 -1.0875 -0.2181
 2168TIP3   OH227918   6.657   0.037  12.088 -0.2618  0.1434 -0.6560
 2168TIP3    H127919   6.715   0.077  12.023  0.2785 -1.4602 -1.2160
 2168TIP3    H227920   6.569   0.059  12.058  0.0119  0.9960 -0.8698
 2169TIP3   OH227921   4.612   2.475  14.565  0.2066  0.5824  0.2245
 2169TIP3    H127922   4.697   2.474  14.609 -0.4797  0.9377  1.6346
 2169TIP3    H227923   4.594   2.567  14.549 -0.0705  0.5431  0.2950
 2170TIP3   OH227924   0.229   3.015  12.368 -0.1520 -0.4037  0.1673
 2170TIP3    H127925   0.203   3.003  12.459 -0.7799  1.2458  0.2407
 2170TIP3    H227926   0.309   3.066  12.372 -0.3709 -0.0228 -0.2085
 2171TIP3   OH227927   2.716   6.700   3.609  0.2190  0.1420 -0.0366
 2171TIP3    H127928   2.707   6.645   3.686  2.6252 -0.8481 -0.3764
 2171TIP3    H227929   2.790   6.663   3.561 -0.2722  1.6092 -2.0761
 2172TIP3   OH227930   3.222   1.964   3.586 -0.7732  0.1460 -0.4894
 2172TIP3    H127931   3.192   2.055   3.575 -0.4311  0.4001  0.5391
 2172TIP3    H227932   3.302   1.972   3.637 -0.9618 -0.7680 -0.0403
 2173TIP3   OH227933   4.166   5.239  14.350  0.1673 -0.0939 -0.1254
 2173TIP3    H127934   4.172   5.159  14.402 -1.0920  0.6927  1.2870
 2173TIP3    H227935   4.075   5.268  14.359  0.6522  1.6406 -0.3923
 2174TIP3   OH227936   4.024   6.621   4.122  0.0373  0.3945  0.0896
 2174TIP3    H127937   4.103   6.576   4.153 -0.4951 -0.7582 -0.2096
 2174TIP3    H227938   4.052   6.713   4.115  1.1366  0.1385  0.7013
 2175TIP3   OH227939   1.258   3.749   0.679 -0.8254 -0.3423  0.9448
 2175TIP3    H127940   1.271   3.843   0.663 -0.8268  0.0785  3.1418
 2175TIP3    H227941   1.171   3.744   0.718 -0.5001 -1.1545  1.5870
 2176TIP3   OH227942   4.072   4.814  16.513 -0.2001 -0.3198 -0.6410
 2176TIP3    H127943   4.102   4.891  16.561 -0.8841 -1.4469  1.7831
 2176TIP3    H227944   4.138   4.747  16.530 -0.9194 -1.0093 -0.4788
 2177TIP3   OH227945   6.226   2.630  15.094 -0.0977  0.7305 -0.5498
 2177TIP3    H127946   6.181   2.619  15.010  0.0543  0.3482 -0.5867
 2177TIP3    H227947   6.310   2.585  15.081 -0.3935 -0.0080  0.0604
 2178TIP3   OH227948   1.274   1.771   4.138  0.2199 -0.1141 -0.1902
 2178TIP3    H127949   1.310   1.859   4.135 -1.0450  0.5171  1.4842
 2178TIP3    H227950   1.193   1.776   4.086  1.2507 -0.9194 -1.9759
 2179TIP3   OH227951   2.318   3.633   0.083  0.4848  0.0007 -0.0659
 2179TIP3    H127952   2.293   3.564   0.145  1.0829 -0.7212 -0.6117
 2179TIP3    H227953   2.333   3.710   0.138 -1.9853  0.2430  0.3966
 2180TIP3   OH227954   6.385   3.493  13.231 -0.3877  0.2454  0.6619
 2180TIP3    H127955   6.308   3.438  13.242  1.0033 -1.4388  2.6997
 2180TIP3    H227956   6.456   3.431  13.215  0.5834  1.7615 -1.3019
 2181TIP3   OH227957   3.391   3.714  14.006 -0.8124  0.1568 -0.1070
 2181TIP3    H127958   3.411   3.621  13.997 -1.2512  0.1626 -1.2415
 2181TIP3    H227959   3.382   3.727  14.100  0.7403 -0.6218  0.1885
 2182TIP3   OH227960   0.134   1.625   1.801  0.1697  0.0001  0.1815
 2182TIP3    H127961   0.222   1.654   1.826 -1.1021  1.8037  3.0854
 2182TIP3    H227962   0.123   1.541   1.846  0.0632  0.2335  0.5886
 2183TIP3   OH227963   4.472   3.407  12.253  0.0052  0.2762  0.2910
 2183TIP3    H127964   4.474   3.472  12.324 -0.4121 -1.1807  1.7011
 2183TIP3    H227965   4.523   3.333  12.287 -2.7244 -1.6984  0.4156
 2184TIP3   OH227966   0.074   4.819  14.602 -0.1606 -0.1379  0.1384
 2184TIP3    H127967  -0.004   4.873  14.585 -1.3260 -2.0148 -0.7374
 2184TIP3    H227968   0.071   4.751  14.535  2.7038  0.1763 -0.4219
 2185TIP3   OH227969   2.185   1.499  15.958  0.1435  0.2899 -0.2102
 2185TIP3    H127970   2.249   1.498  15.887  0.2606 -1.3765 -0.1287
 2185TIP3    H227971   2.103   1.526  15.917  0.5786  0.9968 -0.6216
 2186TIP3   OH227972   5.815   4.608  14.676  0.0945  0.6095 -0.1405
 2186TIP3    H127973   5.907   4.598  14.701  0.1562 -0.5734 -0.7839
 2186TIP3    H227974   5.809   4.565  14.591 -1.7828 -2.6429  1.4279
 2187TIP3   OH227975   3.121   5.305  14.987 -0.2237 -0.0518 -0.5080
 2187TIP3    H127976   3.185   5.238  14.964  1.4827  1.4757 -0.4050
 2187TIP3    H227977   3.107   5.293  15.081  0.2847 -0.0950 -0.4346
 2188TIP3   OH227978   1.564   4.683  15.471  0.6639 -0.3520 -0.2006
 2188TIP3    H127979   1.601   4.660  15.556 -1.4612 -1.0854  0.5797
 2188TIP3    H227980   1.617   4.635  15.407  2.9591  1.0145  0.5411
 2189TIP3   OH227981   4.933   2.555  16.256 -0.1047  0.3933  0.3104
 2189TIP3    H127982   5.015   2.561  16.304  0.2884  1.0799 -0.4244
 2189TIP3    H227983   4.893   2.642  16.266 -0.7551  0.0564  0.6855
 2190TIP3   OH227984   5.581   3.691  16.831 -0.0980 -0.1774 -0.5592
 2190TIP3    H127985   5.636   3.637  16.773  1.4871  1.5799 -0.7770
 2190TIP3    H227986   5.566   3.771  16.782 -1.5349  0.0275  0.1785
 2191TIP3   OH227987   6.153   4.728   2.417 -0.3676 -0.5770 -0.4122
 2191TIP3    H127988   6.076   4.773   2.382 -1.9327 -2.9620 -0.2589
 2191TIP3    H227989   6.118   4.673   2.487  1.3899 -2.2401 -0.7827
 2192TIP3   OH227990   1.204   1.624  11.553 -0.4697 -0.2518 -0.0276
 2192TIP3    H127991   1.290   1.664  11.538 -0.7460 -0.2282 -1.8628
 2192TIP3    H227992   1.159   1.683  11.612  0.2909  0.4669 -0.1556
 2193TIP3   OH227993   3.942   3.492   0.842  0.1766  0.1701  0.1722
 2193TIP3    H127994   4.008   3.450   0.787 -0.0803  0.6588 -0.5254
 2193TIP3    H227995   3.881   3.421   0.864  0.7202 -0.1990  0.5001
 2194TIP3   OH227996   4.579   4.540  14.224 -0.0686  0.6731  0.4161
 2194TIP3    H127997   4.582   4.516  14.131  0.3035 -0.3719  0.6848
 2194TIP3    H227998   4.670   4.562  14.245 -0.1233  0.7438  0.5740
 2195TIP3   OH227999   5.122   1.832  14.608  0.4441 -0.0207 -0.1351
 2195TIP3    H128000   5.033   1.828  14.641  0.6521  0.0726  0.4427
 2195TIP3    H228001   5.157   1.744  14.623  0.8012  0.2464  0.6524
 2196TIP3   OH228002   2.932   4.547  12.505  0.1745 -0.5819 -0.9716
 2196TIP3    H128003   2.870   4.605  12.549  0.3243 -1.1351  0.0068
 2196TIP3    H228004   3.016   4.591  12.514  0.4685 -1.3918  0.6978
 2197TIP3   OH228005   0.721   0.562   4.061 -0.7473 -0.3546  0.1133
 2197TIP3    H128006   0.757   0.643   4.025  1.7284 -1.4471 -0.0712
 2197TIP3    H228007   0.719   0.502   3.986 -0.2246 -1.1640  0.7250
 2198TIP3   OH228008   4.586   0.044  15.773 -0.2546  0.1140 -0.2696
 2198TIP3    H128009   4.505   0.064  15.727 -0.0257 -0.2469 -0.8531
 2198TIP3    H228010   4.581   0.093  15.855 -0.2979  1.4728 -1.0460
 2199TIP3   OH228011   3.525   2.597  15.424  0.2797 -0.0106  0.4643
 2199TIP3    H128012   3.512   2.573  15.516  0.4557  1.2716  0.8387
 2199TIP3    H228013   3.538   2.691  15.426  2.2854 -0.2242 -0.6806
 2200TIP3   OH228014   4.497   6.775  12.018  0.1026 -0.4981 -0.1513
 2200TIP3    H128015   4.464   6.706  12.074 -0.0741  0.3402  0.8001
 2200TIP3    H228016   4.571   6.735  11.971  1.5808 -0.6644  2.1723
 2201TIP3   OH228017   2.275   3.074  11.311 -0.7921  0.1114 -0.3462
 2201TIP3    H128018   2.243   3.136  11.245 -1.4418  0.7501  0.5432
 2201TIP3    H228019   2.251   3.114  11.395 -0.0989 -0.7479  0.2755
 2202TIP3   OH228020   4.590   1.120   3.716 -0.4692 -0.0881  0.1627
 2202TIP3    H128021   4.620   1.117   3.807  0.7748 -0.2888 -0.2311
 2202TIP3    H228022   4.501   1.085   3.718 -0.2334 -0.6489  1.2133
 2203TIP3   OH228023   2.261   0.546   1.438 -0.0358 -0.0900 -0.3036
 2203TIP3    H128024   2.335   0.530   1.379 -0.3443  0.0060 -0.7215
 2203TIP3    H228025   2.264   0.473   1.500  0.5256  0.0180 -0.1928
 2204TIP3   OH228026   4.739   2.062  16.196  0.2827 -0.0922 -0.3986
 2204TIP3    H128027   4.775   1.975  16.178 -0.0013  0.2708 -3.1634
 2204TIP3    H228028   4.644   2.049  16.196  0.2197  0.3355 -1.6172
 2205TIP3   OH228029   3.221   5.214   5.465 -0.5933 -0.5782  0.1897
 2205TIP3    H128030   3.184   5.139   5.419 -0.2185 -1.5066  1.3635
 2205TIP3    H228031   3.148   5.250   5.515 -0.1682 -1.8751  1.8107
 2206TIP3   OH228032   5.011   0.160  11.523 -0.3953 -0.3683 -0.6491
 2206TIP3    H128033   4.951   0.217  11.474 -1.7339 -0.7720  0.4665
 2206TIP3    H228034   4.969   0.074  11.521 -0.2950 -0.4813  0.8380
 2207TIP3   OH228035   2.445   5.334   0.547  0.1182  0.4011 -0.3234
 2207TIP3    H128036   2.408   5.418   0.522  1.0785  1.1045  0.5551
 2207TIP3    H228037   2.530   5.355   0.587 -0.1103 -0.8783  0.9422
 2208TIP3   OH228038   2.697   1.698   2.054  0.0794  0.6649  0.5327
 2208TIP3    H128039   2.674   1.788   2.078 -1.9419  0.4581 -0.4264
 2208TIP3    H228040   2.624   1.668   2.001  0.2028 -1.9156  1.6809
 2209TIP3   OH228041   4.669   3.890  16.278  0.1955 -0.1350  0.4129
 2209TIP3    H128042   4.614   3.887  16.356  0.3421  0.5534  0.5491
 2209TIP3    H228043   4.737   3.825  16.294  0.9408  0.8556  1.4174
 2210TIP3   OH228044   5.972   6.072   6.117  0.7515  0.1571  0.0417
 2210TIP3    H128045   6.042   6.019   6.078  1.8503 -1.3581  3.6631
 2210TIP3    H228046   6.018   6.135   6.172 -0.5690 -1.3229  3.0726
 2211TIP3   OH228047   2.281   3.388  12.492  0.1053  0.0164  0.6979
 2211TIP3    H128048   2.212   3.335  12.531 -0.8235  0.1400 -0.7222
 2211TIP3    H228049   2.248   3.412  12.405  2.4476 -1.0376 -0.5993
 2212TIP3   OH228050   6.051   3.212  13.739 -0.3252  0.1179  1.1553
 2212TIP3    H128051   6.096   3.182  13.818 -2.2558 -0.2727  2.1788
 2212TIP3    H228052   6.011   3.133  13.702  0.7199  0.2560 -0.3774
 2213TIP3   OH228053   5.940   1.054  15.791 -0.0488 -0.3662  0.0884
 2213TIP3    H128054   5.966   1.144  15.771 -1.5348  0.7048  2.5016
 2213TIP3    H228055   5.955   1.045  15.885 -1.3320 -2.1323  0.1750
 2214TIP3   OH228056   5.834   5.474  15.777  0.1530  0.3019 -0.5361
 2214TIP3    H128057   5.827   5.565  15.806 -1.4465  0.2812 -0.7478
 2214TIP3    H228058   5.848   5.479  15.683  3.5934  0.3367 -0.1423
 2215TIP3   OH228059   3.392   1.387   6.270 -0.4016  0.2594  0.7652
 2215TIP3    H128060   3.435   1.443   6.334  1.5277 -1.2685  0.8886
 2215TIP3    H228061   3.310   1.433   6.249 -1.0583  0.9042  4.1699
 2216TIP3   OH228062   5.400   0.596  13.288 -0.3619  0.9232 -0.2363
 2216TIP3    H128063   5.306   0.611  13.291 -0.3492  1.3774 -1.4797
 2216TIP3    H228064   5.409   0.513  13.241 -0.0938  1.8569 -1.9047
 2217TIP3   OH228065   2.589   6.654   2.603 -0.0727  0.4492 -0.2643
 2217TIP3    H128066   2.664   6.611   2.563  1.4558  2.1379  0.6416
 2217TIP3    H228067   2.616   6.746   2.612 -1.8770  0.9158  0.9412
 2218TIP3   OH228068   3.925   4.753   1.180 -0.1251  0.6150 -0.3855
 2218TIP3    H128069   3.964   4.840   1.186  1.8683 -0.2676  0.4618
 2218TIP3    H228070   3.986   4.703   1.125 -0.1331 -0.7832  0.8187
 2219TIP3   OH228071   5.794   0.590  15.941 -0.0512  0.0143  0.2046
 2219TIP3    H128072   5.709   0.618  15.975 -0.9237 -1.2571 -0.8303
 2219TIP3    H228073   5.792   0.615  15.849  0.9976  0.5925  0.3262
 2220TIP3   OH228074   6.535   5.039   2.318 -0.0423 -0.3701  0.3313
 2220TIP3    H128075   6.521   4.985   2.241 -1.8200  1.6377 -0.8748
 2220TIP3    H228076   6.491   4.992   2.389 -0.5419 -1.0519 -0.4208
 2221TIP3   OH228077   2.100   0.309  11.438 -0.2277  0.3654 -0.0153
 2221TIP3    H128078   2.141   0.371  11.499  0.1026  0.9530 -0.8197
 2221TIP3    H228079   2.174   0.267  11.393 -0.4589 -0.3785  0.2802
 2222TIP3   OH228080   1.071   1.150  14.007 -0.1347 -0.6229  0.3635
 2222TIP3    H128081   1.023   1.127  13.927  0.7315  2.2677 -1.1628
 2222TIP3    H228082   1.162   1.127  13.987  0.2250  0.8844  0.0655
 2223TIP3   OH228083   6.551   2.407   2.286  0.0362 -0.1170  0.7281
 2223TIP3    H128084   6.552   2.383   2.194 -2.6659 -1.4387  0.9509
 2223TIP3    H228085   6.575   2.500   2.287 -1.2314  0.2876 -1.4511
 2224TIP3   OH228086   4.125   0.416  13.481 -0.0930  0.0295 -0.5509
 2224TIP3    H128087   4.201   0.362  13.458 -1.0763 -0.9380 -1.6900
 2224TIP3    H228088   4.143   0.501  13.441  2.1355  1.1535  2.4391
 2225TIP3   OH228089   2.233   4.680   3.540  0.5337  0.6674 -0.4243
 2225TIP3    H128090   2.209   4.770   3.517  0.4374  0.4891 -1.0100
 2225TIP3    H228091   2.163   4.626   3.506  0.4275  0.3926  0.2195
 2226TIP3   OH228092   1.294   3.417   2.323  0.2760  0.1642  0.1369
 2226TIP3    H128093   1.236   3.376   2.388  2.0960 -0.9217  1.1551
 2226TIP3    H228094   1.281   3.364   2.244 -0.9314  0.6322  0.0047
 2227TIP3   OH228095   1.246   3.359  14.832 -0.1925 -0.4339 -0.2281
 2227TIP3    H128096   1.306   3.358  14.757  1.4322 -1.4112  1.0268
 2227TIP3    H228097   1.191   3.282  14.820  0.8595 -1.2782  0.1484
 2228TIP3   OH228098   1.280   2.179   3.696  0.3012 -0.1282 -0.1949
 2228TIP3    H128099   1.194   2.202   3.661  0.4689 -0.4456 -0.8320
 2228TIP3    H228100   1.294   2.241   3.768 -2.1044 -2.4303  2.5238
 2229TIP3   OH228101   0.258   4.818   0.709  0.6358 -0.2166  0.6857
 2229TIP3    H128102   0.193   4.776   0.765  0.4065 -1.7274 -0.6360
 2229TIP3    H228103   0.302   4.881   0.766  0.2600 -1.5095  2.4853
 2230TIP3   OH228104   5.715   2.930  13.898  0.5021 -0.3656  0.0199
 2230TIP3    H128105   5.731   2.873  13.973 -1.2781  0.1586  0.8306
 2230TIP3    H228106   5.678   3.010  13.935  0.0046  0.0862 -1.3779
 2231TIP3   OH228107   6.814   1.167   5.058 -0.3549  0.0269 -0.7087
 2231TIP3    H128108   6.874   1.112   5.107 -1.6049 -1.3150 -0.6127
 2231TIP3    H228109   6.869   1.211   4.993  0.5739 -2.0487 -1.3946
 2232TIP3   OH228110   4.208   6.600  15.372  1.0401  0.1405  0.1288
 2232TIP3    H128111   4.155   6.537  15.420  1.2655  0.2213  0.4846
 2232TIP3    H228112   4.265   6.547  15.316  1.0487  0.0352  0.2383
 2233TIP3   OH228113   1.326   5.577  13.977 -0.5137 -0.0238 -0.5110
 2233TIP3    H128114   1.344   5.668  13.997  2.4722  0.1688 -3.2774
 2233TIP3    H228115   1.314   5.575  13.882 -0.0093 -2.5186 -0.5975
 2234TIP3   OH228116   1.990   3.488   3.489  0.8071  0.4847  0.2983
 2234TIP3    H128117   2.044   3.437   3.550 -0.8775  0.0711  1.5288
 2234TIP3    H228118   1.936   3.543   3.546 -1.3488 -0.4435 -0.7436
 2235TIP3   OH228119   2.745   6.063   2.878  0.1004 -0.3536  0.0259
 2235TIP3    H128120   2.789   6.108   2.951  0.1861 -2.0467  1.0792
 2235TIP3    H228121   2.690   5.997   2.921  0.0847 -1.3341 -1.4471
 2236TIP3   OH228122   0.131   0.319   1.692  0.5879  0.6255 -0.4580
 2236TIP3    H128123   0.124   0.339   1.599 -0.1643 -0.4358 -0.6312
 2236TIP3    H228124   0.042   0.323   1.725  0.6706 -0.4209 -0.0798
 2237TIP3   OH228125   2.416   2.119   3.009  0.5388 -0.1396  0.5204
 2237TIP3    H128126   2.489   2.140   2.951 -0.5044 -0.3425 -0.9224
 2237TIP3    H228127   2.355   2.070   2.954  0.3096 -1.9798  2.2765
 2238TIP3   OH228128   2.601   1.803   5.616  0.2369 -0.0827 -0.4483
 2238TIP3    H128129   2.686   1.786   5.656  0.3462 -0.4581 -0.8335
 2238TIP3    H228130   2.615   1.788   5.523  0.0132  0.8724 -0.6486
 2239TIP3   OH228131   2.286   0.051  14.119 -0.4482  0.1317 -0.2356
 2239TIP3    H128132   2.274   0.142  14.145  1.5437  0.4977 -0.4191
 2239TIP3    H228133   2.377   0.032  14.140 -1.1428 -2.2297  0.9318
 2240TIP3   OH228134   2.826   0.008  11.683 -0.6787 -0.0703  0.5561
 2240TIP3    H128135   2.791   0.064  11.613  0.5336 -2.3268 -2.0196
 2240TIP3    H228136   2.748  -0.028  11.725 -1.4671  0.0321 -0.7594
 2241TIP3   OH228137   6.563   3.701   5.771 -0.2310 -0.2597  0.5178
 2241TIP3    H128138   6.650   3.699   5.731 -0.5576 -1.5092 -0.1551
 2241TIP3    H228139   6.580   3.697   5.865  0.5103  1.8959  0.5449
 2242TIP3   OH228140   1.164   5.256  13.565 -0.1085  0.1784  0.2432
 2242TIP3    H128141   1.216   5.325  13.607  0.7881 -0.7240  0.6650
 2242TIP3    H228142   1.219   5.225  13.492 -1.1959  0.9971 -0.9592
 2243TIP3   OH228143   2.903   0.272  14.282 -0.7627  0.0455 -0.2563
 2243TIP3    H128144   2.952   0.192  14.261  0.3043  0.4226  0.6531
 2243TIP3    H228145   2.903   0.322  14.201 -0.5460 -0.4284 -0.5553
 2244TIP3   OH228146   2.689   3.318  14.250  0.0593 -1.2024  0.1855
 2244TIP3    H128147   2.631   3.307  14.174  0.5273 -1.6600 -0.1139
 2244TIP3    H228148   2.772   3.346  14.212 -0.1605  0.1975  0.6706
 2245TIP3   OH228149   2.412   3.189  16.873  0.2158  0.6400  0.2498
 2245TIP3    H128150   2.437   3.099  16.855  0.5857  0.7940 -0.0156
 2245TIP3    H228151   2.405   3.230  16.787 -0.8645  0.6321  0.3084
 2246TIP3   OH228152   4.989   0.154  11.825  0.4617 -0.8449  0.5244
 2246TIP3    H128153   5.066   0.103  11.850  2.1408  1.6863  0.8319
 2246TIP3    H228154   4.997   0.163  11.730  0.3626 -0.8314  0.5170
 2247TIP3   OH228155   4.979   3.136  16.466  0.2088  0.1825 -0.3764
 2247TIP3    H128156   5.008   3.045  16.456 -2.3162 -0.7501 -0.0372
 2247TIP3    H228157   4.913   3.148  16.397 -0.3102  1.3852  0.2971
 2248TIP3   OH228158   2.799   1.948  11.121  0.1492  0.2147 -0.9092
 2248TIP3    H128159   2.789   1.944  11.216  0.2187  2.1714 -0.7739
 2248TIP3    H228160   2.890   1.924  11.105 -0.2084 -1.4417 -0.6328
 2249TIP3   OH228161   0.135   6.707   4.314 -0.3385  0.2827 -0.1159
 2249TIP3    H128162   0.085   6.784   4.343  0.4170  0.2973  1.2450
 2249TIP3    H228163   0.195   6.741   4.247 -0.8218  0.6392 -0.3739
 2250TIP3   OH228164   2.897   0.806  14.137 -0.1625 -0.0481  0.4037
 2250TIP3    H128165   2.965   0.738  14.143 -0.7449 -0.6783 -0.0136
 2250TIP3    H228166   2.945   0.885  14.114  0.4751 -0.4072  0.4609
 2251TIP3   OH228167   3.335   4.522  14.787  0.3052  0.2688 -0.2097
 2251TIP3    H128168   3.262   4.566  14.743 -0.9554 -1.4151  0.0629
 2251TIP3    H228169   3.341   4.437  14.743  1.9105  0.2601 -0.0103
 2252TIP3   OH228170   6.405   6.191   5.260  0.2899 -0.3234  0.0579
 2252TIP3    H128171   6.324   6.239   5.244  0.4040 -0.7055 -1.8414
 2252TIP3    H228172   6.449   6.241   5.329 -0.0331  1.7802 -1.1876
 2253TIP3   OH228173   5.659   5.597  10.534  0.5342  1.2221 -0.2525
 2253TIP3    H128174   5.659   5.577  10.440 -1.2456 -0.8812  0.1115
 2253TIP3    H228175   5.720   5.533  10.572 -0.0638  0.9115  0.2012
 2254TIP3   OH228176   5.548   1.226   0.021 -0.3016  0.0479 -0.3166
 2254TIP3    H128177   5.594   1.263   0.096  0.2896  0.4213 -0.8586
 2254TIP3    H228178   5.573   1.133   0.021 -2.0980 -0.5121  1.2751
 2255TIP3   OH228179   2.259   0.861  15.954  0.4886 -0.0516  0.0303
 2255TIP3    H128180   2.195   0.790  15.964  0.2456  0.3539  1.6621
 2255TIP3    H228181   2.344   0.817  15.962  0.4087 -0.4340 -1.0536
 2256TIP3   OH228182   6.615   4.865  17.048 -0.0993  0.0950  0.0815
 2256TIP3    H128183   6.534   4.827  17.016 -1.0687  1.3582  0.9492
 2256TIP3    H228184   6.625   4.946  16.997  0.1018  0.4289  0.6483
 2257TIP3   OH228185   1.223   4.578   3.592  0.4703 -0.0599 -0.8703
 2257TIP3    H128186   1.283   4.567   3.518 -1.9533 -1.2871 -2.8044
 2257TIP3    H228187   1.212   4.673   3.600  1.6818  0.1357 -1.2683
 2258TIP3   OH228188   2.321   3.366   3.076  0.3147 -0.7081  0.4263
 2258TIP3    H128189   2.276   3.367   2.991 -0.9501  3.8714  0.8833
 2258TIP3    H228190   2.257   3.401   3.138  2.8062  1.1207  2.1755
 2259TIP3   OH228191   1.067   5.974   2.138 -0.2133  0.1064 -0.5454
 2259TIP3    H128192   1.143   5.924   2.169  0.0340  1.8860  2.1397
 2259TIP3    H228193   1.001   5.908   2.118  1.2227 -1.3977 -0.5460
 2260TIP3   OH228194   2.153   0.580  14.746  0.0737  0.5366  0.1016
 2260TIP3    H128195   2.116   0.661  14.709 -0.1120 -0.0543 -1.0375
 2260TIP3    H228196   2.189   0.534  14.671 -1.2811 -1.2181  0.4670
 2261TIP3   OH228197   0.525   1.570  12.796  0.1737  0.7325 -0.1612
 2261TIP3    H128198   0.430   1.574  12.810  0.0914  0.3152 -0.5841
 2261TIP3    H228199   0.557   1.655  12.828 -0.2110  0.4966  0.8986
 2262TIP3   OH228200   4.542   2.588  13.800  0.1878 -0.0192 -0.0590
 2262TIP3    H128201   4.459   2.565  13.759 -0.2704 -0.4094  1.0393
 2262TIP3    H228202   4.582   2.504  13.821  0.3420  0.1663  0.4095
 2263TIP3   OH228203   0.166   5.449   2.138  0.7485 -0.1887  0.2570
 2263TIP3    H128204   0.156   5.473   2.230  1.2653 -1.7205  0.7404
 2263TIP3    H228205   0.076   5.441   2.105  0.4500 -2.5552  1.4650
 2264TIP3   OH228206   3.111   2.470  14.284  0.3874  0.1197 -0.3849
 2264TIP3    H128207   3.171   2.402  14.253  2.3111  0.9733  1.2488
 2264TIP3    H228208   3.066   2.429  14.358  0.1834  0.0138 -0.5684
 2265TIP3   OH228209   0.952   4.388  15.407  0.3524 -0.1057 -0.4921
 2265TIP3    H128210   1.019   4.441  15.365  1.0129  0.1871  0.8917
 2265TIP3    H228211   0.979   4.297  15.390  1.0597  0.0110 -0.0085
 2266TIP3   OH228212   0.436   2.605   2.833  0.1715  0.1274 -0.5890
 2266TIP3    H128213   0.450   2.511   2.834 -0.7703 -0.0237  0.6805
 2266TIP3    H228214   0.484   2.636   2.756  0.0650 -1.4429 -1.3155
 2267TIP3   OH228215   3.550   0.362   0.987  0.0052 -0.2430 -0.4794
 2267TIP3    H128216   3.531   0.272   1.013 -1.6049 -0.4131 -2.0903
 2267TIP3    H228217   3.501   0.417   1.048 -2.3759 -0.6033 -1.9404
 2268TIP3   OH228218   0.604   1.719   2.981 -0.5756 -0.0482 -0.3998
 2268TIP3    H128219   0.676   1.666   2.948 -0.5630  0.3499 -1.0376
 2268TIP3    H228220   0.534   1.657   3.001 -0.1936 -0.3973 -0.1559
 2269TIP3   OH228221   1.893   4.878   2.541 -0.1556 -0.4227 -0.3341
 2269TIP3    H128222   1.906   4.912   2.453 -2.7450 -2.9767 -1.9030
 2269TIP3    H228223   1.809   4.916   2.569  1.9333  2.6438  2.4017
 2270TIP3   OH228224   0.108   2.373  15.974  0.7589  0.0067 -0.3721
 2270TIP3    H128225   0.182   2.419  15.934  0.1055  1.2247 -0.2150
 2270TIP3    H228226   0.150   2.311  16.035  1.6561  0.3700 -0.5958
 2271TIP3   OH228227   4.214   0.261   5.574 -0.0486  0.1665 -0.4720
 2271TIP3    H128228   4.132   0.310   5.566  0.2322  0.5776 -0.8746
 2271TIP3    H228229   4.190   0.171   5.554 -0.5398  0.1575  0.1105
 2272TIP3   OH228230   5.169   4.825   3.752  0.1418 -0.4842  0.1241
 2272TIP3    H128231   5.155   4.911   3.792  0.6259 -0.0622 -0.5853
 2272TIP3    H228232   5.257   4.800   3.780  0.7186  0.0774 -1.1034
 2273TIP3   OH228233   2.060   1.638   2.785 -0.5182  0.2038 -0.9532
 2273TIP3    H128234   2.141   1.599   2.816 -0.6636  0.0334 -0.7793
 2273TIP3    H228235   2.039   1.706   2.849 -1.9608 -1.5709  0.6151
 2274TIP3   OH228236   1.039   3.618  11.163  0.0055  0.8386 -0.0612
 2274TIP3    H128237   1.127   3.634  11.130  0.1008  0.0000 -0.2401
 2274TIP3    H228238   0.998   3.565  11.095  0.8146 -2.6033  1.9154
 2275TIP3   OH228239   5.846   0.707   4.520  0.6001  0.1064 -0.1723
 2275TIP3    H128240   5.764   0.735   4.480 -0.5228 -2.4011  0.1499
 2275TIP3    H228241   5.846   0.749   4.606  0.0467  0.7141 -0.4583
 2276TIP3   OH228242   1.564   3.872   3.915  0.4688  0.0956  0.2472
 2276TIP3    H128243   1.531   3.846   3.829  0.2154  1.1893  0.0017
 2276TIP3    H228244   1.625   3.802   3.940  0.1555 -0.4846 -0.5855
 2277TIP3   OH228245   0.455   4.641   5.777 -0.7005 -0.1407  0.8714
 2277TIP3    H128246   0.412   4.669   5.858 -0.7700 -1.7049  1.4064
 2277TIP3    H228247   0.384   4.639   5.712 -0.9099 -0.1131  1.0948
 2278TIP3   OH228248   6.216   1.105   4.418  0.5505 -0.5304 -0.2959
 2278TIP3    H128249   6.307   1.125   4.440  0.2608 -0.9706  1.4523
 2278TIP3    H228250   6.203   1.014   4.447 -0.2888 -0.6862 -1.0802
 2279TIP3   OH228251   1.474   3.767   5.257  0.1372  0.0728 -0.2982
 2279TIP3    H128252   1.520   3.684   5.243  0.2828  0.3065 -1.2781
 2279TIP3    H228253   1.523   3.830   5.204 -2.4399 -0.0417 -3.0645
 2280TIP3   OH228254   3.462   1.670   2.970 -0.0840 -0.6989 -0.0152
 2280TIP3    H128255   3.379   1.624   2.982 -1.4406  1.1974 -1.4763
 2280TIP3    H228256   3.490   1.648   2.881 -1.1836  1.7549 -1.0722
 2281TIP3   OH228257   5.120   5.681   4.194 -0.4018  0.2282  0.5371
 2281TIP3    H128258   5.066   5.607   4.166 -0.9874  0.5924  0.6748
 2281TIP3    H228259   5.153   5.719   4.113  1.1082 -1.0536  0.5202
 2282TIP3   OH228260   5.397   1.346  16.959 -0.3546  1.4332 -0.3392
 2282TIP3    H128261   5.462   1.415  16.950  0.2044  0.7264 -2.2695
 2282TIP3    H228262   5.422   1.299  17.038 -1.3525  3.9755  1.6345
 2283TIP3   OH228263   3.202   3.112  12.264 -0.2751 -0.1964  0.2375
 2283TIP3    H128264   3.235   3.077  12.181 -0.2906  1.4642 -0.5028
 2283TIP3    H228265   3.206   3.038  12.325 -0.1167 -1.4012 -1.1964
 2284TIP3   OH228266   1.183   2.350  11.263 -0.2406  0.0906 -0.4693
 2284TIP3    H128267   1.120   2.289  11.301  0.5592  0.3943  1.4631
 2284TIP3    H228268   1.232   2.298  11.199 -1.4189 -0.5341 -0.8898
 2285TIP3   OH228269   3.889   5.091  12.812  0.3055 -0.2593  0.4670
 2285TIP3    H128270   3.885   5.167  12.870 -1.7200 -0.0677  0.1401
 2285TIP3    H228271   3.809   5.042  12.830 -0.0991 -0.5093 -1.6878
 2286TIP3   OH228272   4.381   5.662   2.176 -0.5314  0.7946 -0.3007
 2286TIP3    H128273   4.439   5.615   2.117 -0.6850  0.4600 -0.1875
 2286TIP3    H228274   4.299   5.613   2.174 -0.6217  0.9277 -0.0097
 2287TIP3   OH228275   3.237   3.889   1.950  0.1387 -0.1457 -0.0134
 2287TIP3    H128276   3.306   3.897   1.884 -1.1273  1.7126 -1.2121
 2287TIP3    H228277   3.191   3.973   1.947 -0.0355  0.0244  3.2245
 2288TIP3   OH228278   0.477   2.313  15.915  0.2229  0.5299 -0.5436
 2288TIP3    H128279   0.524   2.259  15.852  2.1011  0.6411  0.6814
 2288TIP3    H228280   0.432   2.251  15.972 -0.6970  0.4033 -1.3889
 2289TIP3   OH228281   3.036   4.525  14.723 -0.4149 -0.4281 -0.2804
 2289TIP3    H128282   3.068   4.605  14.683  1.6498 -0.3459  1.3747
 2289TIP3    H228283   2.971   4.554  14.787 -0.4465 -0.1740 -0.4289
 2290TIP3   OH228284   3.957   2.393   0.626 -0.5808  0.0035  0.0791
 2290TIP3    H128285   3.975   2.364   0.716 -0.7752  4.0427  1.6223
 2290TIP3    H228286   4.010   2.472   0.615 -1.0572 -0.0132 -3.1816
 2291TIP3   OH228287   5.506   4.030   4.508 -0.2144  0.1461 -0.1352
 2291TIP3    H128288   5.473   4.041   4.419 -2.1588 -1.8917  0.2540
 2291TIP3    H228289   5.428   4.026   4.562  0.8737 -0.3977  1.4549
 2292TIP3   OH228290   3.560   0.959   2.853 -0.2488  0.1918  0.8406
 2292TIP3    H128291   3.638   0.963   2.798  0.0955 -0.4130  1.2788
 2292TIP3    H228292   3.593   0.947   2.942 -0.8531 -1.0931  0.9178
 2293TIP3   OH228293   5.967   2.080   5.695 -0.2961 -0.2211  0.1496
 2293TIP3    H128294   5.883   2.084   5.740  0.0554  0.4974  0.7747
 2293TIP3    H228295   5.947   2.096   5.603 -0.8492 -0.1518  0.2790
 2294TIP3   OH228296   5.841   1.718  12.707  0.3081  0.4437 -0.2455
 2294TIP3    H128297   5.764   1.775  12.703 -0.3366 -0.2843  1.1411
 2294TIP3    H228298   5.877   1.719  12.618 -0.6845  1.6402 -0.6457
 2295TIP3   OH228299   1.559   6.516   2.790  0.3150 -0.6471 -0.4008
 2295TIP3    H128300   1.586   6.553   2.706  0.1678 -0.2207 -0.2637
 2295TIP3    H228301   1.539   6.424   2.771 -2.7330  0.1074 -1.5200
 2296TIP3   OH228302   6.674   0.087  13.194 -0.8559 -0.0064 -0.5475
 2296TIP3    H128303   6.765   0.058  13.191 -0.3952  1.4070 -1.1706
 2296TIP3    H228304   6.628   0.016  13.237  0.3563 -1.2292 -1.1776
 2297TIP3   OH228305   6.774   2.199  13.105  0.4382  0.3508  0.2330
 2297TIP3    H128306   6.706   2.205  13.173  0.7395 -0.6508  0.6353
 2297TIP3    H228307   6.745   2.127  13.049  1.3342 -0.3010  0.5991
 2298TIP3   OH228308   1.864   4.713  13.628 -0.0972 -0.0694 -0.7026
 2298TIP3    H128309   1.817   4.771  13.689 -0.2652  0.7578 -1.5942
 2298TIP3    H228310   1.888   4.637  13.681 -1.3709  0.0462  0.0848
 2299TIP3   OH228311   4.340   3.028   3.072 -0.4001 -0.0156  0.4522
 2299TIP3    H128312   4.313   2.944   3.111 -0.1826 -1.0496 -1.4838
 2299TIP3    H228313   4.364   3.005   2.982  2.1625  1.7095  0.6156
 2300TIP3   OH228314   4.016   4.620   1.884  0.1513  0.3906  0.2379
 2300TIP3    H128315   4.022   4.561   1.809  0.6406  1.4268 -0.5611
 2300TIP3    H228316   3.958   4.690   1.854  0.3168  0.7950  0.8543
 2301TIP3   OH228317   4.879   1.161  12.754  0.2244 -0.0544 -0.1574
 2301TIP3    H128318   4.955   1.160  12.812  0.2176  1.2011 -0.1116
 2301TIP3    H228319   4.915   1.155  12.666  0.2525 -1.5581 -0.0785
 2302TIP3   OH228320   5.652   3.288   3.327 -0.2867  1.2325  0.0598
 2302TIP3    H128321   5.558   3.276   3.338 -0.1568  1.3701  1.5382
 2302TIP3    H228322   5.691   3.234   3.395  0.7993 -0.0949 -1.5331
 2303TIP3   OH228323   0.743   6.639   4.512  1.1994  0.0974  0.5734
 2303TIP3    H128324   0.814   6.586   4.477  0.9225  0.2756 -0.2889
 2303TIP3    H228325   0.777   6.729   4.509 -0.1074  0.6030 -2.7808
 2304TIP3   OH228326   4.147   4.568   4.877 -0.1327 -0.0309 -0.3343
 2304TIP3    H128327   4.058   4.601   4.870 -0.4176 -0.3285  1.5150
 2304TIP3    H228328   4.198   4.626   4.820 -1.3529  0.7172 -0.7054
 2305TIP3   OH228329   5.425   6.108  11.166 -0.4452  0.5288  0.3866
 2305TIP3    H128330   5.485   6.088  11.094  0.2919 -0.5401  1.2641
 2305TIP3    H228331   5.425   6.029  11.219 -1.6297  1.0009  1.1209
 2306TIP3   OH228332   0.368   2.048  12.062  0.6762  0.1310 -0.3683
 2306TIP3    H128333   0.348   1.956  12.077 -0.7124  0.5444  0.5117
 2306TIP3    H228334   0.435   2.070  12.127  0.0139  0.0694  0.3461
 2307TIP3   OH228335   6.163   3.415   2.651 -0.5719 -0.1799  0.5188
 2307TIP3    H128336   6.123   3.487   2.699 -1.2051 -1.1355  1.4659
 2307TIP3    H228337   6.192   3.354   2.719 -0.3961 -0.9985 -0.2754
 2308TIP3   OH228338   2.326   0.530   3.690  0.1890  0.3229  0.1903
 2308TIP3    H128339   2.251   0.471   3.693  0.1954  0.1789 -1.5634
 2308TIP3    H228340   2.375   0.503   3.613  0.3680  2.4061 -0.4776
 2309TIP3   OH228341   2.908   1.276   3.168  0.2108 -0.1709 -0.1078
 2309TIP3    H128342   2.920   1.370   3.180  0.1044 -0.2816  0.9599
 2309TIP3    H228343   2.820   1.258   3.200 -0.1253 -0.4988 -1.1687
 2310TIP3   OH228344   6.573   6.344  13.334 -0.3828 -0.3947 -1.0530
 2310TIP3    H128345   6.622   6.377  13.260  2.5283 -0.2140  0.8030
 2310TIP3    H228346   6.530   6.422  13.371 -0.9794 -0.3121 -1.8976
 2311TIP3   OH228347   4.727   2.373   6.587 -0.5568 -0.8050 -0.2566
 2311TIP3    H128348   4.647   2.331   6.621 -0.4661 -0.0031  1.0409
 2311TIP3    H228349   4.757   2.427   6.660  0.4335 -0.0542 -1.2016
 2312TIP3   OH228350   1.934   3.336   4.189 -0.4455  0.1485 -0.0763
 2312TIP3    H128351   1.857   3.280   4.202 -1.5978  1.7244  0.2786
 2312TIP3    H228352   1.964   3.356   4.278 -0.4393  0.5748 -0.1674
 2313TIP3   OH228353   4.697   1.706  16.231  0.7781 -0.0556 -0.4016
 2313TIP3    H128354   4.731   1.728  16.318  0.6217  0.9053 -0.5652
 2313TIP3    H228355   4.751   1.757  16.170 -0.0545  0.4345 -0.7570
 2314TIP3   OH228356   3.302   2.556  13.201 -0.1420  0.6818  0.3116
 2314TIP3    H128357   3.220   2.552  13.154 -1.2361 -0.6852  2.1855
 2314TIP3    H228358   3.369   2.542  13.134 -1.3814  1.9099 -1.2683
 2315TIP3   OH228359   5.790   4.735   1.744 -0.1699  0.2606 -0.3752
 2315TIP3    H128360   5.716   4.755   1.687  0.7167  1.2085 -1.2336
 2315TIP3    H228361   5.775   4.645   1.772 -3.2833  1.3674  2.0659
 2316TIP3   OH228362   3.544   1.224   1.025 -0.4563  0.0448  0.0357
 2316TIP3    H128363   3.514   1.314   1.036 -0.3439  0.1210 -0.2674
 2316TIP3    H228364   3.600   1.227   0.948  0.8685  0.0387  0.9762
 2317TIP3   OH228365   5.883   4.168   2.723 -0.1952  0.2897  0.3349
 2317TIP3    H128366   5.963   4.193   2.768  1.1862 -1.7737 -0.7820
 2317TIP3    H228367   5.860   4.244   2.670 -0.3309  1.7441  2.3726
 2318TIP3   OH228368   6.773   1.963  12.939  0.5227 -0.2737 -0.1199
 2318TIP3    H128369   6.690   1.915  12.929  1.1204 -2.0223  2.2790
 2318TIP3    H228370   6.812   1.963  12.852 -2.7391  2.2493 -1.8130
 2319TIP3   OH228371   6.278   5.467  13.691 -0.0535  0.3601  0.0119
 2319TIP3    H128372   6.344   5.405  13.659  0.9362  0.8444  1.0230
 2319TIP3    H228373   6.211   5.412  13.732 -1.0333 -0.2325 -2.2014
 2320TIP3   OH228374   2.170   6.759  15.842  0.1288 -0.5283  0.1313
 2320TIP3    H128375   2.197   6.818  15.771 -2.2242  0.4911 -0.0121
 2320TIP3    H228376   2.159   6.674  15.799  0.5571 -0.3640 -0.3173
 2321TIP3   OH228377   4.444   1.216  15.340  0.0232 -0.6032  0.5319
 2321TIP3    H128378   4.376   1.274  15.374  1.9506  0.7061  2.4143
 2321TIP3    H228379   4.446   1.142  15.401  0.4145 -0.5118  0.6387
 2322TIP3   OH228380   5.080   3.081  10.760  0.3046  0.3938  0.1247
 2322TIP3    H128381   4.987   3.063  10.773  0.3251 -0.5323 -0.9439
 2322TIP3    H228382   5.101   3.043  10.675  1.4955  1.2422  0.0133
 2323TIP3   OH228383   0.680   5.445  11.225  0.4375  0.5583  0.0274
 2323TIP3    H128384   0.629   5.470  11.302  1.9740  1.2216  0.8914
 2323TIP3    H228385   0.698   5.527  11.180  1.9597  0.5759  0.5795
 2324TIP3   OH228386   2.559   4.353   2.799 -0.7820 -0.2844 -0.4598
 2324TIP3    H128387   2.635   4.396   2.761 -1.0726 -0.0331 -0.7627
 2324TIP3    H228388   2.490   4.365   2.734 -1.5342  0.9228  0.5346
 2325TIP3   OH228389   4.580   4.160   0.737 -0.1726 -0.5264 -0.0429
 2325TIP3    H128390   4.534   4.180   0.655  2.5890 -0.8097 -1.7831
 2325TIP3    H228391   4.630   4.239   0.756 -1.1035 -0.2931  1.7184
 2326TIP3   OH228392   4.105   1.253  16.397  0.1388 -0.5937  0.0408
 2326TIP3    H128393   4.187   1.289  16.363 -0.0111  0.8631  1.1864
 2326TIP3    H228394   4.123   1.233  16.489 -1.8200  3.5228  1.5452
 2327TIP3   OH228395   1.430   4.676   4.422 -0.1713 -0.1633 -0.1556
 2327TIP3    H128396   1.523   4.661   4.435 -0.0453  1.1578  0.6243
 2327TIP3    H228397   1.400   4.600   4.371  0.8515 -1.7909  1.5483
 2328TIP3   OH228398   1.060   1.923  12.037 -0.4857 -0.1009 -0.1542
 2328TIP3    H128399   0.983   1.964  12.077  0.5583  1.5040  0.3058
 2328TIP3    H228400   1.134   1.959  12.086  0.5319 -2.7639  0.4330
 2329TIP3   OH228401   5.347   1.256   2.403  0.0420 -0.6336 -0.3498
 2329TIP3    H128402   5.415   1.251   2.470  0.2617 -0.9370 -0.5942
 2329TIP3    H228403   5.393   1.284   2.324 -0.4476  1.2077 -0.0439
 2330TIP3   OH228404   3.770   0.059   5.513  0.2913 -0.7368 -0.2602
 2330TIP3    H128405   3.682   0.085   5.486 -0.5114 -1.5880  1.4317
 2330TIP3    H228406   3.770   0.065   5.608  1.8863 -1.3130 -0.1854
 2331TIP3   OH228407   3.525   2.582   0.197  0.0214  0.4530 -0.4351
 2331TIP3    H128408   3.491   2.624   0.118 -2.0524 -0.7331 -0.2573
 2331TIP3    H228409   3.460   2.514   0.218  1.8075 -0.9470  0.8630
 2332TIP3   OH228410   2.559   3.709  11.922 -0.3223 -0.0738  0.1869
 2332TIP3    H128411   2.566   3.714  12.018  0.0926 -0.3035  0.1749
 2332TIP3    H228412   2.563   3.800  11.893 -1.4737  0.0746  0.4412
 2333TIP3   OH228413   2.931   1.088   2.282 -0.5916  0.3972 -0.7570
 2333TIP3    H128414   2.852   1.035   2.273  1.0039 -2.1883 -0.7808
 2333TIP3    H228415   2.969   1.090   2.194  0.5965 -0.5366 -0.2906
 2334TIP3   OH228416   0.280   0.081  16.684 -0.0453  0.3479 -0.3468
 2334TIP3    H128417   0.267  -0.012  16.669 -0.2342  0.5302 -1.3510
 2334TIP3    H228418   0.211   0.106  16.745  2.2312 -0.9206  3.0359
 2335TIP3   OH228419   3.029   0.829   3.973  0.3012 -0.5789  0.2496
 2335TIP3    H128420   3.042   0.920   3.999 -0.5117 -0.3407 -0.1519
 2335TIP3    H228421   2.934   0.818   3.970  0.3592 -1.8426  1.6536
 2336TIP3   OH228422   0.843   3.156   2.745 -0.1198 -0.3623  0.0344
 2336TIP3    H128423   0.881   3.105   2.673  1.0672  1.0715 -0.3989
 2336TIP3    H228424   0.917   3.203   2.783 -0.7604 -0.9283  2.1043
 2337TIP3   OH228425   5.329   6.175   3.702  0.3220  0.0478  0.4013
 2337TIP3    H128426   5.392   6.120   3.748  0.2471 -0.9118 -0.5907
 2337TIP3    H228427   5.379   6.252   3.675  1.2916 -1.0435 -1.0298
 2338TIP3   OH228428   1.046   4.484   4.200  0.5456 -0.3974 -0.1160
 2338TIP3    H128429   1.088   4.566   4.171  0.2982 -0.4848 -0.7375
 2338TIP3    H228430   1.110   4.416   4.179  0.0064 -0.5610 -1.3125
 2339TIP3   OH228431   1.085   5.782  13.664  0.3838 -0.2089  0.1698
 2339TIP3    H128432   1.046   5.713  13.717 -0.7091  2.2804  2.9293
 2339TIP3    H228433   1.178   5.779  13.686  0.3709 -0.9186  0.1371
 2340TIP3   OH228434   3.003   0.860  15.236  0.8919  0.4157 -0.6577
 2340TIP3    H128435   3.074   0.914  15.200  1.7791 -0.9550 -1.0693
 2340TIP3    H228436   3.006   0.780  15.183 -0.6352  0.1200 -0.3287
 2341TIP3   OH228437   1.761   0.288   3.226  0.2229  0.0318 -0.0175
 2341TIP3    H128438   1.819   0.213   3.220  0.5224  0.1317  1.3356
 2341TIP3    H228439   1.806   0.349   3.284 -0.9505  0.3664  0.5834
 2342TIP3   OH228440   2.206   6.286  16.479 -0.4949  0.2571 -0.3105
 2342TIP3    H128441   2.202   6.279  16.383  2.4862  0.8543 -0.5653
 2342TIP3    H228442   2.215   6.380  16.495 -2.2048  0.2904  0.6865
 2343TIP3   OH228443   5.216   4.134   4.642 -0.2963  0.7237  0.0224
 2343TIP3    H128444   5.163   4.133   4.562 -0.5600  1.0389  0.1912
 2343TIP3    H228445   5.250   4.223   4.647  2.5844 -0.1523 -1.6035
 2344TIP3   OH228446   1.203   0.279   1.313  0.0879 -0.2118  0.4796
 2344TIP3    H128447   1.150   0.250   1.387 -0.7497  1.1721  0.4790
 2344TIP3    H228448   1.211   0.202   1.257  1.3767 -1.4906  2.3384
 2345TIP3   OH228449   0.641   6.024  11.237  0.2726  0.3078  0.9395
 2345TIP3    H128450   0.614   5.940  11.273  0.1956  0.2282  0.7000
 2345TIP3    H228451   0.634   6.086  11.310 -3.1059  0.8561  0.3346
 2346TIP3   OH228452   3.154   6.731  16.982 -0.3725 -0.2918 -0.7119
 2346TIP3    H128453   3.069   6.771  17.001  0.5587  1.2717  0.4732
 2346TIP3    H228454   3.177   6.684  17.063  0.2892  0.0969 -0.6646
 2347TIP3   OH228455   3.015   3.369  10.365 -0.2963 -0.2094  0.3105
 2347TIP3    H128456   2.935   3.421  10.354 -1.1296 -1.0256  2.2161
 2347TIP3    H228457   3.079   3.432  10.400 -0.9796 -0.1723  1.5608
 2348TIP3   OH228458   3.744   3.158   3.377 -0.1739 -0.1366  0.6198
 2348TIP3    H128459   3.813   3.214   3.414 -0.4119  0.6636 -0.1111
 2348TIP3    H228460   3.722   3.098   3.447  0.9657 -0.1215  1.0164
 2349TIP3   OH228461   5.300   1.463  16.265  0.3270  0.0016 -0.2676
 2349TIP3    H128462   5.252   1.546  16.261 -3.7970 -2.1130 -0.2967
 2349TIP3    H228463   5.248   1.408  16.324  2.1850 -2.9491 -1.1738
 2350TIP3   OH228464   3.174   5.951   4.409  0.1844  0.2582  0.0923
 2350TIP3    H128465   3.127   5.930   4.328  2.2873 -1.4278 -0.7739
 2350TIP3    H228466   3.175   5.870   4.458  1.4647  0.4646  0.4421
 2351TIP3   OH228467   0.288   1.800  16.806  0.2032 -0.3340 -0.4914
 2351TIP3    H128468   0.259   1.885  16.839  1.8334  0.1062 -0.1262
 2351TIP3    H228469   0.289   1.810  16.711 -1.0386 -0.4591 -0.5443
 2352TIP3   OH228470   2.125   1.223   3.697 -0.9728  0.4505 -0.0473
 2352TIP3    H128471   2.047   1.277   3.705 -1.0991  0.4246 -0.9807
 2352TIP3    H228472   2.172   1.259   3.622 -0.4769 -0.0163  0.0285
 2353TIP3   OH228473   4.444   1.644   1.417  0.2270  0.4147  0.4861
 2353TIP3    H128474   4.408   1.556   1.429  1.2183  0.0620  1.0753
 2353TIP3    H228475   4.444   1.657   1.323 -0.4690  0.0164  0.4243
 2354TIP3   OH228476   4.380   6.440  15.604  0.4745  0.1182  0.1745
 2354TIP3    H128477   4.460   6.465  15.557  0.9562 -0.7452  0.5189
 2354TIP3    H228478   4.317   6.420  15.534  0.3875  1.2450 -0.1029
 2355TIP3   OH228479   4.830   0.538  16.060  0.2036  0.2641 -0.6377
 2355TIP3    H128480   4.884   0.581  16.126  1.1405 -1.5347 -0.1815
 2355TIP3    H228481   4.858   0.577  15.977  0.8906  0.6528 -0.2331
 2356TIP3   OH228482   1.311   5.189  13.001  0.5004  0.5308 -0.2403
 2356TIP3    H128483   1.234   5.132  12.995 -0.4691  1.5292  1.8184
 2356TIP3    H228484   1.325   5.220  12.911 -1.2977  0.0564 -0.7187
 2357TIP3   OH228485   1.195   2.312   1.319  0.1729 -0.1219 -0.7737
 2357TIP3    H128486   1.128   2.248   1.296  0.7723 -0.1315 -2.7009
 2357TIP3    H228487   1.238   2.276   1.396 -1.7223 -0.3156  0.2366
 2358TIP3   OH228488   0.344   3.459  11.789  0.2129 -0.6124 -0.3845
 2358TIP3    H128489   0.257   3.418  11.785  0.0995 -0.2945 -1.5072
 2358TIP3    H228490   0.326   3.553  11.786  0.5222 -0.4769  1.2442
 2359TIP3   OH228491   5.518   5.770  16.952 -0.1006  0.2942  0.4634
 2359TIP3    H128492   5.505   5.756  17.046 -0.8768  1.2075  0.5096
 2359TIP3    H228493   5.431   5.760  16.914  0.1330  0.3596 -0.1062
 2360TIP3   OH228494   3.856   5.723  12.450 -0.2205 -0.0037  0.2491
 2360TIP3    H128495   3.763   5.745  12.447 -0.2413  0.2297  1.9939
 2360TIP3    H228496   3.870   5.686  12.537  1.9201  2.8688  1.2899
 2361TIP3   OH228497   5.749   4.322   2.521 -0.7047  0.3168 -0.2573
 2361TIP3    H128498   5.708   4.245   2.561 -3.3697  1.8679  0.2197
 2361TIP3    H228499   5.720   4.395   2.576  2.8661  1.6178  0.1484
 2362TIP3   OH228500   1.651   5.838  16.894 -0.1738 -0.3738 -0.4111
 2362TIP3    H128501   1.695   5.883  16.966  1.6648 -1.3893 -0.8161
 2362TIP3    H228502   1.617   5.758  16.934  0.3547 -0.6654 -0.5253
 2363TIP3   OH228503   0.049   5.918  16.772  0.1964 -0.4917 -0.0153
 2363TIP3    H128504  -0.015   5.978  16.809  0.5238 -0.1775  0.0411
 2363TIP3    H228505  -0.003   5.848  16.732 -0.1704 -0.4560  0.4011
 2364TIP3   OH228506   5.224   4.443  15.463 -0.0914 -0.6173  0.2040
 2364TIP3    H128507   5.312   4.412  15.444 -0.2951 -0.0477 -1.8806
 2364TIP3    H228508   5.228   4.537  15.452 -0.7040 -0.4360  1.3327
 2365TIP3   OH228509   4.861   4.793  12.687 -0.5726  0.4730  0.0384
 2365TIP3    H128510   4.937   4.834  12.647 -1.6419  1.7426 -0.7718
 2365TIP3    H228511   4.792   4.859  12.680 -1.7274 -0.6185  0.8046
 2366TIP3   OH228512   2.546   4.109   6.115 -0.1052 -0.1702  0.3678
 2366TIP3    H128513   2.575   4.199   6.128 -0.9312  0.1331  0.1669
 2366TIP3    H228514   2.626   4.061   6.094  0.5516  0.2375  1.8190
 2367TIP3   OH228515   4.693   2.625   2.732  0.0137 -0.1513  0.8578
 2367TIP3    H128516   4.673   2.683   2.806  1.5424 -0.0567  1.2341
 2367TIP3    H228517   4.608   2.605   2.694 -0.6132  1.9202  1.0306
 2368TIP3   OH228518   1.404   5.761  12.393 -0.1131 -0.5482 -0.3581
 2368TIP3    H128519   1.414   5.771  12.488  1.2156  0.2265 -0.5533
 2368TIP3    H228520   1.470   5.819  12.356  1.0858 -2.6905 -1.7350
 2369TIP3   OH228521   4.774   0.221   5.072  0.0311 -0.4670 -0.1530
 2369TIP3    H128522   4.868   0.207   5.064  0.0964  0.1428 -0.5313
 2369TIP3    H228523   4.762   0.314   5.051 -0.6042 -0.4368  0.3023
 2370TIP3   OH228524   5.477   0.169  12.981  0.8398 -0.0586 -0.4915
 2370TIP3    H128525   5.459   0.106  13.051 -2.8740 -0.0568 -1.2359
 2370TIP3    H228526   5.521   0.117  12.914 -0.3507 -1.4346 -0.2655
 2371TIP3   OH228527   6.680   4.721   0.418 -0.5442 -0.5396  0.3333
 2371TIP3    H128528   6.640   4.791   0.366 -0.9579 -1.1060 -0.1261
 2371TIP3    H228529   6.606   4.673   0.454 -0.2610 -0.6122  0.8298
 2372TIP3   OH228530   5.156   3.345   3.050  0.2267 -0.5016  0.0504
 2372TIP3    H128531   5.082   3.368   3.106  1.5051  0.1659  1.5353
 2372TIP3    H228532   5.186   3.260   3.083  0.7295 -0.3025  0.1127
 2373TIP3   OH228533   3.246   3.594  10.814 -0.1137  0.1704 -0.0754
 2373TIP3    H128534   3.253   3.499  10.815  1.6580  0.2482 -0.6755
 2373TIP3    H228535   3.317   3.624  10.870 -0.3910  1.1459 -0.2251
 2374TIP3   OH228536   6.080   4.988  16.100 -0.2105 -0.6850 -0.1787
 2374TIP3    H128537   6.170   4.998  16.068 -0.0658 -1.2591  0.0536
 2374TIP3    H228538   6.070   5.059  16.163 -0.1813 -0.1360 -0.7756
 2375TIP3   OH228539   3.409   6.129   0.781 -0.3619 -0.0607  0.1214
 2375TIP3    H128540   3.393   6.207   0.728 -0.0291  0.5409  0.9029
 2375TIP3    H228541   3.479   6.154   0.841  0.5646 -1.3188 -0.3807
 2376TIP3   OH228542   5.555   2.885  16.515  0.0381 -0.4021 -0.9682
 2376TIP3    H128543   5.576   2.968  16.557 -1.7701 -0.3122 -0.1575
 2376TIP3    H228544   5.500   2.908  16.441 -0.4919 -0.8676 -0.7284
 2377TIP3   OH228545   2.933   6.350  11.993  0.2266 -0.1378 -0.3273
 2377TIP3    H128546   2.994   6.384  12.059 -0.1560  1.5557 -0.8070
 2377TIP3    H228547   2.847   6.381  12.021 -0.0166  0.1241 -1.3197
 2378TIP3   OH228548   5.487   1.044  14.364  0.6521  0.2201  0.2928
 2378TIP3    H128549   5.532   1.010  14.442 -0.6074  2.2755  2.0564
 2378TIP3    H228550   5.407   0.991  14.358 -0.3710  1.4926  1.8640
 2379TIP3   OH228551   1.329   3.958  15.768 -0.3743 -0.1024  0.1505
 2379TIP3    H128552   1.378   3.932  15.846  1.0996  1.6128 -0.1325
 2379TIP3    H228553   1.327   4.053  15.771 -2.1304 -0.0653 -0.8552
 2380TIP3   OH228554   4.320   1.092  15.996  0.0360  0.7739 -0.4465
 2380TIP3    H128555   4.273   1.158  15.946 -0.5897  0.1068 -0.7486
 2380TIP3    H228556   4.390   1.062  15.937 -1.1140 -0.5008 -1.2203
 2381TIP3   OH228557   2.069   5.587   4.330  0.0259  0.0228  0.2470
 2381TIP3    H128558   2.020   5.550   4.256 -2.2216 -1.2390  2.2593
 2381TIP3    H228559   2.098   5.511   4.380 -2.5076  0.7879  3.1241
 2382TIP3   OH228560   2.254   6.245   3.274  0.0365 -0.0286 -0.2116
 2382TIP3    H128561   2.301   6.198   3.205 -0.2730 -0.2185 -0.2972
 2382TIP3    H228562   2.226   6.326   3.232  0.8499  0.3883  0.0288
 2383TIP3   OH228563   4.379   3.101   1.901  0.3112 -0.2724  0.3819
 2383TIP3    H128564   4.335   3.183   1.925 -1.0713 -0.9822  0.3854
 2383TIP3    H228565   4.308   3.043   1.873  1.4303 -0.8713 -1.3944
 2384TIP3   OH228566   6.144   0.817   3.911 -0.0095 -0.1801 -0.3287
 2384TIP3    H128567   6.223   0.834   3.860  1.3884 -1.6117  1.2721
 2384TIP3    H228568   6.073   0.822   3.847  1.4733 -0.0496 -2.0371
 2385TIP3   OH228569   4.627   0.452  12.464  0.0192 -0.2625  0.1050
 2385TIP3    H128570   4.670   0.525  12.419 -0.6421 -0.2212 -0.4938
 2385TIP3    H228571   4.635   0.379  12.402  1.8719 -1.1058  1.2630
 2386TIP3   OH228572   5.347   4.050  10.990 -0.4296 -0.4888  0.4529
 2386TIP3    H128573   5.346   3.962  11.026  0.2105 -1.1758 -1.1233
 2386TIP3    H228574   5.419   4.094  11.035 -0.4298 -0.9225  0.8820
 2387TIP3   OH228575   1.932   3.325  14.164 -0.2825 -0.5069  0.0406
 2387TIP3    H128576   1.978   3.244  14.145 -0.7652 -1.4125  2.4081
 2387TIP3    H228577   1.989   3.394  14.131  1.0029 -1.7256 -0.3550
 2388TIP3   OH228578   1.708   3.667   0.304 -0.3071 -0.3301  0.2440
 2388TIP3    H128579   1.718   3.670   0.208 -0.7372 -1.3877  0.1464
 2388TIP3    H228580   1.631   3.612   0.318  0.2646 -0.9207  1.2200
 2389TIP3   OH228581   1.741   3.642  16.561 -0.3954 -0.3052 -0.1074
 2389TIP3    H128582   1.833   3.666  16.548 -0.2739 -0.5419  0.2837
 2389TIP3    H228583   1.710   3.701  16.629 -0.3640 -0.6166  0.1793
 2390TIP3   OH228584   4.405   0.303  14.224  0.1840  0.3455  0.1821
 2390TIP3    H128585   4.441   0.216  14.206  1.3506  1.3410 -2.9632
 2390TIP3    H228586   4.312   0.295  14.200  0.6041  0.2657 -1.5952
 2391TIP3   OH228587   2.558   4.641  12.815  0.2049 -0.0506  0.0129
 2391TIP3    H128588   2.490   4.684  12.868 -1.2558 -1.3135 -0.7820
 2391TIP3    H228589   2.619   4.605  12.880  0.6930  1.8923  0.7233
 2392TIP3   OH228590   6.172   0.306   2.759 -0.0945  0.0528 -0.3517
 2392TIP3    H128591   6.267   0.313   2.749 -0.0356  0.0078  0.1727
 2392TIP3    H228592   6.156   0.212   2.761  0.0787  0.0296  1.6157
 2393TIP3   OH228593   3.580   4.349   0.625  0.1359  0.3248  0.0922
 2393TIP3    H128594   3.505   4.374   0.678 -1.4643 -1.5355 -1.1683
 2393TIP3    H228595   3.612   4.268   0.664 -1.4060 -1.3724 -1.9481
 2394TIP3   OH228596   3.774   5.944  12.689  0.4566 -0.5567  0.6388
 2394TIP3    H128597   3.735   5.982  12.767  1.6681  0.5540  0.7253
 2394TIP3    H228598   3.866   5.971  12.692  0.3109  0.3693 -1.6942
 2395TIP3   OH228599   0.851   2.161  13.740  0.1188  0.2740 -0.1427
 2395TIP3    H128600   0.943   2.165  13.765  0.2016 -0.4986 -0.2942
 2395TIP3    H228601   0.821   2.076  13.773 -0.7331  0.8278  0.5423
 2396TIP3   OH228602   3.756   4.122   3.373  0.2130  0.1238 -0.5827
 2396TIP3    H128603   3.707   4.158   3.299  3.2264  0.0644 -2.8277
 2396TIP3    H228604   3.845   4.156   3.361  1.6947 -2.8664  0.8722
 2397TIP3   OH228605   1.799   5.929   6.298 -0.7633 -0.1455  0.3099
 2397TIP3    H128606   1.876   5.941   6.354 -1.6541 -0.7904  1.7471
 2397TIP3    H228607   1.796   5.834   6.282  0.5974  0.2123 -2.5653
 2398TIP3   OH228608   3.370   4.220  16.893  0.7623  0.1729 -0.0946
 2398TIP3    H128609   3.378   4.234  16.799 -0.8701 -0.2526 -0.3151
 2398TIP3    H228610   3.427   4.145  16.910  0.1484 -0.5015 -0.9524
 2399TIP3   OH228611   5.798   4.490   3.729  0.5062  0.6360  0.1050
 2399TIP3    H128612   5.840   4.519   3.810 -0.9569 -0.1321  1.1993
 2399TIP3    H228613   5.862   4.508   3.661  2.0089  0.8116  1.4993
 2400TIP3   OH228614   5.597   2.499   3.528  0.0099  0.3263 -0.5980
 2400TIP3    H128615   5.678   2.456   3.500  0.7529 -0.3158  2.2982
 2400TIP3    H228616   5.527   2.442   3.496  0.9076 -1.9255  1.2223
 2401TIP3   OH228617   1.384   2.262   2.801  0.2933 -0.0656 -0.4761
 2401TIP3    H128618   1.354   2.347   2.832 -1.7381 -1.1323  0.6741
 2401TIP3    H228619   1.456   2.282   2.740  0.8021  2.3580  0.8198
 2402TIP3   OH228620   5.278   2.761  12.401 -0.0556 -0.2800 -0.7437
 2402TIP3    H128621   5.308   2.850  12.417 -0.1074  0.0780 -2.4870
 2402TIP3    H228622   5.267   2.724  12.489 -0.1809  1.4595  0.0237
 2403TIP3   OH228623   4.715   5.531   1.174 -0.1203 -0.6739 -0.1199
 2403TIP3    H128624   4.748   5.620   1.184 -0.3766 -0.6513  0.5523
 2403TIP3    H228625   4.655   5.535   1.099  0.1764 -0.3736 -0.3416
 2404TIP3   OH228626   0.116   4.431   2.955 -0.4545  0.2230 -0.2139
 2404TIP3    H128627   0.210   4.412   2.962 -0.4777 -0.1638 -0.9314
 2404TIP3    H228628   0.105   4.513   3.004  0.8634  2.2179 -2.9927
 2405TIP3   OH228629   5.491   3.696   3.871 -0.5183  0.2216  0.2088
 2405TIP3    H128630   5.522   3.766   3.814  1.5841 -2.4911 -2.2604
 2405TIP3    H228631   5.525   3.719   3.957  1.6111  1.4044 -0.8608
 2406TIP3   OH228632   6.367   0.729   5.372  0.1382 -0.3542  0.4251
 2406TIP3    H128633   6.446   0.782   5.378 -0.7543  0.9065  1.4666
 2406TIP3    H228634   6.354   0.694   5.460  0.1498 -1.5185 -0.0097
 2407TIP3   OH228635   3.066   4.512   0.066 -0.7590 -0.4721  0.4249
 2407TIP3    H128636   3.153   4.527   0.029 -0.8699 -0.4325  0.1725
 2407TIP3    H228637   3.041   4.426   0.032 -1.3998  0.1211 -0.6618
 2408TIP3   OH228638   5.145   2.290  16.823  0.1007  0.1864 -0.4715
 2408TIP3    H128639   5.220   2.235  16.803 -0.1530  0.3492 -1.9440
 2408TIP3    H228640   5.091   2.288  16.744 -1.5304 -0.0528  0.5914
 2409TIP3   OH228641   4.421   6.497   4.395  0.3891 -0.6613  0.5230
 2409TIP3    H128642   4.489   6.565   4.397 -0.7686  0.5173  2.3746
 2409TIP3    H228643   4.453   6.431   4.456  0.2490 -0.4897  0.7823
 2410TIP3   OH228644   5.802   3.402   5.072 -0.2218  0.2657  0.3322
 2410TIP3    H128645   5.792   3.377   4.980  2.5377 -2.4236  0.6205
 2410TIP3    H228646   5.895   3.420   5.082 -0.1919 -0.8356  2.8651
 2411TIP3   OH228647   2.880   2.538  14.782  0.1419  0.2400  0.0692
 2411TIP3    H128648   2.866   2.586  14.864  0.1070 -0.4610  0.4888
 2411TIP3    H228649   2.812   2.470  14.783  0.8992 -0.5393  0.0614
 2412TIP3   OH228650   3.989   1.184  11.651  0.3475  0.0371 -0.3438
 2412TIP3    H128651   3.953   1.118  11.711 -1.1782 -0.1120 -1.3726
 2412TIP3    H228652   3.962   1.267  11.688  1.1430  0.0555  0.2358
 2413TIP3   OH228653   6.724   1.876  14.656  0.4235  0.4961 -0.1747
 2413TIP3    H128654   6.728   1.832  14.741  0.7376  0.0154 -0.4289
 2413TIP3    H228655   6.637   1.853  14.622 -0.5440  2.3687  0.8758
 2414TIP3   OH228656   1.717   3.139  14.061  0.4105 -0.6331  0.0931
 2414TIP3    H128657   1.652   3.208  14.076  0.5347 -0.4338 -0.2861
 2414TIP3    H228658   1.667   3.057  14.065  0.2240 -0.5105  0.3061
 2415TIP3   OH228659   3.586   2.735  15.905  0.5497  0.3650 -0.4675
 2415TIP3    H128660   3.545   2.816  15.877 -1.2499 -0.3906 -0.1399
 2415TIP3    H228661   3.655   2.762  15.966 -1.1159  1.5875  0.9582
 2416TIP3   OH228662   4.639   4.714   1.117  0.1134 -0.1517  0.0351
 2416TIP3    H128663   4.727   4.694   1.087  0.7949  0.3462  1.6525
 2416TIP3    H228664   4.582   4.679   1.048  1.5506 -0.4958 -1.0171
 2417TIP3   OH228665   3.879   4.016  11.466  0.2821 -0.1917  0.1191
 2417TIP3    H128666   3.952   3.957  11.482 -0.2762 -2.7225 -4.6936
 2417TIP3    H228667   3.801   3.960  11.476 -0.6524  1.0953  0.2211
 2418TIP3   OH228668   4.374   3.649  14.401  0.7066 -0.2145 -0.3656
 2418TIP3    H128669   4.327   3.620  14.479 -1.1826 -1.0466 -1.7468
 2418TIP3    H228670   4.463   3.666  14.432 -0.0813 -0.0885  2.0368
 2419TIP3   OH228671   4.642   5.230   1.108 -0.0765 -0.0804  0.3151
 2419TIP3    H128672   4.729   5.202   1.136  0.7151 -0.2104 -2.0375
 2419TIP3    H228673   4.647   5.326   1.107  0.2566 -0.0962 -0.3421
 2420TIP3   OH228674   2.732   1.534   1.387  0.5760  0.4148 -0.4535
 2420TIP3    H128675   2.664   1.491   1.439  0.3210  0.5421 -0.6805
 2420TIP3    H228676   2.773   1.595   1.448  2.2800 -1.5134  0.4672
 2421TIP3   OH228677   1.872   6.021  14.391  0.1960  0.4513 -0.8487
 2421TIP3    H128678   1.943   5.972  14.432  0.2187 -0.7862 -2.2413
 2421TIP3    H228679   1.914   6.099  14.356  0.0349  1.9472  2.0137
 2422TIP3   OH228680   1.700   0.084  13.513  0.2320 -0.2711 -0.0807
 2422TIP3    H128681   1.760   0.031  13.566 -0.2139  0.3801  1.1338
 2422TIP3    H228682   1.755   0.120  13.443  1.0736 -0.3726  0.5106
 2423TIP3   OH228683   6.361   4.910  11.944 -0.5185  0.1336 -0.1090
 2423TIP3    H128684   6.302   4.957  12.003  0.7373  2.9443 -0.9236
 2423TIP3    H228685   6.441   4.896  11.996 -0.8643 -1.1416  0.1101
 2424TIP3   OH228686   6.076   3.556   6.041 -0.1878  0.2050  0.6751
 2424TIP3    H128687   6.057   3.493   6.110 -0.1008  1.1178  1.5600
 2424TIP3    H228688   6.038   3.638   6.073  0.6136  0.8391  0.0459
 2425TIP3   OH228689   5.581   3.880   3.141  0.2196 -0.4200 -0.3621
 2425TIP3    H128690   5.499   3.833   3.161  0.9210 -1.3597  0.4354
 2425TIP3    H228691   5.632   3.816   3.091  1.2225 -0.5631  0.8025
 2426TIP3   OH228692   0.966   5.067  13.600  0.4618  0.2358 -0.3738
 2426TIP3    H128693   1.037   5.132  13.604  0.8215 -0.2128  2.1072
 2426TIP3    H228694   0.975   5.016  13.680 -1.3929 -1.2457 -1.0202
 2427TIP3   OH228695   2.596   6.125   3.134 -0.1089  0.5162  0.0323
 2427TIP3    H128696   2.680   6.132   3.179  0.3507  1.8924 -0.9801
 2427TIP3    H228697   2.547   6.061   3.185  1.8639 -1.0070  0.1368
 2428TIP3   OH228698   2.651   3.502  16.658 -0.4448 -0.7611 -0.2898
 2428TIP3    H128699   2.710   3.546  16.597 -0.8497 -2.5028 -2.0542
 2428TIP3    H228700   2.707   3.443  16.708 -0.3530 -0.5663 -0.1594
 2429TIP3   OH228701   3.320   1.114  13.868  0.3764  0.2395 -0.2777
 2429TIP3    H128702   3.352   1.197  13.834  0.3051  0.6635  0.6610
 2429TIP3    H228703   3.277   1.072  13.793 -2.4133  2.4411 -0.1038
 2430TIP3   OH228704   6.218   4.674  16.928  0.4640 -0.1664  0.7563
 2430TIP3    H128705   6.163   4.610  16.884 -1.8553  0.9330  1.8833
 2430TIP3    H228706   6.306   4.639  16.921 -0.4758 -2.5150 -0.2618
 2431TIP3   OH228707   0.309   6.663   3.095  0.4581 -0.6045 -0.0869
 2431TIP3    H128708   0.327   6.757   3.092  0.3221 -0.6021 -0.8507
 2431TIP3    H228709   0.360   6.632   3.170  2.0323 -0.2447 -0.9725
 2432TIP3   OH228710   1.209   5.487   5.624  0.1066  0.0274 -0.8751
 2432TIP3    H128711   1.299   5.493   5.594 -0.3759  0.7992 -2.2396
 2432TIP3    H228712   1.200   5.558   5.688  1.1637 -1.6838  1.3005
 2433TIP3   OH228713   6.647   0.596   1.201 -0.2925  0.0060  0.7486
 2433TIP3    H128714   6.629   0.502   1.200  0.5968 -0.2888  3.4809
 2433TIP3    H228715   6.621   0.625   1.288  1.2201  1.8958  0.6515
 2434TIP3   OH228716   6.249   5.599   2.804 -0.2804  0.2207  0.3187
 2434TIP3    H128717   6.204   5.517   2.787  1.3294 -0.6178 -0.0034
 2434TIP3    H228718   6.186   5.667   2.778 -0.6495 -0.9255 -1.9634
 2435TIP3   OH228719   0.582   2.251  15.634 -0.3201 -0.1803 -0.3699
 2435TIP3    H128720   0.625   2.171  15.602 -0.0784  1.0012 -3.3825
 2435TIP3    H228721   0.648   2.319  15.622 -1.9128  1.1607 -2.1897
 2436TIP3   OH228722   1.553   6.628   3.309 -0.5525 -0.4356  0.1230
 2436TIP3    H128723   1.544   6.605   3.216 -0.7533 -0.5158  0.1633
 2436TIP3    H228724   1.497   6.565   3.355 -2.7147  1.3611  0.1029
 2437TIP3   OH228725   1.552   4.729   5.254  0.1949 -0.2566 -0.4810
 2437TIP3    H128726   1.536   4.798   5.189  1.2251 -1.1258 -1.7117
 2437TIP3    H228727   1.641   4.744   5.285  0.1644 -0.6078 -0.2129
 2438TIP3   OH228728   1.778   5.503  11.432 -0.2303  0.3054 -0.2185
 2438TIP3    H128729   1.801   5.424  11.382  1.0576  0.4214  0.1575
 2438TIP3    H228730   1.684   5.513  11.418 -0.2541 -0.7830 -1.0113
 2439TIP3   OH228731   4.477   5.153  16.868  0.2254  0.1375  0.7742
 2439TIP3    H128732   4.535   5.187  16.799 -0.5291  0.6162  0.3606
 2439TIP3    H228733   4.520   5.073  16.898  1.3998  0.7916  0.8889
 2440TIP3   OH228734   5.228   4.655   2.261 -0.4944 -0.8968 -0.4643
 2440TIP3    H128735   5.215   4.602   2.339 -0.0295 -1.0107 -0.4613
 2440TIP3    H228736   5.311   4.701   2.277 -1.5185  0.8693  0.1347
 2441TIP3   OH228737   1.165   3.375  12.374  0.1493  0.3728  0.3946
 2441TIP3    H128738   1.100   3.398  12.441  0.3179  0.3909  0.5506
 2441TIP3    H228739   1.222   3.312  12.417  1.1841  1.5308  0.7697
 2442TIP3   OH228740   0.613   0.586  12.800  0.0691 -0.0276  0.2645
 2442TIP3    H128741   0.562   0.653  12.754 -0.8061 -0.4114  0.6606
 2442TIP3    H228742   0.583   0.503  12.763 -1.0981 -0.3805  1.9215
 2443TIP3   OH228743   4.681   6.486  11.339  0.3526 -0.7971 -0.9931
 2443TIP3    H128744   4.662   6.566  11.389 -0.8597 -1.2733 -0.6676
 2443TIP3    H228745   4.677   6.514  11.248  0.7016 -0.3210 -0.8653
 2444TIP3   OH228746   2.554   0.066  15.256  0.0434  0.2041 -0.0892
 2444TIP3    H128747   2.623   0.101  15.199  1.1237 -1.8034 -0.1305
 2444TIP3    H228748   2.534  -0.020  15.219 -0.4344 -0.4464  1.5736
 2445TIP3   OH228749   3.950   3.698  16.614  0.0235 -0.0431 -0.0735
 2445TIP3    H128750   4.035   3.742  16.620  1.2688 -2.2888 -0.3781
 2445TIP3    H228751   3.945   3.666  16.525 -1.4733  0.5582 -0.2491
 2446TIP3   OH228752   5.471   3.911   6.756 -0.5318 -0.4319  0.1499
 2446TIP3    H128753   5.495   3.977   6.691 -3.2377 -0.3201 -0.8672
 2446TIP3    H228754   5.406   3.856   6.711 -1.9486 -0.8087  2.5257
 2447TIP3   OH228755   2.900   2.734  11.065 -0.1070  0.0460  0.4611
 2447TIP3    H128756   2.976   2.694  11.024  0.5321  1.0429  0.6364
 2447TIP3    H228757   2.827   2.676  11.043  0.7776 -1.1738  0.7008
 2448TIP3   OH228758   1.605   5.244  16.644  0.3521  0.1491 -0.1267
 2448TIP3    H128759   1.586   5.156  16.677 -1.1046 -0.0104 -1.2923
 2448TIP3    H228760   1.601   5.300  16.722 -1.3982 -0.4466  0.2581
 2449TIP3   OH228761   1.451   1.840  13.956  0.1745  0.0848 -0.6558
 2449TIP3    H128762   1.419   1.927  13.982 -2.6117  0.2267 -3.9838
 2449TIP3    H228763   1.418   1.781  14.023 -2.1465  1.0417 -0.8735
 2450TIP3   OH228764   1.293   6.483  11.675  0.1538 -0.0888 -0.6944
 2450TIP3    H128765   1.221   6.508  11.734  0.4636  1.3967 -0.9093
 2450TIP3    H228766   1.313   6.563  11.627  1.5356 -0.6494 -1.0885
 2451TIP3   OH228767   2.065   0.359   2.385 -0.1069  0.1805 -0.2738
 2451TIP3    H128768   2.068   0.362   2.480 -1.6144  1.0327 -0.2338
 2451TIP3    H228769   1.994   0.298   2.364 -0.1923  0.4623 -0.8440
 2452TIP3   OH228770   6.701   5.531   0.950 -0.0025 -0.5445 -0.5065
 2452TIP3    H128771   6.774   5.592   0.960  0.3021 -0.8449 -0.8691
 2452TIP3    H228772   6.637   5.580   0.899 -0.3278 -0.0555  0.3515
 2453TIP3   OH228773   1.312   0.197   5.705  0.1781  0.2399  0.1872
 2453TIP3    H128774   1.336   0.115   5.661 -0.1984  0.1234  0.2004
 2453TIP3    H228775   1.349   0.266   5.649 -0.3033  0.0928 -0.3255
 2454TIP3   OH228776   4.937   4.868  11.548  0.1679 -0.2294  0.2218
 2454TIP3    H128777   4.860   4.881  11.602  1.4112  2.2753  1.5481
 2454TIP3    H228778   4.905   4.878  11.458 -1.4424 -1.8363  0.5488
 2455TIP3   OH228779   5.562   3.461   2.436  0.0827 -0.1453  0.4346
 2455TIP3    H128780   5.579   3.377   2.478 -0.8436 -0.1679  0.7737
 2455TIP3    H228781   5.467   3.466   2.429  0.1664 -0.5943 -2.5542
 2456TIP3   OH228782   4.084   1.826   2.200 -0.3286 -0.1977  0.0067
 2456TIP3    H128783   4.159   1.885   2.190 -1.2163  0.9035 -0.2739
 2456TIP3    H228784   4.095   1.762   2.130  0.5474 -0.2697  0.1994
 2457TIP3   OH228785   0.044   3.622  12.936  0.0507  0.2577 -0.6126
 2457TIP3    H128786   0.102   3.591  13.006 -1.9850 -0.8092  0.6733
 2457TIP3    H228787   0.095   3.608  12.856  1.4068 -1.0632  0.4139
 2458TIP3   OH228788   5.303   0.967   4.243 -0.0900 -0.3996  0.7147
 2458TIP3    H128789   5.323   0.882   4.204  0.0618  1.0282 -2.6026
 2458TIP3    H228790   5.372   1.025   4.211 -1.8545  1.6212  0.3378
 2459TIP3   OH228791   6.732   4.090   1.707  0.5083  0.3179 -0.0109
 2459TIP3    H128792   6.705   4.034   1.634 -1.2432 -0.0699  0.8892
 2459TIP3    H228793   6.720   4.035   1.785  2.5151  0.6632  0.6032
 2460TIP3   OH228794   2.159   6.675   0.892  0.1968  0.7863 -0.1315
 2460TIP3    H128795   2.102   6.618   0.839  2.3590  0.3966 -2.2117
 2460TIP3    H228796   2.142   6.763   0.858 -0.0609  0.8472  0.1454
 2461TIP3   OH228797   4.314   6.327  11.148  0.2791 -0.4625  0.5930
 2461TIP3    H128798   4.301   6.305  11.056  1.4720 -0.0166  0.2899
 2461TIP3    H228799   4.251   6.397  11.166  1.6024  1.1053 -0.5724
 2462TIP3   OH228800   0.273   4.299  11.352  0.0575  1.1864 -0.6674
 2462TIP3    H128801   0.235   4.302  11.265 -0.6349  1.6907 -0.3600
 2462TIP3    H228802   0.332   4.224  11.351 -2.2234 -0.7019 -0.6542
 2463TIP3   OH228803   1.641   5.815   3.765 -0.1446 -0.2698  0.1616
 2463TIP3    H128804   1.685   5.837   3.682 -0.1971 -1.0140 -0.0739
 2463TIP3    H228805   1.561   5.868   3.765  0.1626  0.2010  0.0332
 2464TIP3   OH228806   3.075   1.609  13.983 -0.0305  0.1780  0.0119
 2464TIP3    H128807   3.110   1.690  14.022 -0.7362  0.6002 -0.2029
 2464TIP3    H228808   3.150   1.566  13.944  0.3710  0.6905  0.2141
 2465TIP3   OH228809   2.341   0.970  13.898 -0.7025  0.1594 -0.2464
 2465TIP3    H128810   2.349   0.894  13.954  0.2813  0.4015 -0.0399
 2465TIP3    H228811   2.366   1.044  13.953 -4.6287  1.1294  0.5537
 2466TIP3   OH228812   1.904   6.660  16.621  0.2888 -0.2993  0.6361
 2466TIP3    H128813   1.881   6.749  16.592  1.3103 -0.0445  0.5670
 2466TIP3    H228814   1.832   6.634  16.678 -0.8957 -0.1240 -0.7342
 2467TIP3   OH228815   5.900   3.913   2.819 -0.2838  0.5643 -0.2294
 2467TIP3    H128816   5.895   3.997   2.774 -1.9251  0.9907  0.6790
 2467TIP3    H228817   5.879   3.848   2.752  0.2845  0.9213 -0.7657
 2468TIP3   OH228818   3.823   1.955  16.516 -0.3719  0.0726 -0.2303
 2468TIP3    H128819   3.868   2.040  16.523 -0.1767 -0.0111 -0.4743
 2468TIP3    H228820   3.810   1.941  16.423 -0.5815 -0.0755 -0.1806
 2469TIP3   OH228821   0.673   3.335   1.234 -0.4491 -0.3986  0.3148
 2469TIP3    H128822   0.602   3.396   1.258  0.8031  0.4549  2.0918
 2469TIP3    H228823   0.690   3.286   1.314  2.0631  0.5873  0.4775
 2470TIP3   OH228824   6.442   3.046  16.324  0.0506  0.2144 -0.0101
 2470TIP3    H128825   6.434   3.048  16.228  1.7007  0.1645 -0.1830
 2470TIP3    H228826   6.489   3.126  16.346  0.3280 -0.1256  0.6754
 2471TIP3   OH228827   4.061   1.811  16.512  0.2731 -0.1267  0.6056
 2471TIP3    H128828   4.001   1.736  16.515  0.8767 -0.5704  2.1580
 2471TIP3    H228829   4.004   1.888  16.523 -0.2789 -0.3675 -0.4146
 2472TIP3   OH228830   4.482   4.231   3.534 -0.1564 -0.2816 -0.2493
 2472TIP3    H128831   4.441   4.270   3.612  0.5277  0.1474 -0.0990
 2472TIP3    H228832   4.571   4.267   3.533 -0.0919 -0.4421 -1.1177
 2473TIP3   OH228833   1.867   5.035   3.582 -0.5642 -0.0173 -0.1716
 2473TIP3    H128834   1.791   5.053   3.527 -0.3024 -1.9240 -1.2749
 2473TIP3    H228835   1.833   4.977   3.650 -0.3584  0.1996  0.1150
 2474TIP3   OH228836   0.669   1.955   3.757 -0.7515  0.0085 -0.2576
 2474TIP3    H128837   0.677   2.041   3.716 -3.1008  0.0054 -0.8143
 2474TIP3    H228838   0.758   1.918   3.752 -0.1829  1.4844 -1.9930
 2475TIP3   OH228839   2.162   4.123   2.364  0.3852 -0.5705 -0.1278
 2475TIP3    H128840   2.250   4.150   2.391 -0.3854  1.3918  0.5256
 2475TIP3    H228841   2.130   4.069   2.436  1.0520 -1.3258 -0.3839
 2476TIP3   OH228842   5.387   5.262  11.593 -0.4048 -0.2068  0.4162
 2476TIP3    H128843   5.342   5.196  11.645 -1.0763 -0.4193 -0.4104
 2476TIP3    H228844   5.316   5.313  11.553  0.0080  2.4547  2.7207
 2477TIP3   OH228845   5.039   3.889   0.913 -0.3963  0.1085  0.1777
 2477TIP3    H128846   5.103   3.850   0.853  0.0069 -0.4930  0.9865
 2477TIP3    H228847   4.982   3.816   0.937 -0.3368  0.2643  0.8074
 2478TIP3   OH228848   6.792   2.771   1.240 -0.1363  0.0081  0.4381
 2478TIP3    H128849   6.836   2.760   1.156 -1.3193 -2.4657  0.0480
 2478TIP3    H228850   6.831   2.704   1.297 -0.0103  1.0322  1.6064
 2479TIP3   OH228851   5.265   0.289   3.796 -0.2104  0.2811 -0.4609
 2479TIP3    H128852   5.346   0.256   3.836  0.6313  2.1533 -0.5012
 2479TIP3    H228853   5.209   0.313   3.870  0.2205  1.1322 -0.3988
 2480TIP3   OH228854   5.706   5.643   2.771  0.1910 -0.0105  0.3822
 2480TIP3    H128855   5.747   5.725   2.743 -0.4228 -0.2801 -1.4599
 2480TIP3    H228856   5.681   5.659   2.862  0.6071  1.6386  0.2474
 2481TIP3   OH228857   0.578   5.452   6.056 -0.2152  0.1181  0.8312
 2481TIP3    H128858   0.660   5.475   6.013 -0.9661  1.8996  0.2418
 2481TIP3    H228859   0.526   5.532   6.054 -2.1594 -1.0470  0.7543
 2482TIP3   OH228860   1.444   2.274  12.065  0.1009  0.5138 -0.1270
 2482TIP3    H128861   1.368   2.278  12.007 -0.7397  0.1823  0.9179
 2482TIP3    H228862   1.442   2.357  12.112 -0.7477 -0.2497  1.2499
 2483TIP3   OH228863   1.281   2.720  16.930 -0.2948 -0.0571  0.0516
 2483TIP3    H128864   1.347   2.788  16.918 -1.4070  1.2196  0.9166
 2483TIP3    H228865   1.299   2.684  17.017 -0.9999  0.6307  0.4984
 2484TIP3   OH228866   5.641   1.749  13.172 -0.4496  0.1212  0.1685
 2484TIP3    H128867   5.678   1.717  13.255 -0.6064 -1.0673 -0.2048
 2484TIP3    H228868   5.548   1.763  13.192 -0.9680 -2.2282 -0.3290
 2485TIP3   OH228869   2.683   1.846  13.515 -0.0214 -0.0255 -0.1618
 2485TIP3    H128870   2.767   1.800  13.513  1.3024  2.1954  0.6869
 2485TIP3    H228871   2.623   1.785  13.558  1.7964 -0.7472  1.4938
 2486TIP3   OH228872   6.411   2.692  12.722 -1.0676 -0.1433  0.4878
 2486TIP3    H128873   6.402   2.680  12.627 -1.1171 -1.4815  0.6405
 2486TIP3    H228874   6.496   2.735  12.733 -0.2629 -1.4999 -0.0950
 2487TIP3   OH228875   3.247   6.682   0.508  0.4554 -0.2895  0.1409
 2487TIP3    H128876   3.253   6.630   0.428 -0.1496 -0.9635  0.5150
 2487TIP3    H228877   3.221   6.769   0.479  1.2279 -0.2573 -0.4731
 2488TIP3   OH228878   6.004   1.882   4.426 -0.5620 -0.2703  0.6208
 2488TIP3    H128879   5.950   1.835   4.489 -1.4312 -0.6395 -0.3723
 2488TIP3    H228880   5.951   1.885   4.346  1.3435 -1.8055 -0.8129
 2489TIP3   OH228881   2.573   3.390  11.265 -0.0927  0.4036  0.0607
 2489TIP3    H128882   2.499   3.380  11.325 -0.2686 -3.1414 -0.5017
 2489TIP3    H228883   2.539   3.441  11.192 -1.7407 -0.3897  0.2329
 2490TIP3   OH228884   1.989   0.759  16.011  0.3378 -0.3042  0.2019
 2490TIP3    H128885   1.924   0.737  16.078  0.4298  0.9508  0.7336
 2490TIP3    H228886   1.938   0.781  15.933  0.1126  0.6177  0.5992
 2491TIP3   OH228887   4.414   6.460   5.425  0.3344  0.4045  0.1686
 2491TIP3    H128888   4.489   6.485   5.478  0.7054  0.0863 -0.2064
 2491TIP3    H228889   4.450   6.443   5.338  0.5442 -3.8152  0.8752
 2492TIP3   OH228890   6.198   6.478  14.015 -0.2942 -0.5966  0.3199
 2492TIP3    H128891   6.265   6.516  14.073 -1.3554 -1.0679  1.9061
 2492TIP3    H228892   6.248   6.441  13.942  0.9741  1.3391  0.1205
 2493TIP3   OH228893   1.301   3.476   4.492  0.5277 -0.6849  0.2713
 2493TIP3    H128894   1.230   3.452   4.432  0.5073 -1.6952  0.6839
 2493TIP3    H228895   1.366   3.406   4.482  1.4747  0.2272 -0.1020
 2494TIP3   OH228896   2.434   6.015   5.999 -0.3969  0.3238  0.0818
 2494TIP3    H128897   2.387   5.931   5.991  0.5312 -0.4846  2.2486
 2494TIP3    H228898   2.365   6.078   6.023 -0.6378 -0.6265  2.1360
 2495TIP3   OH228899   4.007   0.827  16.850  0.4177  0.3439  0.5023
 2495TIP3    H128900   4.094   0.837  16.889  0.3878 -1.5721  1.1390
 2495TIP3    H228901   4.024   0.789  16.764  0.1938 -0.7705  0.9365
 2496TIP3   OH228902   4.636   2.856  14.724 -0.4137 -0.4315  0.2874
 2496TIP3    H128903   4.677   2.806  14.795 -1.1371 -0.9707  0.3373
 2496TIP3    H228904   4.662   2.810  14.644 -0.2084 -0.2598  0.2539
 2497TIP3   OH228905   4.299   2.098   6.550  0.5912 -0.7656  0.6052
 2497TIP3    H128906   4.257   2.109   6.464  1.2147  2.2276  0.5713
 2497TIP3    H228907   4.227   2.083   6.610 -0.0751 -0.5885 -0.1248
 2498TIP3   OH228908   0.185   0.406   4.187  0.3007  0.1086 -0.5487
 2498TIP3    H128909   0.249   0.429   4.119 -1.5737  0.9222 -2.1254
 2498TIP3    H228910   0.149   0.490   4.216 -1.5603 -0.4048 -1.2521
 2499TIP3   OH228911   4.800   6.683  15.797  0.5413  0.0678  0.4651
 2499TIP3    H128912   4.881   6.734  15.789 -0.4709  1.7918  0.5185
 2499TIP3    H228913   4.735   6.736  15.751 -0.0313 -2.6718 -2.1670
 2500TIP3   OH228914   1.091   5.700  12.343  0.7111  0.3175  0.3064
 2500TIP3    H128915   1.177   5.675  12.376  0.1993 -1.0744  0.6210
 2500TIP3    H228916   1.041   5.619  12.339 -0.3345  0.9748 -0.6708
 2501TIP3   OH228917   5.384   5.429   3.453  0.4062 -0.3127  0.3309
 2501TIP3    H128918   5.347   5.516   3.468  0.4800  0.3105 -2.5140
 2501TIP3    H228919   5.478   5.443   3.449  0.4263 -0.5278 -0.0294
 2502TIP3   OH228920   2.637   1.555   3.631 -0.9271 -0.2674 -0.5090
 2502TIP3    H128921   2.653   1.650   3.630  3.0180 -0.7744 -1.7897
 2502TIP3    H228922   2.567   1.544   3.695 -0.9986  3.4470  0.2954
 2503TIP3   OH228923   4.193   6.721  12.153  0.2976 -0.1394 -0.0273
 2503TIP3    H128924   4.186   6.702  12.060 -1.2475 -0.6670  0.1655
 2503TIP3    H228925   4.157   6.809  12.163  0.2331 -0.1775  0.0886
 2504TIP3   OH228926   2.785   0.082  15.490 -0.1887 -0.5902 -0.3318
 2504TIP3    H128927   2.816   0.171  15.506 -0.6316 -0.5629  0.4458
 2504TIP3    H228928   2.817   0.060  15.403  0.0447  0.2804 -0.4719
 2505TIP3   OH228929   0.019   6.171  12.364 -0.2645 -0.5581 -0.4605
 2505TIP3    H128930   0.027   6.260  12.398 -1.0445 -0.6265 -0.0801
 2505TIP3    H228931   0.110   6.140  12.356  0.0590  0.5932 -1.4878
 2506TIP3   OH228932   1.153   6.623  12.263 -0.3565  0.4301  0.4109
 2506TIP3    H128933   1.137   6.530  12.273  0.1301  0.4719  1.8681
 2506TIP3    H228934   1.218   6.629  12.193  0.6474 -0.4294  1.2487
 2507TIP3   OH228935   6.787   5.631  16.638  0.4067 -0.2697 -0.0103
 2507TIP3    H128936   6.807   5.611  16.546  0.3618 -2.3618  0.3983
 2507TIP3    H228937   6.704   5.679  16.634  0.0755 -0.8838 -1.0459
 2508TIP3   OH228938   2.473   5.039   0.516  0.0278 -0.4598  0.1975
 2508TIP3    H128939   2.465   5.053   0.610  2.4346  0.5059  0.3247
 2508TIP3    H228940   2.428   5.113   0.476  2.0063  1.0999  0.7014
 2509TIP3   OH228941   4.719   2.079   5.662  0.4941  0.3264 -0.2584
 2509TIP3    H128942   4.707   2.085   5.757 -0.4869  1.5291 -0.4327
 2509TIP3    H228943   4.748   1.989   5.647 -1.0462 -0.4306  1.0254
 2510TIP3   OH228944   1.598   5.511  13.051 -0.4083 -0.0211 -0.0167
 2510TIP3    H128945   1.618   5.599  13.017 -2.4039  0.4309 -0.1840
 2510TIP3    H228946   1.671   5.457  13.021  1.7283  1.8485  1.4524
 2511TIP3   OH228947   0.382   6.684   1.910  0.0176 -0.0712  0.0272
 2511TIP3    H128948   0.381   6.690   1.815  0.5598  0.0970  0.0311
 2511TIP3    H228949   0.406   6.772   1.939 -1.2005  0.1833  0.3547
 2512TIP3   OH228950   2.557   5.755  10.446 -0.3293  0.4567  0.0247
 2512TIP3    H128951   2.652   5.769  10.446 -0.2548 -0.0551  0.0137
 2512TIP3    H228952   2.539   5.718  10.360 -0.7271  1.7927 -0.5015
 2513TIP3   OH228953   0.704   5.844   0.509  0.3679  0.3018  0.3723
 2513TIP3    H128954   0.714   5.776   0.576  0.7871  0.0265  0.0323
 2513TIP3    H228955   0.657   5.914   0.554  1.4799  0.5182  1.2399
 2514TIP3   OH228956   3.277   2.426   6.089 -0.1059 -0.0750  0.8201
 2514TIP3    H128957   3.324   2.407   6.008 -1.8271 -0.4345 -0.1552
 2514TIP3    H228958   3.325   2.378   6.157 -0.3653 -2.3647 -0.5009
 2515TIP3   OH228959   0.769   1.242   0.809  0.4436  0.1894 -0.1288
 2515TIP3    H128960   0.772   1.239   0.904  0.9577  1.2297 -0.0979
 2515TIP3    H228961   0.822   1.167   0.781 -1.2382 -1.2494  0.3665
 2516TIP3   OH228962   3.342   3.041  17.123  0.8373  0.4039 -0.4201
 2516TIP3    H128963   3.393   3.082  17.053  1.8899 -2.7380 -1.6476
 2516TIP3    H228964   3.251   3.059  17.099  1.2270  1.4808 -1.1899
 2517TIP3   OH228965   5.180   6.648  11.058 -0.0405  0.4265  0.7886
 2517TIP3    H128966   5.230   6.567  11.070 -1.1054 -0.5383 -0.8252
 2517TIP3    H228967   5.237   6.704  11.006  1.2912  1.3819  3.1036
 2518TIP3   OH228968   1.803   4.292  14.947 -0.0986 -0.8289  0.8754
 2518TIP3    H128969   1.775   4.229  14.881  2.2894 -0.6293 -0.4310
 2518TIP3    H228970   1.812   4.375  14.899  0.8764 -0.4893  1.6089
 2519TIP3   OH228971   0.352   3.032   0.048  0.0304 -0.0341  0.0858
 2519TIP3    H128972   0.271   3.047  -0.001 -0.1593 -1.4845 -0.0832
 2519TIP3    H228973   0.340   3.081   0.130 -1.6273 -1.3146  0.6628
 2520TIP3   OH228974   2.662   5.382  14.297 -0.2148 -0.4093  0.5773
 2520TIP3    H128975   2.694   5.301  14.337  2.0422  0.3275  0.3904
 2520TIP3    H228976   2.742   5.430  14.273 -1.4990  1.0898 -0.8959
 2521TIP3   OH228977   5.325   6.531   2.868  0.2322 -0.3543 -0.2918
 2521TIP3    H128978   5.371   6.609   2.836 -0.3878  0.2271  0.2098
 2521TIP3    H228979   5.277   6.562   2.945 -1.0881 -0.9191 -0.8704
 2522TIP3   OH228980   0.877   3.629  16.800  0.1268  0.0401 -0.2210
 2522TIP3    H128981   0.843   3.680  16.874  1.4582  0.6054  0.0212
 2522TIP3    H228982   0.833   3.544  16.808  0.5351 -0.0487  1.4730
 2523TIP3   OH228983   4.424   3.757  15.019  0.2757 -0.0964 -0.1632
 2523TIP3    H128984   4.331   3.742  15.001 -0.3612  0.3057  2.4806
 2523TIP3    H228985   4.444   3.700  15.093  1.2378  2.2972  1.5150
 2524TIP3   OH228986   0.539   3.699  14.890  0.1755 -0.6293 -0.2267
 2524TIP3    H128987   0.460   3.678  14.939  0.0454 -1.9478 -0.9577
 2524TIP3    H228988   0.517   3.678  14.799 -0.7440  4.6969 -1.6011
 2525TIP3   OH228989   6.231   2.268  11.602 -0.0923  0.3590 -0.2005
 2525TIP3    H128990   6.277   2.268  11.518  1.0115  1.3044  0.3629
 2525TIP3    H228991   6.199   2.358  11.612 -1.6926 -0.1592 -0.3505
 2526TIP3   OH228992   0.545   1.610  11.763  0.0603  0.5285  0.5026
 2526TIP3    H128993   0.586   1.527  11.783 -1.1415 -0.0893  0.5352
 2526TIP3    H228994   0.478   1.621  11.830 -1.3047  0.4037 -0.7773
 2527TIP3   OH228995   4.137   1.683   2.841  0.3048 -0.3103 -0.5618
 2527TIP3    H128996   4.193   1.647   2.772  0.5216 -1.4350  0.1843
 2527TIP3    H228997   4.188   1.671   2.921 -1.0631 -1.5481  0.1640
 2528TIP3   OH228998   2.527   1.493  12.704  0.0729 -0.3672 -0.5116
 2528TIP3    H128999   2.549   1.516  12.614  0.6652  0.8022 -0.0874
 2528TIP3    H229000   2.596   1.533  12.757  0.2245 -1.7603  0.4183
 2529TIP3   OH229001   1.218   1.716  11.968  0.1763  0.1207 -0.6073
 2529TIP3    H129002   1.178   1.670  11.894  1.1079 -0.8088 -0.5563
 2529TIP3    H229003   1.157   1.786  11.988 -0.7598 -0.4407 -1.3906
 2530TIP3   OH229004   5.989   2.904  11.694 -0.4629 -0.6442  0.5172
 2530TIP3    H129005   5.966   2.944  11.610  1.0923  1.4251  0.9804
 2530TIP3    H229006   5.997   2.810  11.675 -2.9891 -0.6387 -0.9284
 2531TIP3   OH229007   0.232   5.483  16.095  0.9642 -0.2126 -0.6713
 2531TIP3    H129008   0.218   5.455  16.004  1.1866  1.1370 -1.1350
 2531TIP3    H229009   0.290   5.558  16.088 -0.0266  0.6868  0.4962
 2532TIP3   OH229010   4.505   2.614   5.106  0.2050 -0.0250 -0.0699
 2532TIP3    H129011   4.555   2.533   5.115 -0.8096 -0.5929  0.6086
 2532TIP3    H229012   4.456   2.602   5.024  0.8452  0.3480 -0.5104
 2533TIP3   OH229013   3.343   6.784  16.603 -0.0181  0.6375  0.0174
 2533TIP3    H129014   3.351   6.815  16.513  0.8841  1.6772  0.4364
 2533TIP3    H229015   3.389   6.849  16.655 -0.6769  0.1476  1.2624
 2534TIP3   OH229016   1.128   2.885  11.644 -0.3382  0.0078 -0.0049
 2534TIP3    H129017   1.119   2.938  11.564  0.7026  0.2593  0.0341
 2534TIP3    H229018   1.222   2.873  11.655 -0.5276 -1.5160  0.2207
 2535TIP3   OH229019   3.454   4.235   4.786 -0.7024 -0.1340  0.0062
 2535TIP3    H129020   3.383   4.222   4.849 -1.1807 -0.2091 -0.5347
 2535TIP3    H229021   3.516   4.292   4.831  0.9974 -3.3464  2.1356
 2536TIP3   OH229022   5.780   3.863   6.242 -0.1434 -0.0143 -0.0879
 2536TIP3    H129023   5.812   3.931   6.300  2.5313 -1.3853  0.2412
 2536TIP3    H229024   5.858   3.834   6.194 -1.3038 -2.2413 -0.8040
 2537TIP3   OH229025   5.000   2.106  14.285 -0.0538  0.0552  0.1916
 2537TIP3    H129026   4.982   2.156  14.206  2.3368  0.3065 -0.2766
 2537TIP3    H229027   5.093   2.121  14.302 -0.4306 -0.1422  2.9563
 2538TIP3   OH229028   0.976   3.016  13.329 -0.2509 -0.5818 -0.3354
 2538TIP3    H129029   1.033   3.087  13.298 -0.4669  0.3591  1.2972
 2538TIP3    H229030   1.029   2.971  13.395 -1.6891  0.9959  2.0371
 2539TIP3   OH229031   3.272   2.224   5.835  0.4915 -0.1234  0.2018
 2539TIP3    H129032   3.329   2.211   5.910  1.2153 -1.4475 -0.5400
 2539TIP3    H229033   3.190   2.181   5.860 -0.0663  1.3498  1.0668
 2540TIP3   OH229034   3.735   3.945   4.637  0.1092  0.6787  0.1736
 2540TIP3    H129035   3.822   3.931   4.674 -0.1947  2.0642  1.4778
 2540TIP3    H229036   3.753   3.977   4.548  0.8488 -1.6219 -0.5920
 2541TIP3   OH229037   2.641   0.820  14.254  0.0694  0.4130  0.2422
 2541TIP3    H129038   2.736   0.825  14.246  0.1095  1.2151  1.0956
 2541TIP3    H229039   2.612   0.782  14.171  1.0244  1.3889 -0.5688
 2542TIP3   OH229040   6.261   4.621  11.473 -0.1177  0.4744 -0.3229
 2542TIP3    H129041   6.313   4.671  11.410 -1.2840  1.3246 -0.6574
 2542TIP3    H229042   6.174   4.615  11.432 -0.8529  0.8657  1.1112
 2543TIP3   OH229043   6.317   2.747  11.507 -0.2582 -0.2840 -0.1561
 2543TIP3    H129044   6.227   2.729  11.532 -0.3504 -0.0136 -0.2897
 2543TIP3    H229045   6.318   2.740  11.412 -0.2886  0.3605 -0.2089
 2544TIP3   OH229046   0.673   6.435   4.280 -0.0314 -0.6254  0.1862
 2544TIP3    H129047   0.651   6.345   4.255 -0.8461 -0.6249  0.8512
 2544TIP3    H229048   0.654   6.438   4.374 -1.4221  0.6456 -0.0999
 2545TIP3   OH229049   0.794   0.992   3.007  0.3097  0.0179  0.4731
 2545TIP3    H129050   0.771   0.900   3.021  1.4474 -0.3496  0.0289
 2545TIP3    H229051   0.843   1.017   3.086  1.9931 -0.4579 -0.3695
 2546TIP3   OH229052   0.485   4.945   3.907 -0.0834 -0.4607  0.1142
 2546TIP3    H129053   0.533   5.013   3.955 -2.6678  2.3267 -0.9053
 2546TIP3    H229054   0.414   4.920   3.967 -1.3567  0.5841 -0.9071
 2547TIP3   OH229055   6.452   3.149   0.168 -0.4715 -0.2149  0.2712
 2547TIP3    H129056   6.498   3.070   0.141 -1.0624 -0.8362  1.0467
 2547TIP3    H229057   6.515   3.220   0.152  0.8515 -1.0587  1.4705
 2548TIP3   OH229058   1.051   3.442   1.330  0.4821 -0.2591 -0.9728
 2548TIP3    H129059   1.079   3.384   1.259 -0.4768 -0.3841 -1.2560
 2548TIP3    H229060   1.054   3.529   1.292 -0.2124 -0.3432 -1.2397
 2549TIP3   OH229061   2.834   5.485  15.280 -0.3034  0.1754  0.4554
 2549TIP3    H129062   2.929   5.493  15.289 -0.3237 -0.1642  1.0828
 2549TIP3    H229063   2.803   5.574  15.265 -0.0631  0.5830  2.1845
 2550TIP3   OH229064   0.427   6.738  16.071 -0.3486 -0.5771 -0.0097
 2550TIP3    H129065   0.486   6.811  16.091 -2.5811  0.5780  2.9374
 2550TIP3    H229066   0.382   6.765  15.991 -0.2724  0.7285  0.3672
 2551TIP3   OH229067   6.433   0.178  16.256  0.1923  0.2286 -0.1584
 2551TIP3    H129068   6.488   0.163  16.332  0.5852 -1.9372 -0.8016
 2551TIP3    H229069   6.354   0.126  16.272 -0.4045  0.9728 -0.5613
 2552TIP3   OH229070   5.711   1.371  11.751  0.3979 -0.0527  0.3876
 2552TIP3    H129071   5.765   1.450  11.754  1.1869 -0.5994  0.7943
 2552TIP3    H229072   5.641   1.393  11.689  1.5362  0.3962 -0.8088
 2553TIP3   OH229073   0.086   5.737  12.433  0.7181  0.1126  0.8128
 2553TIP3    H129074   0.153   5.785  12.385  0.1370  0.3790  0.2552
 2553TIP3    H229075   0.121   5.731  12.522  1.3248  0.5436  0.6154
 2554TIP3   OH229076   4.539   5.857  15.413 -0.3203 -0.0642  0.3703
 2554TIP3    H129077   4.569   5.780  15.461 -1.1683  0.1713  1.2968
 2554TIP3    H229078   4.596   5.928  15.443 -0.6123  0.0079  0.7523
 2555TIP3   OH229079   0.440   1.649   4.787  0.3773 -0.4620 -0.3990
 2555TIP3    H129080   0.422   1.579   4.725  0.5957 -0.3536 -0.5850
 2555TIP3    H229081   0.443   1.605   4.872  0.6276 -0.6999 -0.5286
 2556TIP3   OH229082   2.146   0.171  16.277 -0.1991  0.3702  0.1300
 2556TIP3    H129083   2.222   0.223  16.252 -0.4040  1.1035  0.9663
 2556TIP3    H229084   2.168   0.137  16.364 -1.4382  1.9357  1.1215
 2557TIP3   OH229085   2.136   3.526  14.126  0.4671  0.9581  0.0110
 2557TIP3    H129086   2.220   3.548  14.088 -0.9563  1.7237 -2.9351
 2557TIP3    H229087   2.100   3.609  14.156  0.3914  0.7524  0.5036
 2558TIP3   OH229088   6.271   1.114  14.404  0.7367  0.4330 -0.2842
 2558TIP3    H129089   6.276   1.036  14.460 -1.6118  0.7823  0.5275
 2558TIP3    H229090   6.290   1.187  14.464  1.1164  0.6148 -0.6228
 2559TIP3   OH229091   5.303   2.562  12.947  0.1949 -0.1682 -0.0613
 2559TIP3    H129092   5.356   2.611  13.010  0.9481 -1.8698  0.6848
 2559TIP3    H229093   5.223   2.614  12.937 -0.3010 -0.2246  2.9137
 2560TIP3   OH229094   5.039   2.591  13.350  0.1905  0.3248  0.2827
 2560TIP3    H129095   4.984   2.535  13.294 -1.1754  0.5555  1.3366
 2560TIP3    H229096   5.124   2.591  13.307 -0.0980 -1.6019 -0.3787
 2561TIP3   OH229097   3.887   5.514  13.781 -0.1626 -0.4637 -0.5272
 2561TIP3    H129098   3.974   5.484  13.808  1.4685  1.7595 -2.7605
 2561TIP3    H229099   3.857   5.569  13.852  0.9553 -0.0720 -0.3429
 2562TIP3   OH229100   0.155   1.486  16.412 -0.0734 -0.3621 -0.2924
 2562TIP3    H129101   0.249   1.491  16.394  0.5851 -1.8582  2.1830
 2562TIP3    H229102   0.113   1.502  16.327  2.3589  1.2186 -1.3021
 2563TIP3   OH229103   0.288   5.386  14.364 -0.0296  0.7603  0.2208
 2563TIP3    H129104   0.194   5.375  14.346  0.1947 -0.0453 -0.4927
 2563TIP3    H229105   0.297   5.478  14.388 -1.1850  0.5993  1.4239
 2564TIP3   OH229106   4.287   3.204   4.375  0.6114 -0.0887  0.6638
 2564TIP3    H129107   4.374   3.240   4.391  1.0301 -0.8021  0.0279
 2564TIP3    H229108   4.233   3.280   4.354  0.4044  0.7246  3.6490
 2565TIP3   OH229109   3.201   3.492  15.699  0.2170 -0.0717  0.1065
 2565TIP3    H129110   3.125   3.469  15.646  0.0819  0.1655  0.1936
 2565TIP3    H229111   3.214   3.418  15.758 -1.2459  0.7575  1.5535
 2566TIP3   OH229112   1.510   5.116   4.061  0.4645 -0.3157 -0.1014
 2566TIP3    H129113   1.564   5.041   4.084 -0.0615 -0.1734  1.7513
 2566TIP3    H229114   1.572   5.189   4.058  1.1809 -0.9350 -3.0704
 2567TIP3   OH229115   0.717   5.163  14.258 -0.0150  0.0568  0.2769
 2567TIP3    H129116   0.636   5.142  14.212  0.0694  0.7424 -0.1871
 2567TIP3    H229117   0.787   5.133  14.200  0.0831  0.4215  0.2071
 2568TIP3   OH229118   4.771   2.870  15.732  0.4269 -0.5219  0.5872
 2568TIP3    H129119   4.748   2.948  15.782 -0.0602 -1.2116  1.4919
 2568TIP3    H229120   4.698   2.858  15.671  1.0968  0.4100 -0.4103
 2569TIP3   OH229121   3.312   6.335   6.141 -0.6792 -0.7586 -0.1096
 2569TIP3    H129122   3.362   6.255   6.126  0.8174 -0.0968  1.0242
 2569TIP3    H229123   3.237   6.308   6.194 -1.6464 -1.7912 -1.9276
 2570TIP3   OH229124   0.159   5.145   2.567 -0.0186 -0.9180  0.1532
 2570TIP3    H129125   0.230   5.094   2.606  0.3142 -0.3310  0.3347
 2570TIP3    H229126   0.083   5.126   2.623  0.2037 -0.8943  0.4706
 2571TIP3   OH229127   3.039   0.272   1.801  0.9092  0.4883 -0.0780
 2571TIP3    H129128   3.019   0.218   1.878  0.3156  0.1407 -0.4744
 2571TIP3    H229129   3.062   0.358   1.838  0.8771  0.2553  0.4981
 2572TIP3   OH229130   3.364   3.066  10.700  0.1841  0.3111 -0.1643
 2572TIP3    H129131   3.353   3.154  10.665  3.0903 -0.3005 -3.0297
 2572TIP3    H229132   3.301   3.013  10.652  2.2192 -0.0142 -2.6845
 2573TIP3   OH229133   2.726   5.222   2.200  0.8978 -0.2854  0.4195
 2573TIP3    H129134   2.755   5.154   2.138 -0.7635 -1.6839  1.0787
 2573TIP3    H229135   2.652   5.264   2.155  1.6879  0.8915  0.1715
 2574TIP3   OH229136   5.488   0.006   0.335 -0.1121  0.1343 -0.1383
 2574TIP3    H129137   5.465  -0.074   0.289 -0.4756  0.0447  0.1896
 2574TIP3    H229138   5.434   0.004   0.415  0.7351  0.1293  0.4444
 2575TIP3   OH229139   5.432   0.857   0.554 -0.0613 -0.2429 -0.1588
 2575TIP3    H129140   5.379   0.921   0.602  1.5827 -0.2298  1.7730
 2575TIP3    H229141   5.523   0.885   0.568  0.7994 -3.2907  1.3460
 2576TIP3   OH229142   3.922   0.106  15.565 -0.4517 -0.2588 -0.5052
 2576TIP3    H129143   3.982   0.080  15.495  0.2144 -1.3865  0.4537
 2576TIP3    H229144   3.928   0.202  15.566  1.1238 -0.3210 -0.6437
 2577TIP3   OH229145   6.222   6.589  12.042 -0.0362 -0.1167 -0.0354
 2577TIP3    H129146   6.203   6.658  12.106 -0.7330 -1.1750  0.9300
 2577TIP3    H229147   6.284   6.630  11.981 -1.8841  2.0073 -0.6504
 2578TIP3   OH229148   2.375   3.055   5.959  0.3772  0.2925 -0.5996
 2578TIP3    H129149   2.466   3.032   5.941  0.1855  0.6138 -2.0881
 2578TIP3    H229150   2.375   3.151   5.960 -0.2234  0.3402 -2.3263
 2579TIP3   OH229151   4.183   4.474   2.044 -0.3372 -0.6399 -0.3842
 2579TIP3    H129152   4.107   4.511   1.999  0.4399 -0.8269 -1.9174
 2579TIP3    H229153   4.244   4.547   2.052 -0.1338 -0.8083 -0.3882
 2580TIP3   OH229154   3.495   6.434  15.019 -0.1317  0.5468  0.2016
 2580TIP3    H129155   3.576   6.409  15.063  1.4034 -0.2729 -2.8113
 2580TIP3    H229156   3.450   6.351  15.003 -0.8829  0.8741  0.5501
 2581TIP3   OH229157   5.673   5.774   3.858 -0.3881 -0.0261  0.5680
 2581TIP3    H129158   5.676   5.851   3.915  0.0780 -0.4628  1.1550
 2581TIP3    H229159   5.657   5.701   3.919 -2.2565 -0.2463 -0.1212
 2582TIP3   OH229160   5.325   5.834  15.228  0.3782  0.3646  0.0548
 2582TIP3    H129161   5.258   5.895  15.198  0.1929  0.1440  0.0127
 2582TIP3    H229162   5.278   5.775  15.287  0.5559  0.2633  0.0956
 2583TIP3   OH229163   1.661   2.761  13.863 -0.3019 -0.2373  0.1873
 2583TIP3    H129164   1.606   2.820  13.914 -0.2557 -1.0330  1.1907
 2583TIP3    H229165   1.725   2.727  13.926  0.6649 -0.1557 -0.7160
 2584TIP3   OH229166   4.020   6.466  12.011 -0.8752 -0.2716 -0.3310
 2584TIP3    H129167   4.002   6.545  11.960 -0.6331 -0.1256 -0.1954
 2584TIP3    H229168   3.938   6.446  12.055 -0.6410  0.5444  0.5003
 2585TIP3   OH229169   3.400   3.338   2.433  0.0589  0.5862  1.0069
 2585TIP3    H129170   3.427   3.278   2.503  0.1309 -1.8685 -0.9824
 2585TIP3    H229171   3.308   3.355   2.450 -0.3381 -1.2664  0.8686
 2586TIP3   OH229172   1.925   2.453  11.424 -0.1070  0.0764  0.0060
 2586TIP3    H129173   1.920   2.491  11.512  0.6404  0.1220  0.0320
 2586TIP3    H229174   1.877   2.514  11.368  0.3173  0.5877  0.1998
 2587TIP3   OH229175   3.077   6.639  13.772 -0.6876 -0.1850  0.1434
 2587TIP3    H129176   3.015   6.568  13.762  0.1809 -0.8378 -0.8351
 2587TIP3    H229177   3.082   6.679  13.685 -0.9701  0.9185  0.6178
 2588TIP3   OH229178   3.168   3.235  11.118  0.3153  0.1812 -0.5901
 2588TIP3    H129179   3.155   3.329  11.128 -1.1879 -0.1381  1.0791
 2588TIP3    H229180   3.148   3.217  11.026 -1.1063  1.2704 -0.5267
 2589TIP3   OH229181   1.144   4.588   2.966 -0.2834  0.2261  0.1070
 2589TIP3    H129182   1.102   4.587   2.880 -0.9627  0.1268  0.4376
 2589TIP3    H229183   1.098   4.656   3.015  0.0023  0.1808  0.4449
 2590TIP3   OH229184   4.843   3.718   2.870  0.8550  0.1669  0.2854
 2590TIP3    H129185   4.839   3.647   2.805 -0.1531  1.0464 -0.6525
 2590TIP3    H229186   4.868   3.674   2.951 -1.8175 -1.6526  0.2604
 2591TIP3   OH229187   5.374   0.792  16.244  0.1456 -0.0493  0.1481
 2591TIP3    H129188   5.345   0.880  16.217  0.7401 -0.1029 -0.7093
 2591TIP3    H229189   5.425   0.807  16.323 -1.0876  0.1911  0.9282
 2592TIP3   OH229190   1.048   1.247  11.556  0.7509 -0.2744  0.1915
 2592TIP3    H129191   0.967   1.202  11.530  1.0251 -0.4834 -0.3165
 2592TIP3    H229192   1.041   1.334  11.517  0.9687 -0.4443 -0.2381
 2593TIP3   OH229193   5.868   5.598   1.342 -0.6113  0.2790 -0.1943
 2593TIP3    H129194   5.958   5.599   1.310 -0.1300  1.9426  1.0349
 2593TIP3    H229195   5.843   5.690   1.345 -2.1051 -0.1097  0.1896
 2594TIP3   OH229196   5.770   1.190   2.170 -0.0170  0.0591  0.3891
 2594TIP3    H129197   5.853   1.175   2.215 -0.1345 -1.5015  0.1278
 2594TIP3    H229198   5.736   1.103   2.151 -0.0455  0.5981 -2.5749
 2595TIP3   OH229199   4.956   5.197   1.193 -0.0105  0.2278  0.2946
 2595TIP3    H129200   4.984   5.160   1.109  1.0066  0.6585  0.4319
 2595TIP3    H229201   4.991   5.286   1.193 -2.3554  1.2469 -0.0086
 2596TIP3   OH229202   4.805   1.036  14.640 -0.2563 -0.1264  0.0385
 2596TIP3    H129203   4.868   1.010  14.573  0.6808  2.9228 -0.4082
 2596TIP3    H229204   4.854   1.035  14.722 -0.4960 -0.6457  0.1840
 2597TIP3   OH229205   6.683   4.405  11.659  0.0805  0.1658  0.9560
 2597TIP3    H129206   6.734   4.326  11.644  0.9906  0.9441 -0.2982
 2597TIP3    H229207   6.707   4.463  11.586 -2.3513  0.7043  0.4953
 2598TIP3   OH229208   3.757   0.937   2.634  0.1435 -0.2047  0.3965
 2598TIP3    H129209   3.824   0.869   2.625  0.8136  0.2334  1.7750
 2598TIP3    H229210   3.803   1.019   2.617 -0.1617  0.0559  0.7949
 2599TIP3   OH229211   3.803   1.563  15.278 -0.3276 -0.6201  0.6167
 2599TIP3    H129212   3.728   1.582  15.222 -0.1510  2.8117  1.3254
 2599TIP3    H229213   3.879   1.576  15.221 -0.2059  0.2118  0.9611
 2600TIP3   OH229214   2.425   4.385   5.979  0.7416 -0.8757 -0.3729
 2600TIP3    H129215   2.448   4.395   6.071 -0.7347 -0.4401 -0.0256
 2600TIP3    H229216   2.458   4.465   5.938 -1.9877  0.8496  0.5333
 2601TIP3   OH229217   3.232   1.129   0.225 -0.1765 -0.5853 -0.5187
 2601TIP3    H129218   3.204   1.173   0.146  2.7002  0.5514 -1.0130
 2601TIP3    H229219   3.263   1.043   0.195 -0.2813 -0.6555 -0.4274
 2602TIP3   OH229220   5.215   4.922  11.701  0.0248 -0.3094 -0.0675
 2602TIP3    H129221   5.183   4.854  11.761  0.1931  0.0479  0.4300
 2602TIP3    H229222   5.141   4.938  11.643 -1.3161  1.5573  1.9768
 2603TIP3   OH229223   5.833   4.825   3.246 -0.2732 -0.5321 -0.2394
 2603TIP3    H129224   5.803   4.834   3.336 -0.0881  0.3138 -0.2551
 2603TIP3    H229225   5.899   4.755   3.249 -0.1168 -0.3643  0.3202
 2604TIP3   OH229226   1.402   1.416   3.199 -0.6935  0.2028  0.0212
 2604TIP3    H129227   1.461   1.401   3.126 -0.3833  0.8398  0.1345
 2604TIP3    H229228   1.326   1.459   3.160 -0.4068  0.7967  0.1156
 2605TIP3   OH229229   1.110   2.710  13.214 -0.9856 -0.1446  0.6060
 2605TIP3    H129230   1.192   2.758  13.220 -1.3893  0.5561  0.6905
 2605TIP3    H229231   1.102   2.686  13.122 -0.8870  0.1497  0.5213
 2606TIP3   OH229232   0.592   6.005  12.382  0.1237 -0.4949  0.6497
 2606TIP3    H129233   0.511   6.053  12.364 -0.3230 -1.8426 -1.2245
 2606TIP3    H229234   0.642   6.064  12.438 -0.0042  2.6063 -2.2000
 2607TIP3   OH229235   0.454   1.065   3.146  0.1731  0.1400 -0.2095
 2607TIP3    H129236   0.380   1.091   3.200 -0.3397  0.0551 -0.8696
 2607TIP3    H229237   0.465   0.971   3.165 -0.0561  0.0917 -0.3178
 2608TIP3   OH229238   0.827   3.091  12.641 -0.1300 -0.2106  0.7074
 2608TIP3    H129239   0.806   3.184  12.638  0.2644 -0.1510 -0.6940
 2608TIP3    H229240   0.922   3.087  12.628 -0.4786 -0.9057 -2.4210
 2609TIP3   OH229241   6.488   5.551  13.430 -0.2117  0.2022  0.2386
 2609TIP3    H129242   6.561   5.518  13.378  0.3828  1.3233  0.3464
 2609TIP3    H229243   6.517   5.544  13.520 -0.8962 -0.8965  0.3903
 2610TIP3   OH229244   6.451   5.552  10.359  0.3954 -0.8214  0.2397
 2610TIP3    H129245   6.535   5.556  10.404  0.9001  1.2395 -0.7886
 2610TIP3    H229246   6.390   5.519  10.426  1.3450  0.9144  2.0739
 2611TIP3   OH229247   2.682   5.875   1.632  0.0445 -0.5365 -0.0723
 2611TIP3    H129248   2.635   5.828   1.564 -0.9370  0.3107  0.0008
 2611TIP3    H229249   2.649   5.965   1.627 -0.2705 -0.5214  1.7036
 2612TIP3   OH229250   4.885   6.161  15.083 -0.4187  0.8430  0.1496
 2612TIP3    H129251   4.876   6.071  15.115  0.5217 -0.0057 -1.8191
 2612TIP3    H229252   4.963   6.160  15.028 -0.1988  2.9597  0.3186
 2613TIP3   OH229253   5.715   3.912  11.315  0.3976 -0.0341  0.6417
 2613TIP3    H129254   5.693   3.872  11.231  0.5045 -1.8775  1.4456
 2613TIP3    H229255   5.793   3.965  11.296  0.7141 -0.8069 -0.3391
 2614TIP3   OH229256   6.183   0.901  12.782  0.0623  0.0096 -0.6042
 2614TIP3    H129257   6.163   0.907  12.876  0.0615 -0.3298 -0.5830
 2614TIP3    H229258   6.099   0.908  12.738  0.0721  0.2644 -0.5839
 2615TIP3   OH229259   3.822   6.712   3.189 -0.5957 -0.3028 -0.2084
 2615TIP3    H129260   3.838   6.759   3.271 -0.6272  0.5035 -0.6612
 2615TIP3    H229261   3.865   6.627   3.202 -0.3437 -0.0723  0.5272
 2616TIP3   OH229262   4.651   3.020  13.683  0.6247  0.2114  0.5625
 2616TIP3    H129263   4.723   3.068  13.643  1.3407 -0.7252  0.6851
 2616TIP3    H229264   4.680   2.928  13.681 -1.7596 -0.6354 -2.0937
 2617TIP3   OH229265   4.145   1.891   0.291  0.8178 -0.1874  0.3496
 2617TIP3    H129266   4.128   1.914   0.382 -2.1238 -0.0491 -0.1521
 2617TIP3    H229267   4.149   1.974   0.245  0.9982 -0.3039  0.1528
 2618TIP3   OH229268   6.681   2.411   4.341  0.2974 -0.3492 -0.0003
 2618TIP3    H129269   6.615   2.431   4.408  1.1329  0.3299  0.6392
 2618TIP3    H229270   6.765   2.426   4.384  0.8569  0.5252 -1.3119
 2619TIP3   OH229271   2.475   2.159   2.512  0.2489 -0.3018 -0.1356
 2619TIP3    H129272   2.387   2.175   2.546  0.5624 -3.0552  2.3281
 2619TIP3    H229273   2.526   2.235   2.540 -0.9024  0.3455  0.2461
 2620TIP3   OH229274   1.009   0.263   4.053  0.3672  0.2394  0.3985
 2620TIP3    H129275   1.011   0.169   4.038 -0.5669  0.3925 -0.7993
 2620TIP3    H229276   1.077   0.278   4.119  1.0771 -1.1567  0.0202
 2621TIP3   OH229277   2.876   1.244  17.049  0.3271 -0.1665 -0.0332
 2621TIP3    H129278   2.817   1.291  17.108 -0.6333 -1.3232 -0.0308
 2621TIP3    H229279   2.830   1.162  17.029  1.2554 -0.4250 -1.2619
 2622TIP3   OH229280   3.446   0.081   4.298  0.4380 -0.0903 -0.4869
 2622TIP3    H129281   3.482   0.149   4.355  1.6446  0.0030 -1.3177
 2622TIP3    H229282   3.370   0.048   4.345  1.5882 -0.2701  1.3516
 2623TIP3   OH229283   2.275   4.980   5.142  0.1641  0.2757 -0.0633
 2623TIP3    H129284   2.293   4.893   5.108 -2.8238 -0.3639 -0.2674
 2623TIP3    H229285   2.271   4.967   5.237 -2.0479 -0.3093 -0.1660
 2624TIP3   OH229286   5.804   1.267  13.570  0.0767 -0.4654 -0.3402
 2624TIP3    H129287   5.892   1.280  13.535  0.2755 -4.1080 -1.5204
 2624TIP3    H229288   5.816   1.265  13.665  0.5670  2.7936 -0.2208
 2625TIP3   OH229289   5.008   1.565  15.615  0.0395 -0.4943  0.1791
 2625TIP3    H129290   5.079   1.617  15.578 -0.8494  0.2747 -0.4895
 2625TIP3    H229291   4.934   1.581  15.557 -1.0845 -0.1515  1.6605
 2626TIP3   OH229292   6.541   6.517   5.035  0.0236  0.3014 -0.2612
 2626TIP3    H129293   6.605   6.544   5.101  0.4345  1.4367 -1.0975
 2626TIP3    H229294   6.587   6.453   4.981 -0.5855 -1.2939  1.0258
 2627TIP3   OH229295   2.501   5.572  12.843  0.3845  0.7375  1.1308
 2627TIP3    H129296   2.419   5.587  12.795  1.3430  1.0480 -0.5009
 2627TIP3    H229297   2.485   5.493  12.895 -1.0436  0.9688  1.0696
 2628TIP3   OH229298   2.059   5.238   1.238 -0.0060 -0.4025 -0.1119
 2628TIP3    H129299   2.048   5.327   1.271  0.8863 -0.3299  0.0056
 2628TIP3    H229300   1.972   5.199   1.246 -0.8349  0.9911 -1.7718
 2629TIP3   OH229301   0.928   2.388  16.442 -0.0464 -0.3077 -0.2678
 2629TIP3    H129302   0.943   2.454  16.509  1.7678 -1.9889  1.0943
 2629TIP3    H229303   0.987   2.412  16.371  0.7426 -0.5357  0.3000
 2630TIP3   OH229304   2.437   3.844   2.638  0.0164 -0.0259  0.1658
 2630TIP3    H129305   2.471   3.925   2.677  1.8100  1.3233 -3.6857
 2630TIP3    H229306   2.354   3.829   2.683 -0.3243  3.8831  1.2095
 2631TIP3   OH229307   0.708   5.007   3.738 -0.2621  0.3550  0.0773
 2631TIP3    H129308   0.619   4.992   3.768 -0.1481  1.2671  0.9262
 2631TIP3    H229309   0.761   5.005   3.818  0.4340  0.1563 -0.3761
 2632TIP3   OH229310   1.852   1.138   0.940  0.0339 -0.2016 -0.0081
 2632TIP3    H129311   1.800   1.212   0.971 -1.3304 -0.1145 -2.3312
 2632TIP3    H229312   1.789   1.067   0.926  1.0392 -1.1993  0.2925
 2633TIP3   OH229313   1.441   3.562   0.076 -0.1186 -0.3404  0.4287
 2633TIP3    H129314   1.501   3.634   0.056  0.6908 -1.1968 -0.3527
 2633TIP3    H229315   1.462   3.494   0.011 -2.2132 -0.5357 -0.1196
 2634TIP3   OH229316   2.270   3.553  15.614  0.0297  0.6857 -0.3886
 2634TIP3    H129317   2.335   3.492  15.648 -2.1994 -1.6221 -0.0152
 2634TIP3    H229318   2.286   3.554  15.519  2.2914  2.3574 -0.0847
 2635TIP3   OH229319   4.434   0.590  14.232  0.3526  0.4288  0.4408
 2635TIP3    H129320   4.467   0.500  14.240  1.3658  0.8249  0.8064
 2635TIP3    H229321   4.418   0.601  14.138  1.8051  0.3902  0.1614
 2636TIP3   OH229322   5.239   4.114   0.359  0.1550 -0.0834  0.2641
 2636TIP3    H129323   5.225   4.059   0.282  0.4862 -1.9241  1.4351
 2636TIP3    H229324   5.331   4.099   0.382  0.1910  0.8145  0.7524
 2637TIP3   OH229325   3.911   6.008  10.335 -0.1467 -0.0264 -0.6184
 2637TIP3    H129326   3.892   6.083  10.278 -0.2544 -0.9233 -1.8116
 2637TIP3    H229327   3.854   6.020  10.411 -0.1679  1.0852 -0.7986
 2638TIP3   OH229328   1.091   0.617  14.541 -0.4261 -0.3617 -0.4739
 2638TIP3    H129329   1.145   0.544  14.572  0.6437  0.5350 -0.1598
 2638TIP3    H229330   1.061   0.661  14.621  1.3270  1.2300 -0.6323
 2639TIP3   OH229331   0.702   1.864  12.003  0.3428  0.0130 -0.6090
 2639TIP3    H129332   0.628   1.804  11.994 -0.5195  0.9542 -0.1500
 2639TIP3    H229333   0.778   1.808  12.013 -0.1358 -1.0086 -2.2549
 2640TIP3   OH229334   5.357   1.885  11.828  0.0726 -0.0315  0.1827
 2640TIP3    H129335   5.382   1.862  11.739  0.8524  0.9146  0.1370
 2640TIP3    H229336   5.317   1.805  11.864  1.9884 -1.2290 -0.1865
 2641TIP3   OH229337   5.868   2.233   4.830  0.0780 -0.0185  0.4195
 2641TIP3    H129338   5.773   2.219   4.825  0.1260 -0.7332  1.2964
 2641TIP3    H229339   5.877   2.325   4.854 -0.4332 -0.2307  1.4901
 2642TIP3   OH229340   2.412   3.391  15.781 -0.2675 -0.1680  0.2381
 2642TIP3    H129341   2.468   3.381  15.858  0.0057 -0.7174 -0.0188
 2642TIP3    H229342   2.363   3.309  15.777 -3.0424  1.2708  1.9330
 2643TIP3   OH229343   4.437   3.691   1.170 -0.5666 -0.3537 -0.1773
 2643TIP3    H129344   4.516   3.728   1.129 -1.0512 -0.6337 -1.4146
 2643TIP3    H229345   4.366   3.711   1.109 -1.8296  1.4843  1.7391
 2644TIP3   OH229346   5.471   3.714   1.895  0.2092  0.2135  0.5666
 2644TIP3    H129347   5.455   3.808   1.886 -0.4601  0.1111  0.5918
 2644TIP3    H229348   5.400   3.684   1.952 -0.5262 -0.5847 -0.7397
 2645TIP3   OH229349   6.234   6.738  15.040 -0.0870 -0.0212 -0.4655
 2645TIP3    H129350   6.172   6.758  15.110 -0.4639 -0.7055 -0.5867
 2645TIP3    H229351   6.306   6.800  15.052 -1.0035  1.0790 -0.5971
 2646TIP3   OH229352   1.218   3.468   4.945 -0.0040  0.1204 -0.0104
 2646TIP3    H129353   1.179   3.470   4.857 -0.2278  0.6889  0.1002
 2646TIP3    H229354   1.256   3.380   4.952 -4.2491 -1.8873  1.2098
 2647TIP3   OH229355   5.011   4.085   1.640  0.3586 -0.3469  0.1634
 2647TIP3    H129356   4.991   4.005   1.688 -2.1066  0.3611  0.4509
 2647TIP3    H229357   4.937   4.097   1.581  0.3286  2.0515  0.5950
 2648TIP3   OH229358   0.847   5.555   5.040 -0.9872  0.1683  0.1066
 2648TIP3    H129359   0.938   5.525   5.043 -0.9870  0.1297 -0.2666
 2648TIP3    H229360   0.846   5.632   5.096 -0.9799 -0.5114  1.0662
 2649TIP3   OH229361   6.206   3.727  16.523 -0.5754 -0.3480 -0.3253
 2649TIP3    H129362   6.197   3.716  16.618  1.2728  1.3929  0.1130
 2649TIP3    H229363   6.116   3.732  16.491 -1.2316 -0.4130  1.4040
 2650TIP3   OH229364   0.689   6.223  12.981  0.7712  0.1331  0.8778
 2650TIP3    H129365   0.760   6.204  13.043  1.7502 -2.1736 -0.8147
 2650TIP3    H229366   0.639   6.142  12.977 -0.3378  0.8443 -0.0301
 2651TIP3   OH229367   2.751   5.816   5.186  0.3304 -1.0071  0.8400
 2651TIP3    H129368   2.738   5.910   5.184 -3.6754 -1.3921  0.9727
 2651TIP3    H229369   2.819   5.800   5.120 -0.0117  1.8320 -0.3412
 2652TIP3   OH229370   2.114   5.328  14.505 -0.1793  0.4042 -0.5097
 2652TIP3    H129371   2.108   5.250  14.560 -1.8376 -0.5637 -1.9823
 2652TIP3    H229372   2.179   5.383  14.549 -0.5756 -0.8218  1.7710
 2653TIP3   OH229373   6.310   2.095   1.267  0.2696 -0.5584  0.3960
 2653TIP3    H129374   6.322   2.139   1.183  0.6378 -0.7014  0.3703
 2653TIP3    H229375   6.218   2.111   1.290  0.0313 -0.9251 -0.2690
 2654TIP3   OH229376   2.725   5.269  12.345  0.0140 -0.2162 -1.1871
 2654TIP3    H129377   2.651   5.265  12.406  1.9097  1.8203  1.4909
 2654TIP3    H229378   2.739   5.363  12.330  3.4641 -0.3286  0.4023
 2655TIP3   OH229379   5.283   4.953  12.292  0.4828  0.3302 -0.0371
 2655TIP3    H129380   5.247   4.898  12.222  1.3104  0.1694 -0.3519
 2655TIP3    H229381   5.290   5.040  12.254  0.5660  0.3292 -0.0237
 2656TIP3   OH229382   5.773   1.639   0.347  0.4727  0.2406 -0.2137
 2656TIP3    H129383   5.719   1.716   0.330  0.2465 -0.2050 -1.5784
 2656TIP3    H229384   5.738   1.603   0.429  0.8570  1.8031  0.6852
 2657TIP3   OH229385   3.477   3.480   1.895  0.3276  0.2790  0.3153
 2657TIP3    H129386   3.383   3.492   1.882  0.1348 -1.4192 -0.1987
 2657TIP3    H229387   3.500   3.541   1.964 -1.4465 -0.2531  1.4366
 2658TIP3   OH229388   3.364   1.363  15.454 -0.5665  0.1127  0.2845
 2658TIP3    H129389   3.296   1.298  15.472  0.0666 -0.6966 -0.1644
 2658TIP3    H229390   3.353   1.384  15.361  0.8261 -1.3150 -0.2685
 2659TIP3   OH229391   4.896   5.896  14.905 -0.0204 -0.3510 -0.0625
 2659TIP3    H129392   4.870   5.804  14.908  0.7536 -0.6456 -1.3308
 2659TIP3    H229393   4.816   5.944  14.925 -0.2769 -1.2872  1.3457
 2660TIP3   OH229394   6.676   3.558  10.780 -0.3946 -0.5404  0.6173
 2660TIP3    H129395   6.636   3.473  10.762  0.4590 -1.2147  1.8149
 2660TIP3    H229396   6.769   3.545  10.765 -0.4396  0.6894 -0.9434
 2661TIP3   OH229397   3.377   2.960  14.158 -0.0411 -0.0932 -0.6027
 2661TIP3    H129398   3.473   2.961  14.148  0.0134 -0.3812 -0.1431
 2661TIP3    H229399   3.359   3.032  14.217 -0.1585  0.2589 -1.0602
 2662TIP3   OH229400   4.018   1.554  15.056  0.0866  0.0310  0.3114
 2662TIP3    H129401   4.088   1.618  15.071  0.2706  0.0885 -0.7626
 2662TIP3    H229402   3.994   1.565  14.964  1.9977 -3.2511 -0.7434
 2663TIP3   OH229403   3.857   2.904  15.099  0.2102  0.4879  0.0547
 2663TIP3    H129404   3.883   2.882  15.189 -0.1497 -0.1776  0.0023
 2663TIP3    H229405   3.784   2.965  15.110  0.1397  0.3779  0.2230
 2664TIP3   OH229406   3.049   5.975   3.664 -0.2890  0.3841 -0.2450
 2664TIP3    H129407   3.118   5.909   3.667 -1.7160 -1.2146 -0.7276
 2664TIP3    H229408   3.040   6.005   3.754 -0.6200 -1.2130  0.2828
 2665TIP3   OH229409   1.133   6.507   6.497  0.0798  0.4918 -0.2923
 2665TIP3    H129410   1.114   6.600   6.509 -2.1099  0.2152 -1.1740
 2665TIP3    H229411   1.052   6.470   6.462  0.9193 -1.7521 -0.0283
 2666TIP3   OH229412   0.064   4.432  16.917  0.0507  0.3009 -0.1526
 2666TIP3    H129413   0.130   4.370  16.888 -1.7727 -1.4334 -0.7465
 2666TIP3    H229414   0.069   4.429  17.013  0.1030 -0.6261 -0.1804
 2667TIP3   OH229415   5.487   5.853  14.185  0.2771  0.0766 -0.3791
 2667TIP3    H129416   5.511   5.857  14.278 -0.1582 -1.3052 -0.1780
 2667TIP3    H229417   5.443   5.936  14.168  2.0000  1.1559  0.1498
 2668TIP3   OH229418   0.576   2.523  16.052  0.4301 -0.1327 -0.3118
 2668TIP3    H129419   0.535   2.445  16.015 -2.3008  0.5175  1.0825
 2668TIP3    H229420   0.616   2.492  16.134 -1.1958 -0.0169  0.5595
 2669TIP3   OH229421   5.186   3.334  11.445 -0.0659 -0.0590 -0.6050
 2669TIP3    H129422   5.243   3.326  11.369  0.5531 -1.7673 -0.0117
 2669TIP3    H229423   5.111   3.277  11.425 -0.3727  0.2523 -0.3508
 2670TIP3   OH229424   0.686   0.186   4.745  0.1301 -0.2346  0.8366
 2670TIP3    H129425   0.755   0.249   4.767 -0.5834  0.6788  0.5060
 2670TIP3    H229426   0.664   0.206   4.654 -0.9021 -0.1903  1.0874
 2671TIP3   OH229427   3.833   5.577   5.017 -0.4924 -0.3475  0.2525
 2671TIP3    H129428   3.788   5.579   5.102  1.1441  1.6840  1.1771
 2671TIP3    H229429   3.921   5.547   5.037 -1.2109 -4.2819 -1.5345
 2672TIP3   OH229430   2.909   4.628  13.451  0.7074  0.6828 -0.5221
 2672TIP3    H129431   2.960   4.629  13.532 -1.0195 -0.6497  0.6348
 2672TIP3    H229432   2.828   4.582  13.473 -0.5243  1.7096 -2.6015
 2673TIP3   OH229433   3.146   4.057   0.982  0.3792 -0.3831  0.3429
 2673TIP3    H129434   3.151   4.065   1.077  1.5384 -1.7643  0.4320
 2673TIP3    H229435   3.118   3.966   0.968 -1.3559  0.2522 -0.6414
 2674TIP3   OH229436   1.789   0.875  15.835  0.3561 -0.4362  0.5177
 2674TIP3    H129437   1.768   0.801  15.778 -0.4276  0.8060 -0.8967
 2674TIP3    H229438   1.731   0.945  15.805  0.7436  0.6199  2.1155
 2675TIP3   OH229439   5.727   2.736  10.508  0.1033 -0.2203  0.3346
 2675TIP3    H129440   5.821   2.744  10.523  0.1633 -1.2283  0.5616
 2675TIP3    H229441   5.711   2.642  10.502 -0.8103 -0.0485 -0.2480
 2676TIP3   OH229442   1.124   6.168  12.137  0.2973 -0.3328 -0.4859
 2676TIP3    H129443   1.184   6.126  12.198  0.8623  0.6503 -0.3385
 2676TIP3    H229444   1.078   6.233  12.189 -0.8994 -1.0701 -0.6045
 2677TIP3   OH229445   1.369   3.735   4.761  0.0425 -0.0036 -0.1263
 2677TIP3    H129446   1.321   3.743   4.844 -0.6729 -1.1206 -0.4167
 2677TIP3    H229447   1.307   3.694   4.701  0.9577 -0.3328 -0.8699
 2678TIP3   OH229448   3.004   3.736  16.911 -0.1734 -0.8889  0.5785
 2678TIP3    H129449   3.007   3.818  16.863  1.4129 -0.3886  1.4583
 2678TIP3    H229450   2.920   3.739  16.958  0.2303  0.6445  1.2632
 2679TIP3   OH229451   5.417   0.862   2.761 -0.4122 -0.6370 -0.3016
 2679TIP3    H129452   5.503   0.902   2.776 -0.2051 -1.1069 -0.2306
 2679TIP3    H229453   5.384   0.906   2.683 -0.6030  0.3518  0.3191
 2680TIP3   OH229454   4.100   3.204   6.290  0.2323  0.2378  0.3348
 2680TIP3    H129455   4.061   3.287   6.319  0.4307  0.0838  1.0548
 2680TIP3    H229456   4.136   3.166   6.369  1.6743  0.2780 -0.2758
 2681TIP3   OH229457   4.612   4.427   5.905 -0.3496  0.1143 -0.0243
 2681TIP3    H129458   4.594   4.356   5.966  0.4389  0.7080  0.9404
 2681TIP3    H229459   4.643   4.384   5.826  0.0847 -0.6145  0.5326
 2682TIP3   OH229460   5.632   5.724  12.877 -0.5894 -0.1764  0.2938
 2682TIP3    H129461   5.654   5.685  12.793  0.7895 -1.9407  1.4153
 2682TIP3    H229462   5.586   5.655  12.925  1.3016 -0.3001  2.0785
 2683TIP3   OH229463   6.192   0.945   5.416  0.4592  0.3739 -0.4703
 2683TIP3    H129464   6.226   0.863   5.381 -0.9555 -1.0896  1.3894
 2683TIP3    H229465   6.102   0.950   5.383  0.1691  0.6079  0.3328
 2684TIP3   OH229466   3.302   5.513   2.823  0.2933 -0.9477 -0.0442
 2684TIP3    H129467   3.308   5.488   2.731 -0.8823 -0.3845 -0.2947
 2684TIP3    H229468   3.208   5.512   2.843  0.3371  0.9631  0.5449
 2685TIP3   OH229469   3.076   5.531  12.539  0.9155 -0.4177  0.6356
 2685TIP3    H129470   3.039   5.619  12.533 -0.5597 -1.0479 -0.0650
 2685TIP3    H229471   3.156   5.535  12.486  0.6624  0.4028  0.3021
 2686TIP3   OH229472   3.558   2.083   5.165  0.3806 -0.3021  0.3082
 2686TIP3    H129473   3.629   2.056   5.108  1.5014 -0.0554  1.5328
 2686TIP3    H229474   3.488   2.110   5.106  1.4793 -0.0922 -0.9368
 2687TIP3   OH229475   3.282   1.473  12.982 -0.3993 -0.3953  0.4413
 2687TIP3    H129476   3.294   1.568  12.989 -0.9777 -0.2978  0.1073
 2687TIP3    H229477   3.260   1.445  13.071  1.2009 -0.4332  0.8604
 2688TIP3   OH229478   6.005   4.596  11.314 -0.0453 -0.8309  0.1463
 2688TIP3    H129479   5.965   4.677  11.282 -1.2090 -0.5550  2.1214
 2688TIP3    H229480   5.930   4.542  11.340  0.7609 -2.1259 -0.1454
 2689TIP3   OH229481   4.770   6.707  10.902  0.9144  0.3041 -0.0198
 2689TIP3    H129482   4.732   6.780  10.854  0.6523 -0.2399 -0.6510
 2689TIP3    H229483   4.850   6.685  10.854  0.7254 -0.1492 -0.1361
 2690TIP3   OH229484   5.225   4.478  13.814 -0.4045  0.2566 -0.0358
 2690TIP3    H129485   5.254   4.540  13.881  0.1950  1.3154 -1.2124
 2690TIP3    H229486   5.290   4.486  13.745 -1.2540 -0.4509 -0.9489
 2691TIP3   OH229487   3.671   3.869   3.342 -0.0087 -0.0378 -0.4033
 2691TIP3    H129488   3.728   3.946   3.338  0.3497 -0.3716 -2.4486
 2691TIP3    H229489   3.583   3.903   3.332 -0.2524  0.4411  2.4092
 2692TIP3   OH229490   5.818   6.708   2.561 -0.0053  0.1374  0.3741
 2692TIP3    H129491   5.761   6.682   2.633  1.4173  0.1856  1.5349
 2692TIP3    H229492   5.847   6.796   2.584  1.8982 -0.5394  0.6721
 2693TIP3   OH229493   2.810   6.400   0.920  0.2974  0.0135 -0.0217
 2693TIP3    H129494   2.862   6.381   0.998  0.4768  0.7444  0.0484
 2693TIP3    H229495   2.723   6.422   0.954  0.4376  0.5569 -0.0062
 2694TIP3   OH229496   4.652   6.419   1.067  0.0905  0.4360  0.2348
 2694TIP3    H129497   4.596   6.352   1.105  1.4282 -0.3883  0.7887
 2694TIP3    H229498   4.708   6.372   1.005 -0.3904  1.3846 -0.9800
 2695TIP3   OH229499   1.950   2.098  15.369  0.2766 -0.4433 -0.1195
 2695TIP3    H129500   1.972   2.159  15.299  2.4233 -1.6341 -0.5671
 2695TIP3    H229501   1.929   2.016  15.325 -2.1897 -0.2216  0.4949
 2696TIP3   OH229502   2.782   4.020  14.664  0.0535  0.2972  0.4763
 2696TIP3    H129503   2.790   4.051  14.754 -1.0329  1.1698  0.2881
 2696TIP3    H229504   2.694   3.981  14.660 -1.0384  2.6680 -0.8749
 2697TIP3   OH229505   3.948   0.581  11.743  0.3682  0.3845  0.4374
 2697TIP3    H129506   3.944   0.609  11.834  0.8709  0.3450  0.4746
 2697TIP3    H229507   3.872   0.523  11.732 -0.4646  1.4414  0.4672
 2698TIP3   OH229508   6.390   5.308  14.155  0.3205  0.1161 -0.0438
 2698TIP3    H129509   6.379   5.355  14.237  1.2584  0.9587 -0.3799
 2698TIP3    H229510   6.347   5.223  14.170 -2.3615  1.4133  0.2080
 2699TIP3   OH229511   6.044   1.842  14.780  0.5396  0.4942 -0.6328
 2699TIP3    H129512   5.963   1.886  14.755 -0.8238 -0.6437  1.4466
 2699TIP3    H229513   6.032   1.752  14.750  1.8511  0.7034 -1.8914
 2700TIP3   OH229514   6.619   2.664  13.170  0.4290 -0.0813  0.5837
 2700TIP3    H129515   6.542   2.619  13.205 -0.4242  0.8163 -0.0679
 2700TIP3    H229516   6.642   2.614  13.091 -0.9427  0.9546 -0.5344
 2701TIP3   OH229517   5.941   1.903  13.458  0.4585  0.4653  0.2109
 2701TIP3    H129518   5.864   1.847  13.450 -0.1778  1.3423  0.1425
 2701TIP3    H229519   5.928   1.973  13.395  1.2301  0.7238  0.3194
 2702TIP3   OH229520   1.030   6.713   1.610  0.5494 -0.1942 -0.1733
 2702TIP3    H129521   0.975   6.655   1.663 -0.1717  0.0950 -0.5771
 2702TIP3    H229522   1.049   6.663   1.531 -0.3423  0.2136 -0.6653
 2703TIP3   OH229523   3.107   6.128  15.221 -0.0831  0.0221 -0.3793
 2703TIP3    H129524   3.066   6.088  15.298  0.5948  2.4493  1.3925
 2703TIP3    H229525   3.050   6.104  15.148 -1.4066 -1.4446  1.0574
 2704TIP3   OH229526   5.919   3.862  11.590  0.1098 -0.6536 -0.2424
 2704TIP3    H129527   5.903   3.869  11.496  1.7937 -1.2240 -0.6036
 2704TIP3    H229528   5.956   3.774  11.602 -1.1522 -1.0422  1.1369
 2705TIP3   OH229529   1.310   2.629   2.589 -0.5853  0.1115 -0.1010
 2705TIP3    H129530   1.388   2.604   2.540  0.2874  1.8249  0.3136
 2705TIP3    H229531   1.318   2.584   2.673 -0.5249 -0.4193 -0.3854
 2706TIP3   OH229532   1.936   2.414   0.459 -0.0370 -0.1870  0.4905
 2706TIP3    H129533   1.848   2.390   0.430 -0.4631  0.4611  1.2086
 2706TIP3    H229534   1.922   2.484   0.522  1.0095  0.0118  0.5167
 2707TIP3   OH229535   6.770   4.460  13.980 -0.2424  0.5451  0.0546
 2707TIP3    H129536   6.813   4.502  14.055  2.0121  0.4835 -1.1176
 2707TIP3    H229537   6.769   4.367  14.003  1.0217  0.4440 -0.2055
 2708TIP3   OH229538   0.439   3.525  15.279  0.1856  0.2556  0.2556
 2708TIP3    H129539   0.472   3.555  15.364  0.6073 -1.6745  0.8325
 2708TIP3    H229540   0.508   3.548  15.217  1.3030 -1.0226  0.9689
 2709TIP3   OH229541   4.769   3.336   4.643 -0.5536 -0.1551  0.2778
 2709TIP3    H129542   4.678   3.317   4.665  0.0296 -1.6328  1.5610
 2709TIP3    H229543   4.800   3.395   4.712 -0.0932 -0.9210  0.7325
 2710TIP3   OH229544   3.805   1.566   3.824  0.2864 -0.0844  0.4742
 2710TIP3    H129545   3.891   1.545   3.860  0.5683 -0.3237 -0.3159
 2710TIP3    H229546   3.782   1.489   3.772 -0.3934 -0.0091  0.6543
 2711TIP3   OH229547   6.119   6.487  13.294 -0.0003  0.1325  0.6985
 2711TIP3    H129548   6.170   6.464  13.216  1.0698  1.0506  1.0918
 2711TIP3    H229549   6.028   6.470  13.270  0.3019  0.4442 -0.7607
 2712TIP3   OH229550   1.564   2.364   3.081  1.0068  0.0544  0.3626
 2712TIP3    H129551   1.639   2.344   3.025 -0.5616 -0.7222 -1.5525
 2712TIP3    H229552   1.535   2.451   3.053  0.0390 -0.4567 -0.2575
 2713TIP3   OH229553   4.640   1.397   2.527 -0.9274 -0.5636 -0.3517
 2713TIP3    H129554   4.646   1.303   2.511  2.1963 -0.5588  0.0884
 2713TIP3    H229555   4.720   1.433   2.487 -1.4399  1.7291  0.5303
 2714TIP3   OH229556   6.238   6.623   1.968 -0.8310 -0.3769  0.1129
 2714TIP3    H129557   6.175   6.581   2.027  1.5230 -0.7736  2.5280
 2714TIP3    H229558   6.241   6.714   1.998  0.2187 -0.5243  0.4851
 2715TIP3   OH229559   6.671   1.473   0.109  0.3116  0.0048 -0.2108
 2715TIP3    H129560   6.694   1.557   0.147  1.0633 -0.1069 -0.3976
 2715TIP3    H229561   6.706   1.408   0.170  1.1749 -0.1716 -0.8573
 2716TIP3   OH229562   3.799   3.615   2.581 -0.8394  0.0301 -0.2774
 2716TIP3    H129563   3.790   3.594   2.674 -0.5328 -1.7796 -0.6265
 2716TIP3    H229564   3.728   3.568   2.538 -1.3554  1.3374 -0.9292
 2717TIP3   OH229565   5.987   5.698   1.936  0.1202  0.8407 -0.0972
 2717TIP3    H129566   6.015   5.606   1.937 -1.6252  0.2665 -0.8468
 2717TIP3    H229567   5.987   5.723   1.844 -1.4198  0.9104 -0.1106
 2718TIP3   OH229568   0.764   3.696   2.316 -0.3986  0.1598 -0.3020
 2718TIP3    H129569   0.706   3.768   2.291 -1.9302 -1.4425 -1.5696
 2718TIP3    H229570   0.717   3.651   2.387  0.2422  0.0150  0.0352
 2719TIP3   OH229571   3.594   4.322   3.538 -0.3267  0.2045 -0.4096
 2719TIP3    H129572   3.665   4.376   3.573 -0.0153 -0.2949 -0.2567
 2719TIP3    H229573   3.635   4.238   3.517 -0.6125  0.3325 -1.5298
 2720TIP3   OH229574   2.698   2.471   0.315 -0.2430  0.1464  0.4915
 2720TIP3    H129575   2.775   2.472   0.259  0.4726 -2.1235  1.3331
 2720TIP3    H229576   2.691   2.561   0.348  0.9980  0.8063 -0.9087
 2721TIP3   OH229577   3.854   6.150  13.478  0.1961  0.1383 -0.2761
 2721TIP3    H129578   3.940   6.113  13.500  0.3303 -0.2986 -1.4995
 2721TIP3    H229579   3.874   6.234  13.437  0.0346  0.1176 -0.3980
 2722TIP3   OH229580   1.880   0.615  13.746 -0.3998 -0.2853  0.1501
 2722TIP3    H129581   1.916   0.568  13.671  0.7300 -0.9001  1.0396
 2722TIP3    H229582   1.927   0.698  13.748 -1.0418  0.0984 -0.3073
 2723TIP3   OH229583   6.194   4.966  11.157  1.0478 -0.0117 -0.2542
 2723TIP3    H129584   6.134   4.932  11.223  2.0961  1.9526  1.8371
 2723TIP3    H229585   6.281   4.947  11.193  1.6477  0.9543 -1.1534
 2724TIP3   OH229586   0.157   1.895   1.169  0.0105 -0.6999  0.2981
 2724TIP3    H129587   0.104   1.954   1.116 -1.5085 -2.5318 -0.3659
 2724TIP3    H229588   0.190   1.830   1.107  0.2501 -1.4939  1.2203
 2725TIP3   OH229589   1.230   2.562  11.619 -0.0477 -0.1102  0.2138
 2725TIP3    H129590   1.280   2.586  11.697  0.7234 -1.1303  0.0532
 2725TIP3    H229591   1.296   2.552  11.551 -0.7964  1.8349 -0.8885
 2726TIP3   OH229592   4.703   6.652   4.097  0.4439  0.7163 -0.4614
 2726TIP3    H129593   4.704   6.604   4.014  0.5439 -1.1882  0.5702
 2726TIP3    H229594   4.700   6.583   4.164 -0.3254  2.2079  1.1094
 2727TIP3   OH229595   2.314   0.571   2.417 -0.1600 -0.2586 -0.3265
 2727TIP3    H129596   2.263   0.494   2.441 -1.3235 -0.0208 -1.9149
 2727TIP3    H229597   2.250   0.632   2.381  1.0027  0.7542 -0.7352
 2728TIP3   OH229598   0.729   2.723   1.701 -0.2238  0.0409 -0.0900
 2728TIP3    H129599   0.821   2.698   1.692 -0.0432 -0.6085  2.6938
 2728TIP3    H229600   0.732   2.817   1.718 -0.1515  0.1544 -0.6991
 2729TIP3   OH229601   1.033   5.927  16.750 -0.3409 -0.1159  0.0991
 2729TIP3    H129602   0.960   5.876  16.717 -0.0846  0.6492 -1.8045
 2729TIP3    H229603   1.097   5.862  16.779 -1.4106 -0.7979  1.0007
 2730TIP3   OH229604   2.580   1.330   1.836 -0.5359  0.5570  0.2839
 2730TIP3    H129605   2.599   1.248   1.792 -0.6731 -1.2300  3.2901
 2730TIP3    H229606   2.487   1.324   1.859 -0.7713  1.9756 -0.1974
 2731TIP3   OH229607   0.001   3.455  16.405  0.0011 -0.0195  1.0844
 2731TIP3    H129608   0.081   3.483  16.361 -0.6141 -1.0521 -0.8025
 2731TIP3    H229609   0.011   3.361  16.416 -0.9578 -0.1592  0.8332
 2732TIP3   OH229610   3.550   0.515  13.582  0.2264 -0.1487 -0.1766
 2732TIP3    H129611   3.489   0.589  13.577 -0.1440 -0.4968 -1.3654
 2732TIP3    H229612   3.554   0.493  13.674 -0.9439  0.3135  0.0082
 2733TIP3   OH229613   6.524   3.763  11.084  0.2775  0.2305 -0.5275
 2733TIP3    H129614   6.603   3.771  11.030 -0.7831  0.0715 -2.1574
 2733TIP3    H229615   6.466   3.707  11.034 -0.5705 -0.3428  1.0395
 2734TIP3   OH229616   5.426   0.055  15.326 -0.1330 -0.2207  0.6776
 2734TIP3    H129617   5.510   0.010  15.335  1.5380  2.0377 -1.8124
 2734TIP3    H229618   5.441   0.142  15.361 -0.4789  1.0836 -2.0886
 2735TIP3   OH229619   5.284   2.169   1.675  0.1426  0.3246 -0.4634
 2735TIP3    H129620   5.257   2.145   1.764 -1.0122 -0.6325 -1.0417
 2735TIP3    H229621   5.373   2.202   1.685 -0.2742  1.0527  1.1720
 2736TIP3   OH229622   1.598   2.415  11.855  0.7221  0.1866  0.1338
 2736TIP3    H129623   1.596   2.329  11.814  0.1227  0.6795 -0.9403
 2736TIP3    H229624   1.635   2.401  11.942 -0.8048 -1.3928  0.5744
 2737TIP3   OH229625   1.680   0.117   5.664 -0.0047 -0.0208 -0.0099
 2737TIP3    H129626   1.738   0.042   5.675 -1.2215 -1.0369 -0.3668
 2737TIP3    H229627   1.739   0.193   5.666  1.4166 -1.0437 -0.9661
 2738TIP3   OH229628   0.645   3.839  11.634 -0.2120  0.1581  0.1501
 2738TIP3    H129629   0.625   3.918  11.684 -1.4276  1.8470 -2.7951
 2738TIP3    H229630   0.597   3.770  11.679 -1.8313  1.6998  0.9324
 2739TIP3   OH229631   5.969   3.857   4.239 -0.6611  0.0635  0.3226
 2739TIP3    H129632   5.957   3.909   4.319  1.1334  0.1653  0.5719
 2739TIP3    H229633   5.970   3.922   4.169 -0.8231  0.1173  0.3691
 2740TIP3   OH229634   5.912   5.249   5.993  0.1926 -0.2736  0.1928
 2740TIP3    H129635   5.908   5.215   5.903  0.7228  0.2346 -0.0336
 2740TIP3    H229636   5.860   5.329   5.990 -0.2829 -0.5720  0.4897
 2741TIP3   OH229637   0.302   3.896  12.817 -1.2504 -0.2344 -0.0316
 2741TIP3    H129638   0.376   3.839  12.840 -0.9749  0.7337  1.6312
 2741TIP3    H229639   0.247   3.842  12.761  1.7166 -0.3744 -3.1649
 2742TIP3   OH229640   0.875   4.820   2.777 -0.6701  0.3345  0.3323
 2742TIP3    H129641   0.852   4.884   2.844 -2.7254 -0.7641  0.7379
 2742TIP3    H229642   0.797   4.813   2.722 -0.8070 -2.3385  0.7435
 2743TIP3   OH229643   3.212   0.586  15.605 -0.5531 -0.3582 -0.7687
 2743TIP3    H129644   3.282   0.641  15.570  0.0223 -0.9048 -0.5077
 2743TIP3    H229645   3.258   0.510  15.641 -1.2008 -0.2212  0.3851
 2744TIP3   OH229646   1.778   5.800   0.828  0.4743  0.0393 -0.0741
 2744TIP3    H129647   1.781   5.712   0.791  0.4183 -0.0033  0.0225
 2744TIP3    H229648   1.689   5.830   0.813  0.9386  0.7151 -1.5698
 2745TIP3   OH229649   4.896   5.249   1.879 -0.5509 -0.2866 -0.1450
 2745TIP3    H129650   4.956   5.289   1.817 -1.1105 -0.8715 -1.0986
 2745TIP3    H229651   4.924   5.157   1.883 -0.5552 -0.2668  0.4332
 2746TIP3   OH229652   4.283   6.099   0.381  0.8822 -0.3089 -0.2022
 2746TIP3    H129653   4.190   6.094   0.358  0.5219  0.0203  1.1276
 2746TIP3    H229654   4.326   6.040   0.319 -0.1356 -0.0516 -1.1886
 2747TIP3   OH229655   5.509   2.567  12.615  0.0897  0.4013  0.0077
 2747TIP3    H129656   5.506   2.525  12.701  1.8031  0.1286 -0.0499
 2747TIP3    H229657   5.420   2.600  12.603 -0.5184 -0.6302  1.3346
 2748TIP3   OH229658   5.922   4.461   0.166  0.5070 -0.0271 -0.2523
 2748TIP3    H129659   5.990   4.421   0.113  1.2170  1.7008 -0.6993
 2748TIP3    H229660   5.951   4.551   0.180 -0.5331  0.0944  1.5614
 2749TIP3   OH229661   6.718   5.685   4.615  0.0483  0.6761  0.1291
 2749TIP3    H129662   6.670   5.693   4.533 -0.1970  1.1700  0.3196
 2749TIP3    H229663   6.809   5.700   4.591  0.2691 -1.2351 -0.4083
 2750TIP3   OH229664   6.296   1.445  10.763  0.2828  0.5388 -0.1873
 2750TIP3    H129665   6.258   1.528  10.734  0.4727  1.0889  1.0805
 2750TIP3    H229666   6.383   1.469  10.796 -0.6510  0.3191  2.7055
 2751TIP3   OH229667   5.784   0.419  14.713  0.0649 -0.0110  0.2891
 2751TIP3    H129668   5.792   0.511  14.685 -0.0396 -0.1080 -0.0615
 2751TIP3    H229669   5.745   0.424  14.800 -1.2937  0.2185 -0.3173
 2752TIP3   OH229670   0.736   4.856  12.847  0.2403  1.1291 -0.8117
 2752TIP3    H129671   0.713   4.765  12.865  1.7994  0.8677  0.0527
 2752TIP3    H229672   0.805   4.876  12.910 -0.7203  3.2296 -0.3148
 2753TIP3   OH229673   0.330   5.868  16.763 -0.3841  0.1488  0.1905
 2753TIP3    H129674   0.245   5.911  16.755 -0.0078  0.8858 -0.0359
 2753TIP3    H229675   0.321   5.786  16.716 -0.8408  0.4300 -0.2170
 2754TIP3   OH229676   0.864   2.157  16.583  0.1884 -0.2311 -0.6618
 2754TIP3    H129677   0.883   2.244  16.547 -1.8604  0.6916  0.3430
 2754TIP3    H229678   0.769   2.154  16.590  0.3209 -1.7425  1.2964
 2755TIP3   OH229679   2.903   6.580  15.958 -0.1031 -0.2153 -0.4121
 2755TIP3    H129680   2.962   6.516  15.998 -0.2187  0.1906  0.4375
 2755TIP3    H229681   2.815   6.552  15.984 -0.2565 -0.4949 -1.2004
 2756TIP3   OH229682   3.153   2.728  13.904 -0.0869  0.2832  0.0467
 2756TIP3    H129683   3.210   2.729  13.828 -0.5173 -2.5684 -0.4059
 2756TIP3    H229684   3.068   2.700  13.870 -0.6692  0.4020  1.3487
 2757TIP3   OH229685   5.466   1.015  16.063  0.2626  0.2649  0.1755
 2757TIP3    H129686   5.380   1.024  16.021  0.8497  0.6295 -1.0006
 2757TIP3    H229687   5.510   0.946  16.013 -0.0523 -1.3958  2.0546
 2758TIP3   OH229688   6.225   4.091  14.345  0.0591 -0.2003 -0.0936
 2758TIP3    H129689   6.194   4.037  14.418 -0.9253 -1.1109 -1.1564
 2758TIP3    H229690   6.151   4.097  14.286  0.7876  0.6731 -0.9581
 2759TIP3   OH229691   2.415   3.200  13.125  0.8006  0.0144 -0.2417
 2759TIP3    H129692   2.386   3.265  13.189  0.4612  2.6884 -2.9098
 2759TIP3    H229693   2.334   3.169  13.085  1.1091  0.8919 -1.6144
 2760TIP3   OH229694   3.715   0.538  12.681  0.7166  0.7451 -0.3748
 2760TIP3    H129695   3.712   0.476  12.754  2.9734 -0.6491 -1.3709
 2760TIP3    H229696   3.623   0.560  12.665 -0.0421 -1.1059  1.0621
 2761TIP3   OH229697   5.460   4.738   5.155 -1.0153  0.1470 -0.0324
 2761TIP3    H129698   5.516   4.719   5.080 -0.9574 -1.1637  0.3071
 2761TIP3    H229699   5.415   4.655   5.173 -0.8588  0.3578  1.5095
 2762TIP3   OH229700   6.397   3.495  12.537  0.3356 -0.3955 -0.5047
 2762TIP3    H129701   6.322   3.453  12.494  0.7495 -2.1265  0.3646
 2762TIP3    H229702   6.441   3.424  12.583  2.4377  0.5992 -0.8474
 2763TIP3   OH229703   3.411   6.766  14.381 -0.5109 -0.3184  0.3141
 2763TIP3    H129704   3.343   6.770  14.448 -0.9993  1.1792 -0.2302
 2763TIP3    H229705   3.492   6.752  14.431 -0.9328  0.2095  1.1799
 2764TIP3   OH229706   1.440   6.593   3.978  0.0935  0.0195 -0.3794
 2764TIP3    H129707   1.390   6.619   3.901 -1.8676  0.4806  0.9551
 2764TIP3    H229708   1.432   6.667   4.038  0.2967 -0.8856  0.8143
 2765TIP3   OH229709   4.634   0.990  11.998 -0.3045  0.0368 -0.9822
 2765TIP3    H129710   4.601   1.071  12.036  0.6059  0.0317 -0.1335
 2765TIP3    H229711   4.587   0.921  12.045 -0.0198  0.0581 -0.6543
 2766TIP3   OH229712   5.991   0.014  16.611  0.7634  0.4104 -0.1304
 2766TIP3    H129713   6.013   0.099  16.573  2.1622  0.0719 -0.1239
 2766TIP3    H229714   6.067  -0.010  16.664  0.0812 -0.5060  0.4777
 2767TIP3   OH229715   3.694   4.719   0.036  0.6040 -0.0633  0.2727
 2767TIP3    H129716   3.666   4.658   0.104  0.7445  0.1794  0.5489
 2767TIP3    H229717   3.678   4.672  -0.046 -1.1386  0.2826  0.3817
 2768TIP3   OH229718   4.346   1.705   0.295  0.1327  0.4080 -0.2498
 2768TIP3    H129719   4.279   1.772   0.280 -0.8199 -0.1906  1.1070
 2768TIP3    H229720   4.322   1.666   0.379  1.9787 -0.0989  0.0823
 2769TIP3   OH229721   2.716   4.868  11.864 -0.0538 -0.4030 -0.1350
 2769TIP3    H129722   2.707   4.833  11.952 -0.5968 -1.4296 -0.5706
 2769TIP3    H229723   2.669   4.951  11.865 -0.6871 -0.7646  0.3533
 2770TIP3   OH229724   5.949   0.431   1.237  0.3737  0.0678  0.0351
 2770TIP3    H129725   5.899   0.411   1.158  2.5045  0.9871 -1.6659
 2770TIP3    H229726   5.979   0.521   1.224 -1.3851  1.2504  3.1955
 2771TIP3   OH229727   1.826   4.226  16.098  0.0895 -0.3434  0.0646
 2771TIP3    H129728   1.888   4.192  16.034  0.9978  1.0712  0.1485
 2771TIP3    H229729   1.775   4.292  16.050  0.4050  0.3342  0.6427
 2772TIP3   OH229730   0.568   5.431  11.708 -0.4176  0.1131  0.3120
 2772TIP3    H129731   0.586   5.338  11.699 -0.7398  0.0469  0.3324
 2772TIP3    H229732   0.589   5.469  11.623  0.4054  0.1383  0.5193
 2773TIP3   OH229733   5.019   0.239  10.418 -0.0621  0.0225 -0.5602
 2773TIP3    H129734   5.042   0.166  10.476 -1.1489  0.1858  0.1033
 2773TIP3    H229735   5.021   0.316  10.474 -0.8757  0.2189 -0.7934
 2774TIP3   OH229736   3.901   0.487  16.687 -0.0728 -0.1668 -0.0226
 2774TIP3    H129737   3.836   0.557  16.690 -1.8744 -1.7835  0.8868
 2774TIP3    H229738   3.985   0.532  16.678 -0.8029  2.3265  3.6435
 2775TIP3   OH229739   5.480   6.523  15.063 -0.1193 -0.2328  0.4255
 2775TIP3    H129740   5.523   6.593  15.012  1.7109 -1.8403 -0.3822
 2775TIP3    H229741   5.387   6.537  15.049  0.1185  2.5874  1.0634
 2776TIP3   OH229742   1.717   5.703  11.173  0.1727  0.0902 -0.0227
 2776TIP3    H129743   1.752   5.617  11.149 -2.0619 -0.6900 -0.6816
 2776TIP3    H229744   1.737   5.759  11.097  2.4582  0.4741  0.7828
 2777TIP3   OH229745   4.449   2.728   5.683  0.2531  0.7503  0.0188
 2777TIP3    H129746   4.460   2.694   5.594 -1.2826  1.8738 -0.6708
 2777TIP3    H229747   4.360   2.764   5.683  0.3847  1.1696  1.8891
 2778TIP3   OH229748   4.785   3.500  13.530  0.0155  0.7851  0.4768
 2778TIP3    H129749   4.697   3.515  13.565  0.6351  2.4321  1.4573
 2778TIP3    H229750   4.804   3.408  13.550 -0.0629  1.3573  3.6649
 2779TIP3   OH229751   1.751   5.711  14.124  0.2137  0.2260  0.1285
 2779TIP3    H129752   1.780   5.621  14.131 -0.4443  0.0982  1.8462
 2779TIP3    H229753   1.705   5.716  14.040 -1.6740 -1.6717  0.9495
 2780TIP3   OH229754   3.224   1.427  11.591 -0.0417 -0.1472 -0.3823
 2780TIP3    H129755   3.152   1.441  11.529  2.0047  2.1771 -2.4925
 2780TIP3    H229756   3.199   1.479  11.667 -0.9527 -0.0086 -0.7516
 2781TIP3   OH229757   0.070   5.502  13.923 -0.2908  0.3257 -0.3345
 2781TIP3    H129758   0.158   5.532  13.899 -0.5272  1.8865  0.6725
 2781TIP3    H229759   0.078   5.473  14.014 -0.8612  0.6518 -0.1781
 2782TIP3   OH229760   3.910   2.904   3.601  0.4751  0.0861 -0.6089
 2782TIP3    H129761   3.897   2.841   3.672  0.8818  2.1217  1.3714
 2782TIP3    H229762   3.825   2.947   3.591  0.8087  0.8400 -0.2861
 2783TIP3   OH229763   0.741   1.972   6.290  0.2473  0.2998  0.5361
 2783TIP3    H129764   0.724   2.024   6.369 -3.2043 -0.6121  0.5264
 2783TIP3    H229765   0.771   1.887   6.324  0.7979  0.5620  0.7312
 2784TIP3   OH229766   0.530   1.601  12.512  0.1100  0.0276  0.2550
 2784TIP3    H129767   0.596   1.539  12.480  0.7062  0.6790  0.1948
 2784TIP3    H229768   0.529   1.589  12.607  0.2365 -0.0572  0.2456
 2785TIP3   OH229769   1.432   6.205  13.445 -0.0358  0.3372  0.2700
 2785TIP3    H129770   1.411   6.298  13.438 -0.5720  0.1972 -0.0388
 2785TIP3    H229771   1.525   6.200  13.423 -0.1008  0.7525 -0.1188
 2786TIP3   OH229772   3.458   0.668   6.157  0.4173 -0.5520  0.1460
 2786TIP3    H129773   3.458   0.713   6.073  1.6278  0.0690  0.4485
 2786TIP3    H229774   3.393   0.714   6.210  0.0570 -0.5907 -0.2605
 2787TIP3   OH229775   2.820   6.461  15.628 -0.8542 -0.5118  0.1642
 2787TIP3    H129776   2.878   6.536  15.644 -1.0092 -0.6436  1.4404
 2787TIP3    H229777   2.746   6.475  15.688 -1.7126 -0.8142 -0.7981
 2788TIP3   OH229778   1.787   2.913   5.285  0.2151 -0.2088  0.2178
 2788TIP3    H129779   1.850   2.913   5.358  1.6586 -0.4123 -0.9800
 2788TIP3    H229780   1.837   2.947   5.211 -1.9586  2.6331 -0.1090
 2789TIP3   OH229781   1.518   1.850  15.487  0.2866 -0.0074 -0.0180
 2789TIP3    H129782   1.505   1.945  15.489 -0.0752 -0.0361 -0.6452
 2789TIP3    H229783   1.498   1.826  15.397  3.0534 -0.3070 -0.6424
 2790TIP3   OH229784   0.096   5.244  15.204 -0.0071 -0.4156 -0.1796
 2790TIP3    H129785   0.006   5.259  15.235 -0.3227 -1.1401 -0.7147
 2790TIP3    H229786   0.085   5.205  15.118  0.8534  0.7949 -0.8680
 2791TIP3   OH229787   1.715   0.854  13.107  0.2292 -0.0291 -0.3997
 2791TIP3    H129788   1.802   0.828  13.138  0.4555  0.3028 -0.7453
 2791TIP3    H229789   1.733   0.906  13.028 -0.2858  0.0054 -0.4940
 2792TIP3   OH229790   6.382   2.034  12.324 -0.2579 -0.1600  0.5583
 2792TIP3    H129791   6.435   1.999  12.253 -0.7343  1.2108 -0.5222
 2792TIP3    H229792   6.291   2.018  12.296 -0.4492  0.4966  0.7900
 2793TIP3   OH229793   5.235   0.491  15.486  0.3539  0.3185 -0.2639
 2793TIP3    H129794   5.176   0.484  15.561 -2.3671  2.0554 -2.0910
 2793TIP3    H229795   5.223   0.409  15.438 -0.1215  0.4266 -0.3280
 2794TIP3   OH229796   3.383   1.115   1.215  0.1261  0.2194  0.2053
 2794TIP3    H129797   3.380   1.167   1.296  0.6138  1.3649 -0.4911
 2794TIP3    H229798   3.445   1.161   1.159  1.4475 -1.7553 -0.0395
 2795TIP3   OH229799   2.808   2.246  11.596  0.0482 -0.9159 -0.9179
 2795TIP3    H129800   2.793   2.235  11.690 -2.2266  0.4941 -1.0504
 2795TIP3    H229801   2.892   2.293  11.591  0.3195 -1.2182  0.3702
 2796TIP3   OH229802   6.469   0.041   2.942 -0.5863 -0.2304 -0.3735
 2796TIP3    H129803   6.449   0.114   3.001 -2.6116  0.4136 -1.7760
 2796TIP3    H229804   6.538   0.075   2.885 -0.1004 -0.1455  0.2430
 2797TIP3   OH229805   1.741   2.935   2.947  0.1243  0.2610 -0.4299
 2797TIP3    H129806   1.664   2.881   2.963 -1.3993  1.6415 -2.5713
 2797TIP3    H229807   1.732   3.007   3.010  0.7360 -0.5544  0.6208
 2798TIP3   OH229808   6.183   6.336  12.808  0.1379 -0.4287  0.0919
 2798TIP3    H129809   6.246   6.398  12.771 -0.2223 -1.0794 -1.7705
 2798TIP3    H229810   6.120   6.390  12.855  0.0694  0.6146 -1.1298
 2799TIP3   OH229811   5.732   0.451  15.016  0.1842 -0.1704 -0.1002
 2799TIP3    H129812   5.800   0.493  15.070  0.5824 -0.2395 -0.5360
 2799TIP3    H229813   5.681   0.399  15.078 -0.6074  1.2859  0.5319
 2800TIP3   OH229814   4.139   4.045   4.996  0.5222 -0.3381  0.0486
 2800TIP3    H129815   4.223   4.003   4.980  0.6197 -0.0579 -0.1840
 2800TIP3    H229816   4.161   4.125   5.044  0.5466  0.5353 -1.3548
 2801TIP3   OH229817   4.901   1.203  11.944  0.7607  0.3787 -0.2104
 2801TIP3    H129818   4.937   1.292  11.935  1.1997  0.0580 -2.1824
 2801TIP3    H229819   4.808   1.214  11.925  0.6018  0.5809  0.6735
 2802TIP3   OH229820   0.075   6.436  12.900  0.2453 -0.2751  0.2237
 2802TIP3    H129821   0.099   6.528  12.914 -0.8286  0.1060 -0.3338
 2802TIP3    H229822   0.133   6.387  12.959  0.9185  0.7459  0.4373
 2803TIP3   OH229823   0.363   4.669  15.697  0.3269  0.2221 -0.8126
 2803TIP3    H129824   0.349   4.590  15.749  0.3408  1.5409  1.3099
 2803TIP3    H229825   0.277   4.712  15.694  1.2552  2.8576  2.9377
 2804TIP3   OH229826   5.286   4.214  13.268  0.0128 -0.0043 -0.0026
 2804TIP3    H129827   5.299   4.225  13.174 -0.8134  0.6456 -0.0535
 2804TIP3    H229828   5.324   4.293  13.307  0.6066 -0.4030  0.2385
 2805TIP3   OH229829   2.133   2.736   2.024 -0.2702  0.1263  0.8702
 2805TIP3    H129830   2.200   2.760   1.960 -0.7063 -0.2408  0.2644
 2805TIP3    H229831   2.161   2.779   2.105  0.5423  0.2141  0.5572
 2806TIP3   OH229832   2.696   0.670   6.311 -0.1541  0.0082 -0.0873
 2806TIP3    H129833   2.761   0.626   6.256  0.8009  0.9338  0.2752
 2806TIP3    H229834   2.612   0.652   6.268  0.2485 -1.6928 -0.2514
 2807TIP3   OH229835   2.388   2.134  11.243 -0.1324  0.4610  0.1022
 2807TIP3    H129836   2.316   2.074  11.222 -0.8160  1.0373  0.7536
 2807TIP3    H229837   2.455   2.114  11.178 -1.0391  0.1986 -0.7892
 2808TIP3   OH229838   3.704   4.403  11.968 -0.3035 -0.6071 -0.6649
 2808TIP3    H129839   3.736   4.336  11.907  0.2845 -0.5511 -0.4266
 2808TIP3    H229840   3.763   4.396  12.043 -1.3332 -1.0272  0.1205
 2809TIP3   OH229841   3.687   1.900   3.518 -1.1991  0.0317  0.4295
 2809TIP3    H129842   3.761   1.857   3.476 -1.5134 -0.8646  0.7628
 2809TIP3    H229843   3.651   1.834   3.578 -1.0670  1.1069  1.7453
 2810TIP3   OH229844   2.082   1.988  11.398  0.0252 -0.5906  0.2402
 2810TIP3    H129845   2.100   2.082  11.400 -0.9857 -0.3848  1.8841
 2810TIP3    H229846   2.165   1.948  11.423  0.6972 -0.2052 -1.2789
 2811TIP3   OH229847   1.554   6.688  16.129 -0.1564  0.2063 -0.3604
 2811TIP3    H129848   1.602   6.656  16.053 -1.3669  0.8802 -1.4478
 2811TIP3    H229849   1.622   6.706  16.194  0.8424 -1.1215 -0.9809
 2812TIP3   OH229850   0.155   3.855   2.379  0.5667 -0.0907  0.2476
 2812TIP3    H129851   0.073   3.848   2.330 -0.2619  0.6931  1.4687
 2812TIP3    H229852   0.210   3.911   2.324 -0.8410  1.9112  0.7666
 2813TIP3   OH229853   6.288   5.320  12.419 -0.1663 -0.4191  0.1376
 2813TIP3    H129854   6.214   5.364  12.376  0.6036 -0.3794 -1.1920
 2813TIP3    H229855   6.357   5.386  12.421 -0.1276 -0.4794  1.3070
 2814TIP3   OH229856   1.203   3.384  14.535 -0.1044  0.5615 -0.5791
 2814TIP3    H129857   1.131   3.384  14.471 -0.7055  2.0083  0.0697
 2814TIP3    H229858   1.192   3.302  14.582 -0.6977  0.2726 -1.1891
 2815TIP3   OH229859   4.007   1.080   5.160 -0.5594 -0.3673 -0.2513
 2815TIP3    H129860   3.999   1.010   5.225  0.5874 -0.9209 -0.6789
 2815TIP3    H229861   4.003   1.034   5.075  1.3500 -0.0960 -0.5357
 2816TIP3   OH229862   2.864   6.767  10.852 -0.7024 -0.4697  0.4121
 2816TIP3    H129863   2.958   6.782  10.851 -0.7682  0.5141  2.6183
 2816TIP3    H229864   2.841   6.746  10.762  1.1220  2.4852 -0.8397
 2817TIP3   OH229865   4.505   5.168  13.230 -0.0393 -0.0739  0.5239
 2817TIP3    H129866   4.492   5.082  13.271 -0.2656 -0.9990 -1.3551
 2817TIP3    H229867   4.417   5.199  13.210  0.0070  0.9153  1.7301
 2818TIP3   OH229868   2.382   4.378   2.607 -0.0137  0.8458  0.4316
 2818TIP3    H129869   2.288   4.394   2.600 -0.0524  0.2134 -0.6636
 2818TIP3    H229870   2.392   4.285   2.584  0.9452  1.0618 -0.0370
 2819TIP3   OH229871   6.661   1.453  14.832 -0.3283 -0.1844  0.4094
 2819TIP3    H129872   6.729   1.494  14.778 -0.7952 -1.6957 -1.4284
 2819TIP3    H229873   6.710   1.408  14.901  0.3531  0.9011  0.6696
 2820TIP3   OH229874   1.244   6.809  11.646 -0.0095 -0.3481 -0.4298
 2820TIP3    H129875   1.155   6.843  11.650 -0.0511 -0.4957 -0.0136
 2820TIP3    H229876   1.278   6.838  11.561 -0.8836 -1.3834 -1.1449
 2821TIP3   OH229877   2.419   3.245   4.777 -0.1089 -0.2580  0.8303
 2821TIP3    H129878   2.324   3.261   4.778 -0.5900 -2.7082  0.5001
 2821TIP3    H229879   2.434   3.185   4.849  1.5546  1.4820  2.0357
 2822TIP3   OH229880   1.333   2.523   2.869 -0.2555  0.1298 -0.7166
 2822TIP3    H129881   1.263   2.506   2.933 -0.2814  0.9273 -0.5216
 2822TIP3    H229882   1.404   2.560   2.921  0.2344 -0.4608 -0.9525
 2823TIP3   OH229883   6.025   5.448  13.100  0.5969  0.0077  0.2484
 2823TIP3    H129884   5.996   5.395  13.174  0.2398 -1.8945 -1.1706
 2823TIP3    H229885   5.956   5.438  13.035  0.2747  2.6728  0.0640
 2824TIP3   OH229886   3.897   5.962  14.451  0.1380 -0.3578  0.1825
 2824TIP3    H129887   3.858   6.004  14.374 -0.3885 -1.0169  0.0744
 2824TIP3    H229888   3.989   5.988  14.449  0.3163 -1.0115 -1.1335
 2825TIP3   OH229889   2.831   1.891  17.092  0.0905  0.2580  0.1802
 2825TIP3    H129890   2.821   1.796  17.085  0.3161  0.0976  1.7943
 2825TIP3    H229891   2.797   1.925  17.009  0.8101 -1.2775 -0.7809
 2826TIP3   OH229892   1.458   0.709   0.995  0.2705 -0.0448 -0.2400
 2826TIP3    H129893   1.422   0.728   0.908 -1.2993 -3.1297 -0.3795
 2826TIP3    H229894   1.390   0.739   1.055 -0.4113 -1.4159 -0.2937
 2827TIP3   OH229895   5.501   6.573   4.226  0.1442  0.5235  0.0165
 2827TIP3    H129896   5.444   6.509   4.182 -1.1069 -0.1473  2.4217
 2827TIP3    H229897   5.579   6.522   4.249 -0.6302 -0.1127  1.4575
 2828TIP3   OH229898   6.764   5.123   2.055  0.0308  0.0443 -0.2951
 2828TIP3    H129899   6.728   5.035   2.041  1.3564 -0.3702 -1.2493
 2828TIP3    H229900   6.811   5.116   2.138 -1.4254  0.4117  0.6172
 2829TIP3   OH229901   2.400   1.146  14.582 -0.7958 -0.1362  0.8702
 2829TIP3    H129902   2.447   1.149  14.499  3.4909  1.1516  3.1012
 2829TIP3    H229903   2.400   1.054  14.606 -2.3707 -0.5749 -0.5536
 2830TIP3   OH229904   5.570   2.942  12.943 -0.0065  0.0746  0.1394
 2830TIP3    H129905   5.648   2.930  12.890 -0.8076  0.1874 -1.1243
 2830TIP3    H229906   5.523   3.014  12.901 -0.8554 -0.0711  0.7933
 2831TIP3   OH229907   5.036   1.726  11.039 -0.4232 -0.1570 -0.4078
 2831TIP3    H129908   5.037   1.805  10.985  0.1809  0.3546  0.3316
 2831TIP3    H229909   4.993   1.753  11.120 -1.0500 -0.8374 -0.5063
 2832TIP3   OH229910   1.786   1.479   0.771 -0.0433 -0.5891  0.3149
 2832TIP3    H129911   1.788   1.510   0.680  3.1218 -1.0734  0.0942
 2832TIP3    H229912   1.830   1.547   0.821  0.0391 -1.2235  1.1365
 2833TIP3   OH229913   3.417   5.749   2.088  0.0323  0.2449  0.0266
 2833TIP3    H129914   3.347   5.807   2.058  0.1699 -0.2888 -1.4060
 2833TIP3    H229915   3.496   5.803   2.086 -0.1813  0.6096  0.8386
 2834TIP3   OH229916   2.710   4.051   5.211 -0.1289  0.3099  0.5254
 2834TIP3    H129917   2.640   4.040   5.147  0.2627  0.5915  0.0497
 2834TIP3    H229918   2.677   4.007   5.290 -0.6461  0.0434  0.1637
 2835TIP3   OH229919   0.749   6.355   3.904 -0.0585 -0.1158 -0.1443
 2835TIP3    H129920   0.766   6.270   3.945 -2.1006 -0.0974  0.9044
 2835TIP3    H229921   0.805   6.416   3.951 -0.3816 -0.5214  0.7857
 2836TIP3   OH229922   3.534   6.011  11.754 -0.4132 -0.5206 -0.1811
 2836TIP3    H129923   3.560   5.929  11.713 -2.0124 -0.6684 -0.9510
 2836TIP3    H229924   3.612   6.039  11.803  1.0615 -1.0947 -2.0815
 2837TIP3   OH229925   3.235   5.562   3.940 -0.5479 -0.1641 -0.1547
 2837TIP3    H129926   3.183   5.556   3.860 -0.6175  1.0123 -0.2191
 2837TIP3    H229927   3.171   5.574   4.010 -0.4881 -1.2043  0.0904
 2838TIP3   OH229928   1.786   5.061   2.286  0.7159 -0.2839 -0.1067
 2838TIP3    H129929   1.771   5.155   2.290  0.5679 -0.3441  1.7286
 2838TIP3    H229930   1.699   5.022   2.277  0.5824 -0.2851  1.0098
 2839TIP3   OH229931   6.417   0.434   4.477 -0.5115  0.0320  0.4466
 2839TIP3    H129932   6.425   0.355   4.423  1.3902  2.0550 -2.5677
 2839TIP3    H229933   6.324   0.444   4.493 -0.9646 -1.7057 -0.8571
 2840TIP3   OH229934   3.979   0.662  13.821  0.2263  0.0205 -0.4968
 2840TIP3    H129935   3.959   0.658  13.915  0.8011  1.4355 -0.2898
 2840TIP3    H229936   3.899   0.694  13.781  0.1581 -0.0465 -0.4141
 2841TIP3   OH229937   3.784   6.036  11.317 -0.3075 -0.2514 -0.1242
 2841TIP3    H129938   3.777   6.069  11.407 -0.5425  0.2494 -0.3225
 2841TIP3    H229939   3.700   6.058  11.277  0.1684  0.4575 -0.7714
 2842TIP3   OH229940   0.971   5.782  14.320  0.6311  0.4266 -0.0626
 2842TIP3    H129941   0.950   5.865  14.362  2.7380  1.2093 -0.4649
 2842TIP3    H229942   1.039   5.803  14.256  0.4658 -1.4358 -0.9282
 2843TIP3   OH229943   3.499   6.310   4.033  0.3040  0.3206  0.5028
 2843TIP3    H129944   3.574   6.265   3.994  0.2109  0.2923  0.3570
 2843TIP3    H229945   3.428   6.296   3.971  0.3509  0.9262  0.3074
 2844TIP3   OH229946   3.880   4.612   5.358 -0.0937  0.6222 -0.2638
 2844TIP3    H129947   3.792   4.602   5.395 -0.5402  0.6047 -1.2966
 2844TIP3    H229948   3.932   4.648   5.430 -1.0601  1.0769  0.2311
 2845TIP3   OH229949   0.185   3.554  15.773  0.3313 -0.7168 -0.2163
 2845TIP3    H129950   0.245   3.518  15.707 -0.7027  0.9811 -2.1766
 2845TIP3    H229951   0.107   3.500  15.767  1.2245 -2.3848  1.7439
 2846TIP3   OH229952   0.374   5.722  14.910  0.3481  0.0968  0.2530
 2846TIP3    H129953   0.422   5.644  14.940 -0.3894 -0.8031 -0.8394
 2846TIP3    H229954   0.442   5.789  14.899  1.3408 -1.0600 -0.9553
 2847TIP3   OH229955   2.705   3.399  12.826 -0.1017  0.0175 -0.2312
 2847TIP3    H129956   2.743   3.348  12.897  1.7848 -0.7302 -1.6799
 2847TIP3    H229957   2.706   3.339  12.751 -2.3157  0.6730 -0.8565
 2848TIP3   OH229958   4.621   4.749  13.103  0.2579  0.0404  0.1828
 2848TIP3    H129959   4.546   4.802  13.074 -0.8922 -0.6948  1.6396
 2848TIP3    H229960   4.602   4.661  13.072  0.9485  0.0040 -0.1501
 2849TIP3   OH229961   4.459   1.072   6.318 -0.2581 -0.5214  0.0665
 2849TIP3    H129962   4.469   1.006   6.249 -0.9937 -1.2530  0.6321
 2849TIP3    H229963   4.417   1.024   6.390 -1.5206  0.7346  0.2149
 2850TIP3   OH229964   1.659   1.882   4.409 -0.0670 -0.3309  0.1643
 2850TIP3    H129965   1.719   1.810   4.428 -0.5186 -0.4576  1.1357
 2850TIP3    H229966   1.657   1.934   4.489 -1.6267 -0.5956  0.3205
 2851TIP3   OH229967   0.206   5.928   5.494  0.3290 -1.0010  0.3151
 2851TIP3    H129968   0.123   5.962   5.461 -0.1994 -2.1007  0.4674
 2851TIP3    H229969   0.225   5.983   5.570  0.9524  0.7776 -1.0534
 2852TIP3   OH229970   1.683   4.799   5.589  0.4980 -0.4584 -0.3735
 2852TIP3    H129971   1.749   4.770   5.651  0.8610 -1.7111 -1.3010
 2852TIP3    H229972   1.604   4.750   5.613  0.5112 -0.6006 -0.6217
 2853TIP3   OH229973   5.313   3.270  11.886  0.4423  0.8262 -0.7920
 2853TIP3    H129974   5.336   3.225  11.967  0.8232  1.8104 -0.3427
 2853TIP3    H229975   5.259   3.207  11.838  0.4110  0.1461  0.1163
 2854TIP3   OH229976   5.377   0.334   5.213  0.7198 -0.5481 -0.1203
 2854TIP3    H129977   5.461   0.368   5.245  0.2469 -1.0318  1.7203
 2854TIP3    H229978   5.346   0.276   5.282 -0.5544 -1.3605 -1.3198
 2855TIP3   OH229979   1.857   5.939  14.925 -0.5278  0.0255 -0.1152
 2855TIP3    H129980   1.823   6.011  14.871  1.7462 -0.3845 -2.2565
 2855TIP3    H229981   1.949   5.961  14.940 -0.3708 -1.3276  1.2125
 2856TIP3   OH229982   3.543   1.867   1.498 -0.6234 -0.1860  0.5860
 2856TIP3    H129983   3.451   1.893   1.506 -0.4806 -0.1059  2.5874
 2856TIP3    H229984   3.592   1.944   1.528  0.0960 -0.3175 -0.2110
 2857TIP3   OH229985   4.319   4.715  13.536 -0.0849 -0.0761  0.0563
 2857TIP3    H129986   4.325   4.696  13.442  0.9971  1.1292 -0.1349
 2857TIP3    H229987   4.252   4.654  13.567  0.6237 -1.5899 -1.2008
 2858TIP3   OH229988   2.184   0.644   4.239  0.3115 -0.3112 -0.1803
 2858TIP3    H129989   2.259   0.595   4.273  0.4284 -0.5249 -0.7446
 2858TIP3    H229990   2.170   0.610   4.151 -0.2920 -0.0948 -0.1749
 2859TIP3   OH229991   4.926   5.940  11.636  0.1274  0.2297  0.0939
 2859TIP3    H129992   5.003   5.971  11.587  0.5155  2.8774  2.1824
 2859TIP3    H229993   4.962   5.884  11.705  0.0810  0.7400  0.5293
 2860TIP3   OH229994   4.651   3.980  12.646 -0.7213 -0.6382 -0.0017
 2860TIP3    H129995   4.581   3.947  12.703 -0.5575  0.7982  1.0851
 2860TIP3    H229996   4.728   3.983  12.702 -0.0832 -1.0170 -0.8489
 2861TIP3   OH229997   4.456   4.052   0.027 -0.5564  0.2702  0.2333
 2861TIP3    H129998   4.416   4.138   0.015 -0.4613  0.2668 -0.1128
 2861TIP3    H229999   4.496   4.032  -0.058  0.3384  0.3561  0.6232
 2862TIP3   OH230000   2.826   6.075  17.060 -0.3239 -0.7711  0.3753
 2862TIP3    H130001   2.873   6.062  17.142 -0.2144 -2.8035  0.0446
 2862TIP3    H230002   2.820   6.170  17.051  1.8960 -0.4530  1.4493
 2863TIP3   OH230003   4.815   3.838   4.168  0.1042  0.1969 -0.6906
 2863TIP3    H130004   4.803   3.914   4.111 -1.5845  0.9108  0.5499
 2863TIP3    H230005   4.902   3.850   4.206 -0.2196  1.6121 -0.3613
 2864TIP3   OH230006   2.036   2.413   3.394  0.5469 -1.0616  0.0635
 2864TIP3    H130007   1.987   2.449   3.320  0.0372 -1.5667  0.1461
 2864TIP3    H230008   2.108   2.474   3.407 -0.3137 -0.0421  0.2178
 2865TIP3   OH230009   0.705   3.184   4.483 -0.7928  0.1550 -0.2594
 2865TIP3    H130010   0.723   3.129   4.559 -0.7794  0.7639  0.1834
 2865TIP3    H230011   0.737   3.271   4.507 -1.0571  0.4248 -0.8458
 2866TIP3   OH230012   1.863   0.479  13.976  0.2692  0.1398  0.2507
 2866TIP3    H130013   1.769   0.494  13.980  0.0219 -1.2671  0.1196
 2866TIP3    H230014   1.892   0.533  13.902 -0.3164  1.0910  0.7005
 2867TIP3   OH230015   3.903   6.580  16.898 -0.2816 -0.2663  0.1411
 2867TIP3    H130016   3.812   6.588  16.925  0.9273 -1.2695  5.5280
 2867TIP3    H230017   3.937   6.670  16.903 -0.3471 -0.2833  1.0579
 2868TIP3   OH230018   5.593   3.345   3.928 -0.7110  0.4629  0.3681
 2868TIP3    H130019   5.525   3.393   3.975 -0.2920  1.5778 -0.1468
 2868TIP3    H230020   5.586   3.374   3.838  0.3878  0.5242  0.2886
 2869TIP3   OH230021   0.854   4.186   3.357  0.1352 -0.1021  0.2806
 2869TIP3    H130022   0.849   4.171   3.452 -0.1219 -0.0889  0.2713
 2869TIP3    H230023   0.820   4.105   3.319 -0.0594  0.0151  0.2053
 2870TIP3   OH230024   0.682   0.637  15.726 -0.3322  0.6285 -0.0864
 2870TIP3    H130025   0.734   0.587  15.664 -0.1202  0.4229  0.2529
 2870TIP3    H230026   0.601   0.656  15.679 -0.4721 -0.1539 -0.1722
 2871TIP3   OH230027   3.913   6.756  16.642 -0.2192 -0.0010  0.3049
 2871TIP3    H130028   3.922   6.779  16.734 -1.0749 -0.7853  0.6077
 2871TIP3    H230029   3.882   6.665  16.643  1.0986 -0.5018 -0.7881
 2872TIP3   OH230030   0.243   5.403   3.661 -0.2784 -0.0167  0.7673
 2872TIP3    H130031   0.163   5.378   3.614 -1.2302 -0.5762  2.5734
 2872TIP3    H230032   0.297   5.446   3.595 -1.9434  0.1261 -0.5862
 2873TIP3   OH230033   1.994   6.696  16.358  0.1414  0.2454 -0.5898
 2873TIP3    H130034   1.928   6.756  16.322  0.8236  1.4833  0.1345
 2873TIP3    H230035   1.953   6.659  16.436 -0.7266 -1.1846 -1.6821
 2874TIP3   OH230036   6.435   6.733   2.218  0.5686  0.1248 -0.6482
 2874TIP3    H130037   6.384   6.803   2.178 -1.8605 -0.0626  1.8319
 2874TIP3    H230038   6.481   6.775   2.291  0.9913 -0.4238 -0.5923
 2875TIP3   OH230039   3.335   1.205  16.544 -0.4438  0.3277  0.1517
 2875TIP3    H130040   3.405   1.250  16.592  1.2643 -3.0785  1.2062
 2875TIP3    H230041   3.378   1.176  16.463 -1.2939  0.0004 -0.1864
 2876TIP3   OH230042   3.809   1.093  11.296 -0.4300 -0.7506 -0.0269
 2876TIP3    H130043   3.902   1.113  11.283 -0.9996  0.1812 -3.6617
 2876TIP3    H230044   3.780   1.156  11.362  1.2891 -0.4280  0.4833
 2877TIP3   OH230045   1.941   3.410   2.950 -0.5169  0.1973  0.8684
 2877TIP3    H130046   1.908   3.438   3.035  0.6318  0.2425  1.3116
 2877TIP3    H230047   1.963   3.317   2.961  0.7977  0.5006  1.0094
 2878TIP3   OH230048   0.025   2.051   3.895  0.2130  0.0663 -0.1840
 2878TIP3    H130049   0.013   2.043   3.990  0.6491 -1.3402 -0.2243
 2878TIP3    H230050  -0.054   2.014   3.857 -0.0174  0.7481 -0.3685
 2879TIP3   OH230051   0.076   0.239   1.999 -0.2274 -0.0171 -0.0010
 2879TIP3    H130052   0.168   0.266   2.002  0.1486 -1.0670 -1.1483
 2879TIP3    H230053   0.036   0.282   2.075  0.1606  4.1450 -1.8412
 2880TIP3   OH230054   6.006   2.044  12.952 -0.1485  0.5502 -0.6162
 2880TIP3    H130055   6.011   1.985  12.877  2.0845  1.7401 -1.5103
 2880TIP3    H230056   5.929   2.016  13.000 -0.6788 -1.3451 -2.4418
 2881TIP3   OH230057   4.230   2.356   3.178  0.2088  0.3237 -0.0894
 2881TIP3    H130058   4.215   2.405   3.097  0.2211  0.7768  0.1792
 2881TIP3    H230059   4.149   2.366   3.228  0.1436 -0.0851 -0.1065
 2882TIP3   OH230060   4.684   1.713   1.724 -0.0020  0.9692  0.3232
 2882TIP3    H130061   4.752   1.712   1.657  1.0601  2.5625  1.3279
 2882TIP3    H230062   4.656   1.622   1.732  1.2232  0.4694 -0.8938
 2883TIP3   OH230063   4.934   3.757   3.332  0.6373 -0.0861  0.3346
 2883TIP3    H130064   4.974   3.766   3.245  1.4727 -0.4568  0.6656
 2883TIP3    H230065   5.008   3.759   3.392  0.2600 -1.8022  0.9079
 2884TIP3   OH230066   5.763   4.708  13.705  0.2279  0.0582  0.0830
 2884TIP3    H130067   5.824   4.778  13.730  0.9550 -0.7612  0.6576
 2884TIP3    H230068   5.677   4.747  13.716  0.5033  0.0798  3.1047
 2885TIP3   OH230069   3.585   5.898   5.199  0.2851 -0.1120 -0.1641
 2885TIP3    H130070   3.553   5.982   5.231  0.0762 -0.2602  0.0190
 2885TIP3    H230071   3.608   5.915   5.107 -0.2701  0.0129 -0.2864
 2886TIP3   OH230072   3.515   1.411  14.789  0.4698 -0.1099 -0.3936
 2886TIP3    H130073   3.478   1.330  14.752  0.5124 -0.6957  0.8006
 2886TIP3    H230074   3.597   1.383  14.830  1.5502  0.9222 -1.7449
 2887TIP3   OH230075   1.601   0.323  13.065 -0.0232  0.6640 -0.0407
 2887TIP3    H130076   1.510   0.336  13.093 -0.2503  0.9991 -0.8965
 2887TIP3    H230077   1.620   0.399  13.010  1.2116  1.2625  1.1804
 2888TIP3   OH230078   6.456   3.819   3.497  0.2997 -0.0415 -0.2924
 2888TIP3    H130079   6.369   3.857   3.508 -0.8899 -2.5435 -0.5330
 2888TIP3    H230080   6.502   3.841   3.578 -1.4544 -0.8624  0.9871
 2889TIP3   OH230081   0.089   5.390   5.786  0.1342  0.3479  0.4472
 2889TIP3    H130082   0.089   5.307   5.738  0.8172  0.1751  0.7313
 2889TIP3    H230083   0.149   5.447   5.737  0.1779  0.4515  0.6191
 2890TIP3   OH230084   2.317   3.645  15.871 -0.3351 -0.3492  0.1643
 2890TIP3    H130085   2.251   3.587  15.910  0.8896 -1.7250  0.2961
 2890TIP3    H230086   2.302   3.640  15.777 -1.6354  0.9158  0.2661
 2891TIP3   OH230087   1.287   6.044   5.178 -0.4662  0.6445  0.4707
 2891TIP3    H130088   1.338   5.981   5.128  0.5455  4.1591 -3.5315
 2891TIP3    H230089   1.198   6.007   5.181  0.2871 -1.4004 -0.6920
 2892TIP3   OH230090   0.668   2.116  11.381 -0.7585  0.1556  0.2549
 2892TIP3    H130091   0.619   2.195  11.359 -0.4865 -0.2928 -2.3120
 2892TIP3    H230092   0.619   2.045  11.339  0.1683 -0.7396  0.6449
 2893TIP3   OH230093   4.438   6.541   3.977 -0.1691  0.6305 -0.1391
 2893TIP3    H130094   4.526   6.512   3.954 -0.0261  0.3544  0.6910
 2893TIP3    H230095   4.437   6.635   3.960  0.7985  0.9292  1.2939
 2894TIP3   OH230096   3.753   2.014   1.694  0.6213  0.3898  0.0386
 2894TIP3    H130097   3.689   2.059   1.749 -0.3214 -0.0787 -0.6548
 2894TIP3    H230098   3.833   2.012   1.747 -0.0275  0.6962  1.0500
 2895TIP3   OH230099   2.163   4.601  15.566  0.3496  0.3815 -0.1681
 2895TIP3    H130100   2.132   4.691  15.562 -0.0697  0.3874  2.0203
 2895TIP3    H230101   2.135   4.562  15.483  0.1608  2.1260 -0.9685
 2896TIP3   OH230102   2.059   5.758   4.587  0.1847  0.0104 -0.5135
 2896TIP3    H130103   2.137   5.790   4.541  0.5683 -0.0378  0.0874
 2896TIP3    H230104   1.987   5.808   4.548  0.7984  1.8910  0.5970
 2897TIP3   OH230105   4.792   1.884  11.214  0.3339 -0.2548 -0.1750
 2897TIP3    H130106   4.831   1.970  11.198  0.0088 -0.2842 -1.1944
 2897TIP3    H230107   4.698   1.901  11.220  0.3701 -0.3802  0.8410
 2898TIP3   OH230108   0.561   6.383   0.238  0.1109 -0.1492  0.2012
 2898TIP3    H130109   0.466   6.376   0.229  0.0107 -0.2004  1.1990
 2898TIP3    H230110   0.577   6.369   0.331  1.2577 -2.0271 -0.2234
 2899TIP3   OH230111   0.140   0.468  12.925  0.5418  0.3077 -0.4195
 2899TIP3    H130112   0.096   0.396  12.880 -1.5674  0.4427  1.2793
 2899TIP3    H230113   0.194   0.424  12.991 -0.3185  0.2359  0.2528
 2900TIP3   OH230114   2.336   6.223   4.772  0.5714 -0.4380  0.2778
 2900TIP3    H130115   2.319   6.143   4.823  0.5141  0.2561  1.4017
 2900TIP3    H230116   2.259   6.232   4.716  0.1284 -0.6693  0.8338
 2901TIP3   OH230117   0.489   1.646   5.803  0.4374  0.0936 -0.2502
 2901TIP3    H130118   0.522   1.720   5.854 -0.5199  0.3576 -0.0087
 2901TIP3    H230119   0.548   1.643   5.727  0.2012  1.4129 -0.5175
 2902TIP3   OH230120   5.894   5.762  11.913  0.4990 -0.2022  0.6268
 2902TIP3    H130121   5.934   5.727  11.992  0.3932  0.1094  0.8181
 2902TIP3    H230122   5.940   5.845  11.897 -0.8077  0.7187  1.4702
 2903TIP3   OH230123   1.846   6.498  14.600 -0.1387 -0.1075  0.4569
 2903TIP3    H130124   1.886   6.421  14.640 -2.1634 -0.1210  2.7285
 2903TIP3    H230125   1.820   6.469  14.512  1.6835 -1.0630  0.1833
 2904TIP3   OH230126   1.010   2.055   3.817 -0.3954  0.0912 -1.0247
 2904TIP3    H130127   1.019   2.010   3.732 -1.1685  0.3651 -1.2610
 2904TIP3    H230128   0.927   2.103   3.810 -0.8654 -0.5038  0.1725
 2905TIP3   OH230129   6.347   5.034  11.474 -0.1138  0.7170 -0.1197
 2905TIP3    H130130   6.305   5.082  11.546  0.2156  1.9503 -0.7204
 2905TIP3    H230131   6.384   5.102  11.418  0.3054 -0.2501 -1.0597
 2906TIP3   OH230132   0.805   2.353   2.816 -0.3225 -0.2678 -0.3589
 2906TIP3    H130133   0.801   2.429   2.759  0.3660  0.7315  0.8871
 2906TIP3    H230134   0.849   2.384   2.896 -1.4669 -1.5352  0.8310
 2907TIP3   OH230135   4.843   3.154  12.775  0.2081 -0.6119  0.0964
 2907TIP3    H130136   4.901   3.176  12.848 -0.9522  1.0119  0.5825
 2907TIP3    H230137   4.757   3.140  12.815 -0.3861  0.0245 -0.9060
 2908TIP3   OH230138   2.800   3.759  12.393 -0.4936  0.2474  0.2048
 2908TIP3    H130139   2.788   3.674  12.435 -1.4120  0.3800  0.2294
 2908TIP3    H230140   2.895   3.772  12.391 -0.3341 -0.8939 -0.0405
 2909TIP3   OH230141   2.821   3.480   5.862  0.0025 -0.1797  0.2929
 2909TIP3    H130142   2.805   3.571   5.839  1.7493 -0.1337 -1.0281
 2909TIP3    H230143   2.857   3.442   5.782 -2.3543 -2.5331  0.2452
 2910TIP3   OH230144   4.652   0.616   3.298  0.0971  0.3030 -0.5262
 2910TIP3    H130145   4.714   0.687   3.280  0.1655  0.7315  1.2052
 2910TIP3    H230146   4.706   0.543   3.328 -0.1642  0.4542  0.3451
 2911TIP3   OH230147   5.876   6.162   1.492 -1.1137  0.2477  0.3721
 2911TIP3    H130148   5.917   6.194   1.573 -0.5568 -0.3051  0.3180
 2911TIP3    H230149   5.827   6.237   1.459  0.4502  1.1908  0.0513
 2912TIP3   OH230150   2.669   2.658   0.825 -0.2286  0.4492  0.6717
 2912TIP3    H130151   2.644   2.750   0.820 -0.4365  0.3510 -0.2050
 2912TIP3    H230152   2.734   2.647   0.755 -1.3441 -0.4187 -0.2809
 2913TIP3   OH230153   4.171   4.965  12.875 -0.5052 -0.0056 -0.6053
 2913TIP3    H130154   4.106   5.032  12.852  0.8126  2.1879  1.5383
 2913TIP3    H230155   4.206   4.936  12.791 -1.9714  1.1264 -1.6695
 2914TIP3   OH230156   6.401   0.596   4.886 -0.4899  0.2626 -0.1655
 2914TIP3    H130157   6.360   0.553   4.811 -1.6176 -0.2513  0.7161
 2914TIP3    H230158   6.336   0.660   4.915 -0.8361 -0.7747  1.4443
 2915TIP3   OH230159   1.537   3.854   2.365 -0.3602  0.4663  0.0636
 2915TIP3    H130160   1.445   3.867   2.341 -0.0266  1.1070 -0.9046
 2915TIP3    H230161   1.544   3.760   2.382 -1.4195  0.5567  1.1486
 2916TIP3   OH230162   4.835   1.124  16.137 -0.3872 -0.0555  0.0992
 2916TIP3    H130163   4.857   1.037  16.171  2.0366  1.0241  1.5224
 2916TIP3    H230164   4.909   1.179  16.162 -2.5253  2.8010  0.6127
 2917TIP3   OH230165   2.497   5.147   2.606 -0.1048  0.1638 -0.3671
 2917TIP3    H130166   2.505   5.134   2.512 -2.1307 -1.5281 -0.3925
 2917TIP3    H230167   2.587   5.146   2.639  0.5509 -1.3600 -2.0490
 2918TIP3   OH230168   4.455   1.386  15.918  0.3804 -0.1810  0.8682
 2918TIP3    H130169   4.492   1.474  15.927  0.0155 -0.0194  0.7902
 2918TIP3    H230170   4.396   1.378  15.993  3.8697 -2.1196  3.7506
 2919TIP3   OH230171   0.541   2.566   0.234 -0.4035 -0.0298 -0.2451
 2919TIP3    H130172   0.515   2.648   0.192  0.7873 -0.2495 -1.5015
 2919TIP3    H230173   0.463   2.511   0.229 -0.4463  0.1305 -1.7697
 2920TIP3   OH230174   5.420   6.044  11.782  0.0356 -0.1273  0.3113
 2920TIP3    H130175   5.463   6.035  11.697  0.0144  2.0362  0.0052
 2920TIP3    H230176   5.492   6.056  11.844  0.0778 -2.1630  0.7392
 2921TIP3   OH230177   6.659   5.741   0.237 -0.1752 -0.2475  0.2024
 2921TIP3    H130178   6.679   5.648   0.252 -0.1296 -0.1359  0.8788
 2921TIP3    H230179   6.737   5.787   0.268  1.4874 -0.1178 -3.6601
 2922TIP3   OH230180   0.366   1.070  12.634 -0.2056  0.1868  0.9232
 2922TIP3    H130181   0.358   1.165  12.634 -0.4321  0.1708 -0.1160
 2922TIP3    H230182   0.362   1.045  12.542 -0.2956 -0.8447  1.1963
 2923TIP3   OH230183   2.592   6.468  15.763 -0.2623  0.1514  0.1818
 2923TIP3    H130184   2.630   6.436  15.845 -2.6601 -0.6619  1.0637
 2923TIP3    H230185   2.541   6.394  15.731 -0.6332  0.9959 -1.2524
 2924TIP3   OH230186   3.493   6.652   4.833  0.3685  0.4157  0.1180
 2924TIP3    H130187   3.452   6.730   4.871 -0.0771 -0.3700  1.3452
 2924TIP3    H230188   3.513   6.676   4.743 -2.6460  0.9390 -0.5205
 2925TIP3   OH230189   2.088   5.060  15.599 -0.1608 -0.3036  0.5542
 2925TIP3    H130190   2.041   4.982  15.570 -1.9236 -0.2751  2.9865
 2925TIP3    H230191   2.083   5.120  15.525 -0.9876 -1.5672 -0.4552
 2926TIP3   OH230192   6.724   3.351  13.639 -0.1337 -0.1512  0.5977
 2926TIP3    H130193   6.698   3.282  13.578  2.9239 -0.4033 -0.5972
 2926TIP3    H230194   6.766   3.305  13.711  0.7163  0.3423  0.4395
 2927TIP3   OH230195   5.481   4.600   4.019 -0.6085  0.4087 -0.1301
 2927TIP3    H130196   5.523   4.534   4.074 -0.4042  0.0185 -0.7533
 2927TIP3    H230197   5.538   4.607   3.943 -0.9789  0.8343 -0.3698
 2928TIP3   OH230198   3.600   4.572  16.165 -0.0596  0.0523  0.8408
 2928TIP3    H130199   3.561   4.509  16.226 -3.1793  0.7886 -0.1909
 2928TIP3    H230200   3.528   4.630  16.143  1.6117  1.3288 -1.6273
 2929TIP3   OH230201   2.685   1.963  12.851  0.1303  0.6345 -0.0091
 2929TIP3    H130202   2.776   1.935  12.865  0.1014  1.1644  1.4123
 2929TIP3    H230203   2.692   2.057  12.836 -0.2677  0.8592  1.1773
 2930TIP3   OH230204   0.577   2.851  14.474 -0.0309  0.0582 -0.2766
 2930TIP3    H130205   0.666   2.864  14.507 -0.8385  0.6359  1.8256
 2930TIP3    H230206   0.543   2.940  14.459 -0.5433 -0.1220 -0.2215
 2931TIP3   OH230207   0.042   0.091  10.420  0.0809 -0.0494 -0.5041
 2931TIP3    H130208  -0.003   0.008  10.433  1.7245 -0.9371 -0.2240
 2931TIP3    H230209   0.065   0.092  10.327 -0.6399  0.4833 -0.6867
 2932TIP3   OH230210   3.579   0.644  12.996 -0.2318  0.3906  0.9622
 2932TIP3    H130211   3.512   0.710  13.013 -1.6028 -1.1035  1.6345
 2932TIP3    H230212   3.593   0.601  13.081 -0.5127 -1.1784  0.2560
 2933TIP3   OH230213   6.637   1.831   4.317  0.0472  0.1024  0.5135
 2933TIP3    H130214   6.666   1.885   4.391  0.5999  0.9148 -0.2688
 2933TIP3    H230215   6.707   1.766   4.307 -0.2773 -0.3350  1.0127
 2934TIP3   OH230216   4.937   5.087   6.114  0.2306  0.6398  0.3751
 2934TIP3    H130217   4.926   4.992   6.111  0.9963  0.5356  0.6790
 2934TIP3    H230218   4.872   5.116   6.178 -0.9294  0.4842 -0.6829
 2935TIP3   OH230219   0.722   6.677   0.527 -0.0478  0.4549 -0.1354
 2935TIP3    H130220   0.790   6.654   0.464 -0.7018  1.6556 -1.3028
 2935TIP3    H230221   0.643   6.690   0.475 -0.9957 -0.0770  1.1068
 2936TIP3   OH230222   1.942   4.855  11.746 -0.2062 -0.0066  0.0384
 2936TIP3    H130223   1.862   4.907  11.740 -0.4820 -0.5089 -0.9276
 2936TIP3    H230224   1.938   4.814  11.832 -0.8999  0.1165  0.0700
 2937TIP3   OH230225   3.193   6.625  16.402 -0.4410  0.1937 -0.2314
 2937TIP3    H130226   3.202   6.654  16.493 -0.6653  1.7494 -0.6690
 2937TIP3    H230227   3.207   6.704  16.350 -2.3331 -0.2092 -1.4722
 2938TIP3   OH230228   5.370   5.381   4.839 -0.4823 -0.5955 -0.4510
 2938TIP3    H130229   5.372   5.340   4.926  1.1929  0.3919  0.0242
 2938TIP3    H230230   5.460   5.409   4.824 -1.1226  0.9117 -1.7326
 2939TIP3   OH230231   3.592   6.808   2.473  0.3666  0.1501 -0.2298
 2939TIP3    H130232   3.564   6.719   2.495  1.4721  0.0484  0.8674
 2939TIP3    H230233   3.648   6.834   2.545  0.3768  1.6054 -0.7366
 2940TIP3   OH230234   6.085   4.125  15.881  0.0604  0.1113  0.2790
 2940TIP3    H130235   6.157   4.090  15.933  0.3339  1.1496  0.6179
 2940TIP3    H230236   6.120   4.130  15.792 -0.7360 -2.6305 -0.2701
 2941TIP3   OH230237   0.389   2.738   4.677  0.3421 -0.1859  0.0276
 2941TIP3    H130238   0.414   2.796   4.606  1.8004 -1.5287 -0.6167
 2941TIP3    H230239   0.437   2.657   4.660 -0.8316 -1.2365  1.4448
 2942TIP3   OH230240   4.846   3.002  12.310  0.4674 -0.5699  0.3769
 2942TIP3    H130241   4.840   2.948  12.232  1.6096 -0.2711  0.0594
 2942TIP3    H230242   4.782   3.072  12.296 -0.6489 -1.5234  0.5615
 2943TIP3   OH230243   5.124   3.359  15.293  0.0789  0.1070  0.2658
 2943TIP3    H130244   5.100   3.437  15.243 -1.0853  0.1775  0.9114
 2943TIP3    H230245   5.220   3.358  15.291  0.0811  1.0112 -0.5698
 2944TIP3   OH230246   0.119   0.049  11.269  1.0363  0.3385  0.1949
 2944TIP3    H130247   0.101   0.081  11.357 -1.6681  0.0958 -0.1840
 2944TIP3    H230248   0.124   0.128  11.215  0.9481  0.4126  0.2958
 2945TIP3   OH230249   3.204   1.800   5.628  0.6522  0.0453 -0.6528
 2945TIP3    H130250   3.124   1.840   5.663  0.7757 -0.3952  0.1604
 2945TIP3    H230251   3.270   1.869   5.633  0.3394  0.3959 -1.2818
 2946TIP3   OH230252   3.356   3.575   4.560  0.4623  0.2854  0.0673
 2946TIP3    H130253   3.443   3.548   4.532 -0.5263 -1.1605 -1.8589
 2946TIP3    H230254   3.327   3.637   4.494  0.0686  0.8896  0.7864
 2947TIP3   OH230255   3.082   4.906  11.231 -0.6429  0.4128 -0.1234
 2947TIP3    H130256   3.005   4.862  11.268 -0.7328  1.0235  0.4581
 2947TIP3    H230257   3.077   4.995  11.267  0.4093  0.4258  0.0287
 2948TIP3   OH230258   3.950   5.025   1.127  0.0537 -0.3538 -0.5646
 2948TIP3    H130259   4.009   5.047   1.055  0.0880  2.2153  0.1480
 2948TIP3    H230260   3.864   5.055   1.097 -0.0319  0.1919  0.1927
 2949TIP3   OH230261   0.241   6.100   5.700  1.2677  0.3009 -0.1239
 2949TIP3    H130262   0.184   6.177   5.696 -0.1778 -0.7684 -1.1822
 2949TIP3    H230263   0.253   6.085   5.794  2.0376  2.1043  0.1153
 2950TIP3   OH230264   5.853   4.082  15.624  0.1513  0.2163  0.1422
 2950TIP3    H130265   5.853   4.019  15.696 -0.2350  0.4172  0.3222
 2950TIP3    H230266   5.933   4.133  15.637 -1.2466  2.1491  2.1374
 2951TIP3   OH230267   1.254   0.530   1.973 -0.0537 -0.2374 -0.0904
 2951TIP3    H130268   1.240   0.622   1.948  0.4329 -1.0045 -3.5729
 2951TIP3    H230269   1.167   0.490   1.965 -0.4994  0.0251  2.4836
 2952TIP3   OH230270   3.040   6.153   2.656  0.3423 -0.2383 -0.3712
 2952TIP3    H130271   3.131   6.179   2.638  1.2615 -3.5758 -1.2822
 2952TIP3    H230272   3.037   6.143   2.751  1.9304 -2.8484 -0.4825
 2953TIP3   OH230273   3.908   3.732   0.728  0.7150  0.1821 -0.3611
 2953TIP3    H130274   3.895   3.658   0.787 -1.5756 -0.2857 -1.3467
 2953TIP3    H230275   3.965   3.792   0.776  0.6937 -1.1406  1.4139
 2954TIP3   OH230276   4.795   6.291   2.923 -0.3327  0.3065 -0.1290
 2954TIP3    H130277   4.706   6.324   2.928 -0.6640 -0.6473  0.9156
 2954TIP3    H230278   4.847   6.365   2.892 -1.4937  0.8364 -0.8690
 2955TIP3   OH230279   1.428   1.988   1.927  0.0322  0.8297  0.3579
 2955TIP3    H130280   1.487   1.923   1.964  0.6445  0.8030 -0.6289
 2955TIP3    H230281   1.369   1.938   1.871  0.8257  1.1459 -0.8070
 2956TIP3   OH230282   6.580   1.611   3.588  0.6307 -0.6601 -0.1890
 2956TIP3    H130283   6.651   1.659   3.630  0.5729  0.0429 -0.8843
 2956TIP3    H230284   6.611   1.596   3.498 -0.8824  1.3746 -1.1000
 2957TIP3   OH230285   1.334   2.782   4.149  0.1318  0.4254  0.2060
 2957TIP3    H130286   1.303   2.870   4.169  0.2411  0.1958  1.4841
 2957TIP3    H230287   1.255   2.729   4.145  0.0276  0.6646 -1.0571
 2958TIP3   OH230288   5.822   6.340  16.588 -0.1532 -0.7524  0.3765
 2958TIP3    H130289   5.815   6.418  16.534  0.7100 -0.7629  0.2487
 2958TIP3    H230290   5.913   6.339  16.619 -0.6691 -0.6217  2.0127
 2959TIP3   OH230291   1.246   5.927   4.744  0.1469 -0.1658  0.6560
 2959TIP3    H130292   1.186   5.898   4.676  1.4299 -0.8698 -0.2168
 2959TIP3    H230293   1.277   5.846   4.785  0.2110  0.2046  1.3638
 2960TIP3   OH230294   2.063   3.634   4.484  0.5508 -0.2681 -0.2972
 2960TIP3    H130295   2.083   3.726   4.466  0.7643 -0.2800 -0.1191
 2960TIP3    H230296   2.026   3.634   4.572  0.5969 -0.3573 -0.2772
 2961TIP3   OH230297   1.330   4.063  16.271 -0.3124 -0.5493  0.0023
 2961TIP3    H130298   1.399   4.018  16.223 -0.5121 -1.1607  0.2825
 2961TIP3    H230299   1.317   4.145  16.223  0.4310 -0.5396 -0.1952
 2962TIP3   OH230300   0.345   4.649  11.838 -0.4720  0.2916 -0.0185
 2962TIP3    H130301   0.265   4.597  11.832 -0.7078  0.5329  0.9336
 2962TIP3    H230302   0.327   4.727  11.786  0.0294 -0.7128 -1.8061
 2963TIP3   OH230303   5.328   1.936  15.195  0.4957  0.3471  0.0892
 2963TIP3    H130304   5.301   1.980  15.276 -0.8365  1.0598 -0.7088
 2963TIP3    H230305   5.418   1.907  15.212  0.1850  0.3403  1.8691
 2964TIP3   OH230306   1.402   3.957  10.664  0.2047 -0.0252  0.4118
 2964TIP3    H130307   1.491   3.987  10.648 -0.3583  1.2010 -0.5489
 2964TIP3    H230308   1.348   4.035  10.657 -1.2132 -1.0826 -1.3028
 2965TIP3   OH230309   4.561   0.205   0.596  0.2254 -0.0861  0.3098
 2965TIP3    H130310   4.603   0.146   0.533 -0.4191 -0.2199 -0.0046
 2965TIP3    H230311   4.537   0.282   0.544 -2.3299 -1.1000 -0.1706
 2966TIP3   OH230312   0.579   0.709   5.824  0.2954  0.7788 -0.6530
 2966TIP3    H130313   0.615   0.759   5.898  1.3692 -1.8080  0.6996
 2966TIP3    H230314   0.613   0.621   5.837 -1.7878 -0.4114 -2.7405
 2967TIP3   OH230315   3.541   6.727  11.517 -0.8292 -0.0539 -0.4031
 2967TIP3    H130316   3.572   6.647  11.473 -2.3026 -1.3863  0.8532
 2967TIP3    H230317   3.479   6.695  11.583 -1.2993  2.1387  0.2821
 2968TIP3   OH230318   6.340   4.812   3.012  0.0679  0.5477 -0.1799
 2968TIP3    H130319   6.324   4.906   3.022  0.6909  0.6421 -0.0168
 2968TIP3    H230320   6.386   4.805   2.928  0.0814  0.3986 -0.1595
 2969TIP3   OH230321   0.914   5.998  17.055 -0.2567  0.0107 -0.1306
 2969TIP3    H130322   0.861   5.990  16.976  1.7051 -0.7552 -1.4525
 2969TIP3    H230323   1.000   6.025  17.023  0.5819 -0.2812  1.7522
 2970TIP3   OH230324   6.345   6.288  13.548 -0.1091 -0.1723  0.1414
 2970TIP3    H130325   6.354   6.367  13.495 -1.4806 -1.7354 -2.5947
 2970TIP3    H230326   6.428   6.241  13.536  0.1166  0.1202  0.5348
 2971TIP3   OH230327   3.212   6.044   5.686  0.6496  0.3729 -0.5021
 2971TIP3    H130328   3.164   6.045   5.769  3.0169  0.1905  0.9591
 2971TIP3    H230329   3.198   5.956   5.652  0.4015  0.1423  0.1717
 2972TIP3   OH230330   6.346   1.957   0.397 -0.1178 -0.3442  0.1350
 2972TIP3    H130331   6.376   1.990   0.312 -2.1644  1.0140 -0.1301
 2972TIP3    H230332   6.295   1.879   0.375  1.0581 -1.2068  0.3552
 2973TIP3   OH230333   3.255   1.502   3.297  0.1932 -0.0948 -0.4891
 2973TIP3    H130334   3.242   1.443   3.370  2.4018 -0.3993 -0.2925
 2973TIP3    H230335   3.255   1.590   3.336  0.9369 -0.2294 -0.1818
 2974TIP3   OH230336   1.299   0.886   4.230 -0.4786 -0.5925 -0.0972
 2974TIP3    H130337   1.244   0.882   4.152 -0.9540  1.2182  0.1100
 2974TIP3    H230338   1.294   0.798   4.267 -1.1714 -1.1596 -1.4649
 2975TIP3   OH230339   6.474   4.624  16.977  0.6224 -0.0929 -0.0317
 2975TIP3    H130340   6.517   4.622  17.062  0.4120  0.2084  0.0855
 2975TIP3    H230341   6.545   4.626  16.913  0.8593  2.7470  0.1891
 2976TIP3   OH230342   2.956   1.640   1.839 -0.5602 -0.2545  0.2838
 2976TIP3    H130343   2.983   1.636   1.747  0.3788 -1.3841  0.5896
 2976TIP3    H230344   2.920   1.728   1.849  1.6334  0.8121 -0.5680
 2977TIP3   OH230345   6.392   1.042  15.516 -0.5789 -0.7050  0.0673
 2977TIP3    H130346   6.384   1.133  15.544  1.7311 -0.4224  0.0448
 2977TIP3    H230347   6.340   1.037  15.436  2.1442  1.7219 -2.1099
 2978TIP3   OH230348   0.193   3.383  14.431 -0.0956  0.2134  0.1412
 2978TIP3    H130349   0.238   3.304  14.460  1.4675  0.5645 -1.2128
 2978TIP3    H230350   0.102   3.369  14.458  0.6669 -0.7238  2.5193
 2979TIP3   OH230351   6.710   1.697   0.513  0.5304  0.3674  0.1312
 2979TIP3    H130352   6.686   1.734   0.598  1.2986 -0.9315  0.9454
 2979TIP3    H230353   6.716   1.602   0.529 -0.4313 -0.0392 -1.6379
 2980TIP3   OH230354   3.437   1.869  13.551 -0.8431  0.5626 -0.5184
 2980TIP3    H130355   3.478   1.789  13.517 -1.1902  0.5013 -0.7966
 2980TIP3    H230356   3.491   1.893  13.627 -0.8239 -0.0186 -0.3424
 2981TIP3   OH230357   3.711   5.357  16.103  0.0982  0.1016  0.7700
 2981TIP3    H130358   3.754   5.282  16.061  0.8111 -0.1867  1.9789
 2981TIP3    H230359   3.665   5.319  16.178 -2.1935  0.4210 -0.3710
 2982TIP3   OH230360   5.833   5.837  10.637 -0.1244  0.3867 -0.3162
 2982TIP3    H130361   5.741   5.839  10.663  0.1633  0.0607  0.7511
 2982TIP3    H230362   5.868   5.758  10.677  0.5279  0.2954 -1.0508
 2983TIP3   OH230363   3.996   5.259  15.394 -0.1050  0.4180 -0.1002
 2983TIP3    H130364   3.944   5.313  15.453 -0.6669 -0.4022  0.1704
 2983TIP3    H230365   3.937   5.239  15.321  0.1133  0.2148 -0.2228
 2984TIP3   OH230366   3.655   1.360  13.506 -0.3023  0.0961 -0.1413
 2984TIP3    H130367   3.692   1.331  13.422  0.6011  0.6789  0.0404
 2984TIP3    H230368   3.732   1.372  13.563 -0.9011 -0.3422  0.7931
 2985TIP3   OH230369   3.781   4.051   4.368 -0.2807  0.4692 -0.5742
 2985TIP3    H130370   3.737   4.035   4.284  2.0702 -2.0310 -1.4728
 2985TIP3    H230371   3.847   4.117   4.349  0.0775  0.0929 -0.6576
 2986TIP3   OH230372   2.878   6.352   3.670 -0.1482 -0.4389 -0.2910
 2986TIP3    H130373   2.906   6.322   3.757 -2.3901 -1.5558  0.0999
 2986TIP3    H230374   2.805   6.295   3.647 -2.1995  2.3240 -1.1696
 2987TIP3   OH230375   5.617   0.958  11.841 -0.1514 -0.1678  0.1491
 2987TIP3    H130376   5.657   1.021  11.900  2.5676 -2.7273  1.3004
 2987TIP3    H230377   5.555   0.910  11.895 -0.1120 -0.3216  0.0595
 2988TIP3   OH230378   1.451   6.220   5.485 -0.2747 -0.0804 -0.4414
 2988TIP3    H130379   1.464   6.143   5.429  0.9793  0.2016 -0.5702
 2988TIP3    H230380   1.361   6.211   5.518 -0.5119 -1.0336 -1.3007
 2989TIP3   OH230381   4.468   5.094   4.644 -0.0106  0.1563  0.3587
 2989TIP3    H130382   4.519   5.127   4.718 -0.2232 -0.9976  1.0487
 2989TIP3    H230383   4.470   5.165   4.579  1.1150  0.7510  1.0160
 2990TIP3   OH230384   0.132   2.189  14.373 -0.4660  0.4527 -0.0260
 2990TIP3    H130385   0.137   2.259  14.307  0.7981  0.7996  0.4090
 2990TIP3    H230386   0.210   2.201  14.426 -2.5044  1.5826  2.9651
 2991TIP3   OH230387   5.408   0.663   2.210 -0.6925 -0.3340 -0.1609
 2991TIP3    H130388   5.418   0.595   2.142  0.5620  0.0280 -0.3633
 2991TIP3    H230389   5.436   0.620   2.291 -0.8254 -0.3383 -0.1165
 2992TIP3   OH230390   0.156   2.474   3.560  0.2236  0.4154 -0.0502
 2992TIP3    H130391   0.237   2.499   3.514  1.1164 -1.0003  0.6695
 2992TIP3    H230392   0.187   2.437   3.643 -1.1603 -0.3222  0.1576
 2993TIP3   OH230393   4.703   2.708  11.015  0.2428  0.2656 -0.5190
 2993TIP3    H130394   4.644   2.705  10.939 -0.6769 -0.1662  0.1796
 2993TIP3    H230395   4.787   2.677  10.981 -0.2959 -0.4659 -1.2414
 2994TIP3   OH230396   2.877   1.658  13.662  0.1564  0.1605  0.1215
 2994TIP3    H130397   2.955   1.625  13.617  1.2263  0.5522  1.6259
 2994TIP3    H230398   2.899   1.748  13.686 -1.8564  1.3071 -1.8983
 2995TIP3   OH230399   3.409   5.255  16.125 -0.5374  0.6726 -0.7517
 2995TIP3    H130400   3.462   5.230  16.201 -1.1558  0.1650 -0.4818
 2995TIP3    H230401   3.418   5.181  16.065 -3.4867 -0.9662  0.6191
 2996TIP3   OH230402   5.114   3.079  13.281  0.3571 -0.9418 -0.6294
 2996TIP3    H130403   5.095   3.171  13.297 -1.6639 -0.9926 -2.3017
 2996TIP3    H230404   5.082   3.034  13.359 -0.5815 -0.3968 -0.6834
 2997TIP3   OH230405   0.766   6.676   3.840  0.0938 -0.8854 -0.0350
 2997TIP3    H130406   0.737   6.613   3.774 -1.3354  0.4573 -0.7408
 2997TIP3    H230407   0.858   6.692   3.819 -0.1701 -0.9504 -1.3349
 2998TIP3   OH230408   6.008   2.539  15.739  0.6199 -0.3071  0.2953
 2998TIP3    H130409   5.959   2.531  15.657 -0.6714  0.4571  0.9697
 2998TIP3    H230410   6.055   2.622  15.731 -0.1257  0.1553  0.6374
 2999TIP3   OH230411   4.151   6.665   0.088  0.1467  0.2614 -0.0154
 2999TIP3    H130412   4.227   6.607   0.084 -1.4748 -1.9244 -2.1320
 2999TIP3    H230413   4.161   6.723   0.013 -0.0611  0.2307 -0.0687
 3000TIP3   OH230414   1.276   5.757  16.724  0.5921 -0.4464 -0.0579
 3000TIP3    H130415   1.250   5.673  16.686 -0.4591 -0.4116  0.5237
 3000TIP3    H230416   1.278   5.741  16.818 -1.3358  0.5751  0.2144
 3001TIP3   OH230417   6.266   0.065   2.052  0.2105  0.3191 -0.5121
 3001TIP3    H130418   6.175   0.067   2.082  1.2032 -0.2185  2.9539
 3001TIP3    H230419   6.272   0.139   1.992 -1.6184  3.0100  2.2869
 3002TIP3   OH230420   0.637   0.819  10.780  0.1335  0.1355  0.2590
 3002TIP3    H130421   0.570   0.813  10.713  1.3253 -1.6525 -0.8562
 3002TIP3    H230422   0.654   0.729  10.806 -1.0557  0.7707  3.8726
 3003TIP3   OH230423   4.288   3.829   4.684  0.2950 -0.0043 -0.1928
 3003TIP3    H130424   4.214   3.838   4.623  0.5697 -0.6377 -0.6307
 3003TIP3    H230425   4.267   3.751   4.735  0.7997 -0.3597 -0.5219
 3004TIP3   OH230426   4.944   2.962  13.905  0.1833 -0.3742 -0.3282
 3004TIP3    H130427   4.930   3.052  13.934  0.3409 -0.2191 -0.7351
 3004TIP3    H230428   5.038   2.956  13.889 -0.0391 -0.1420 -1.8369
 3005TIP3   OH230429   5.388   4.396   1.044  0.3943 -0.6260  0.1025
 3005TIP3    H130430   5.302   4.371   1.010 -0.7411  0.9120  1.6212
 3005TIP3    H230431   5.398   4.488   1.017  0.6482 -0.1945  1.5636
 3006TIP3   OH230432   1.706   6.640   6.636 -0.1017  0.2080  0.0594
 3006TIP3    H130433   1.626   6.692   6.627 -1.1672 -1.4933 -1.0675
 3006TIP3    H230434   1.764   6.672   6.568 -0.0075  1.1028  0.5444
 3007TIP3   OH230435   2.060   1.236   2.553  0.3853 -0.1294  0.6088
 3007TIP3    H130436   2.030   1.323   2.528  2.5637  0.7906  1.0506
 3007TIP3    H230437   2.062   1.187   2.470  1.0753  0.8555  0.0293
 3008TIP3   OH230438   1.064   4.754  13.203  0.3258  0.2357 -0.1178
 3008TIP3    H130439   1.142   4.808  13.205 -0.5374  1.5581 -0.7743
 3008TIP3    H230440   1.096   4.664  13.214  1.9160  0.7441 -0.4124
 3009TIP3   OH230441   5.240   1.696   4.642  0.1436 -0.1482 -0.5282
 3009TIP3    H130442   5.162   1.641   4.651 -1.3674  1.8546 -0.6200
 3009TIP3    H230443   5.302   1.642   4.593 -1.6511 -1.3670 -1.5728
 3010TIP3   OH230444   6.420   2.428  12.199  0.2314  0.4926 -0.4956
 3010TIP3    H130445   6.332   2.417  12.235  0.2255  1.3932 -0.2106
 3010TIP3    H230446   6.470   2.353  12.233 -0.4090  0.0006 -0.6290
 3011TIP3   OH230447   6.427   5.033   5.694 -0.6432 -0.1006  0.0685
 3011TIP3    H130448   6.346   5.083   5.684 -1.0803 -0.7737  0.1955
 3011TIP3    H230449   6.402   4.942   5.676 -0.2595 -0.5530  1.6080
 3012TIP3   OH230450   2.222   5.583  12.806  0.4298  0.1120 -0.2139
 3012TIP3    H130451   2.177   5.648  12.753  0.7417 -0.6507 -1.4587
 3012TIP3    H230452   2.253   5.518  12.743 -0.2548 -1.4720  1.0045
 3013TIP3   OH230453   2.498   5.189  11.496  0.2288  0.6617 -0.1022
 3013TIP3    H130454   2.483   5.139  11.416 -0.7828 -0.0206  0.4752
 3013TIP3    H230455   2.457   5.274  11.480 -1.8945 -0.1957  0.4007
 3014TIP3   OH230456   0.113   2.889   4.103 -0.8955  0.1944  0.2591
 3014TIP3    H130457   0.078   2.820   4.047 -0.2888 -0.5031  0.7158
 3014TIP3    H230458   0.132   2.844   4.186 -0.5108  0.9144  0.5642
 3015TIP3   OH230459   2.935   2.743  14.615  0.4690 -0.0918 -0.2402
 3015TIP3    H130460   2.909   2.677  14.680 -0.1607  1.3769  1.0694
 3015TIP3    H230461   3.031   2.739  14.615  0.4473 -0.7543  0.0825
 3016TIP3   OH230462   0.086   1.491   0.715 -0.8483  0.0360 -0.3953
 3016TIP3    H130463   0.123   1.556   0.776 -1.4493  0.1497 -0.1451
 3016TIP3    H230464   0.158   1.472   0.654 -0.1437 -0.2891  0.5101
 3017TIP3   OH230465   0.934   3.274   4.866 -0.3062  0.0220 -0.1379
 3017TIP3    H130466   0.879   3.222   4.807 -0.0958  0.5849 -0.8379
 3017TIP3    H230467   0.884   3.354   4.881 -0.4271 -0.1880  0.5773
 3018TIP3   OH230468   5.453   2.559  14.658  0.0215  0.6195  0.1918
 3018TIP3    H130469   5.364   2.592  14.670 -0.6972 -0.6452 -1.3472
 3018TIP3    H230470   5.445   2.491  14.592  1.7792 -1.1399  1.6491
 3019TIP3   OH230471   3.936   0.650  12.016  0.2199 -0.6761  0.6322
 3019TIP3    H130472   3.913   0.641  12.109 -2.0204  1.4270  0.3847
 3019TIP3    H230473   4.020   0.695  12.016  1.4189 -2.7378  1.5691
 3020TIP3   OH230474   5.834   6.297  12.964  0.6345  0.3132  0.7715
 3020TIP3    H130475   5.748   6.254  12.965  1.0963 -0.6315  0.8706
 3020TIP3    H230476   5.897   6.227  12.980  1.4790  0.8840  0.0951
 3021TIP3   OH230477   2.230   1.722  16.811 -0.3226  0.4915  0.0893
 3021TIP3    H130478   2.149   1.746  16.856 -1.8355 -2.3463 -0.8263
 3021TIP3    H230479   2.219   1.756  16.722 -1.0129 -0.7017 -0.3074
 3022TIP3   OH230480   2.146   5.055  14.600  0.4680 -0.2175  0.2809
 3022TIP3    H130481   2.212   5.017  14.659 -0.1390 -0.8022  0.5910
 3022TIP3    H230482   2.062   5.033  14.640  0.0816  1.8308  0.7060
 3023TIP3   OH230483   6.697   6.280   3.959 -0.1623  0.4322 -0.1327
 3023TIP3    H130484   6.702   6.356   4.017 -1.0337  0.2725  0.1641
 3023TIP3    H230485   6.630   6.224   3.998 -1.0471  0.4983 -1.5022
 3024TIP3   OH230486   3.459   3.115   5.356  0.6209  0.1111 -0.1965
 3024TIP3    H130487   3.403   3.087   5.429  1.2903 -0.7081  0.0175
 3024TIP3    H230488   3.401   3.115   5.280 -0.0080  0.6615  0.2722
 3025TIP3   OH230489   5.386   3.285  15.224  0.4387  0.3232 -0.1903
 3025TIP3    H130490   5.440   3.288  15.303 -1.2235  0.0438  1.0164
 3025TIP3    H230491   5.437   3.332  15.158  1.6076  1.1060  1.2116
 3026TIP3   OH230492   3.365   3.903   5.361  0.3321  0.2436  0.7915
 3026TIP3    H130493   3.429   3.872   5.297 -0.7846 -1.1543  0.3041
 3026TIP3    H230494   3.324   3.823   5.394 -0.6551  1.0779  1.6321
 3027TIP3   OH230495   0.516   5.776   4.365 -0.1378  0.5794  0.3559
 3027TIP3    H130496   0.483   5.688   4.347  0.0039  0.1938  1.8874
 3027TIP3    H230497   0.544   5.809   4.279  0.9601 -1.3265 -0.0781
 3028TIP3   OH230498   0.492   0.868   2.141  0.2038  0.0881  0.1098
 3028TIP3    H130499   0.490   0.782   2.183  0.1229  1.1158  2.3750
 3028TIP3    H230500   0.468   0.851   2.050 -3.3816 -1.8779  1.2245
 3029TIP3   OH230501   4.898   5.251  11.031 -0.5339 -0.3177 -0.3727
 3029TIP3    H130502   4.953   5.314  10.986 -0.4064  0.4812  0.8443
 3029TIP3    H230503   4.890   5.177  10.971  1.9268 -0.5021 -0.5443
 3030TIP3   OH230504   5.708   6.151   1.996 -0.0033 -0.0691  0.1920
 3030TIP3    H130505   5.660   6.087   2.050 -3.2450  1.7072 -0.3403
 3030TIP3    H230506   5.678   6.236   2.027  1.0143  1.1136 -1.8661
 3031TIP3   OH230507   0.842   2.706   1.078  0.2880 -0.5416  0.1838
 3031TIP3    H130508   0.830   2.639   1.012 -1.1316 -0.0143 -0.1492
 3031TIP3    H230509   0.766   2.764   1.067  0.6486  0.2268  1.4818
 3032TIP3   OH230510   1.662   2.208  12.241 -0.1809  0.1923  0.2091
 3032TIP3    H130511   1.601   2.203  12.168 -0.1806 -2.0876  0.3136
 3032TIP3    H230512   1.718   2.283  12.219 -2.0686  1.4754 -0.5690
 3033TIP3   OH230513   6.087   6.341   4.716  0.0890 -1.3038 -0.1480
 3033TIP3    H130514   6.078   6.358   4.810 -3.1950 -1.9492 -0.2299
 3033TIP3    H230515   6.119   6.424   4.680  1.4851 -1.0710  1.5192
 3034TIP3   OH230516   1.939   5.549  16.027  0.6909  0.4279 -0.0511
 3034TIP3    H130517   1.994   5.479  15.992 -0.0339  0.5387 -1.4605
 3034TIP3    H230518   1.849   5.523  16.006  0.0374 -0.1681  2.9228
 3035TIP3   OH230519   1.735   1.557   0.494 -0.1451  0.5500  0.1682
 3035TIP3    H130520   1.779   1.619   0.435 -0.5706  1.0220  0.3394
 3035TIP3    H230521   1.674   1.509   0.437  0.2067  0.2631  0.0292
 3036TIP3   OH230522   4.180   6.753  13.109 -0.5172  0.3096 -0.0738
 3036TIP3    H130523   4.156   6.667  13.144  0.2414  0.6123  1.2694
 3036TIP3    H230524   4.106   6.809  13.131  0.5253  0.8307  2.4679
 3037TIP3   OH230525   6.274   0.662  15.195 -0.0060  0.4631  0.3674
 3037TIP3    H130526   6.251   0.735  15.252  0.6195  0.9026  0.0685
 3037TIP3    H230527   6.237   0.686  15.110 -1.3099 -0.3869  0.6529
 3038TIP3   OH230528   4.970   1.036  11.544  0.2953  0.2687 -0.3849
 3038TIP3    H130529   4.990   1.125  11.574  1.2235  0.0253 -0.2272
 3038TIP3    H230530   4.879   1.039  11.515 -0.2486  0.8353  1.2975
 3039TIP3   OH230531   1.947   0.020   0.322  0.3263 -0.1091  0.1340
 3039TIP3    H130532   1.893  -0.059   0.315 -0.3702  0.4668 -1.6603
 3039TIP3    H230533   1.974   0.023   0.413  0.4119 -2.4479  0.2497
 3040TIP3   OH230534   6.072   0.330  14.442  0.0639 -0.4542 -0.0332
 3040TIP3    H130535   6.084   0.387  14.518  0.2294  1.0581 -1.1554
 3040TIP3    H230536   5.986   0.289  14.456  1.4234 -2.7770  2.5271
 3041TIP3   OH230537   3.527   1.452  16.928  0.0390 -0.1119  0.2514
 3041TIP3    H130538   3.433   1.468  16.922  0.1476  0.3240 -0.3142
 3041TIP3    H230539   3.533   1.358  16.948 -0.5064 -0.2283 -0.0879
 3042TIP3   OH230540   1.614   1.387  14.246  0.1513 -0.0833  0.1177
 3042TIP3    H130541   1.688   1.327  14.254  0.7210  0.5702 -0.1083
 3042TIP3    H230542   1.608   1.405  14.152 -0.5591 -0.4454  0.0872
 3043TIP3   OH230543   5.158   4.184  13.778 -0.1570 -0.2270  0.4101
 3043TIP3    H130544   5.189   4.275  13.782 -0.6161 -0.0518  0.0110
 3043TIP3    H230545   5.179   4.156  13.689 -1.8285  0.1473 -0.1295
 3044TIP3   OH230546   1.535   4.581  12.629 -0.1473  0.1684  0.4464
 3044TIP3    H130547   1.495   4.667  12.644 -0.6946 -0.0443  0.2410
 3044TIP3    H230548   1.629   4.598  12.627 -0.2282  0.6954  0.8456
 3045TIP3   OH230549   4.003   2.542  15.955  0.5189  0.0317  0.4133
 3045TIP3    H130550   3.957   2.567  16.034 -0.2851  0.5731 -0.2122
 3045TIP3    H230551   4.015   2.624  15.907 -0.0597 -0.4460 -0.5743
 3046TIP3   OH230552   3.186   6.069  13.157 -0.3186 -0.5820  0.1736
 3046TIP3    H130553   3.268   6.119  13.153 -0.3444 -0.2946  2.3972
 3046TIP3    H230554   3.215   5.979  13.176 -0.4033 -1.0833 -1.8041
 3047TIP3   OH230555   6.302   6.137  11.535 -0.1783 -0.1503  0.8832
 3047TIP3    H130556   6.288   6.054  11.488  1.1864  0.4735 -0.7280
 3047TIP3    H230557   6.339   6.110  11.619 -0.5099 -1.2175  0.7091
 3048TIP3   OH230558   5.485   1.827   0.239 -0.1788  0.0390  0.2632
 3048TIP3    H130559   5.456   1.852   0.326 -1.1187  0.5391 -0.1776
 3048TIP3    H230560   5.404   1.821   0.187  0.4869  1.8377 -1.1106
 3049TIP3   OH230561   1.772   2.067   0.958 -0.0344  0.8389 -0.2649
 3049TIP3    H130562   1.830   2.134   0.922 -0.0700 -0.2936 -2.5792
 3049TIP3    H230563   1.702   2.057   0.894  0.4930 -2.0859 -0.5539
 3050TIP3   OH230564   3.967   3.871   1.416 -0.1379  0.9561  0.1541
 3050TIP3    H130565   3.890   3.823   1.387  0.8459 -0.8716  0.3964
 3050TIP3    H230566   3.933   3.939   1.474 -1.4888 -0.7744  1.5041
 3051TIP3   OH230567   0.738   5.691  11.117 -0.4245  0.6263  0.4671
 3051TIP3    H130568   0.830   5.684  11.090 -0.9490 -0.8582 -1.0556
 3051TIP3    H230569   0.691   5.713  11.037 -1.5635  0.0461  0.9621
 3052TIP3   OH230570   3.048   1.701   2.258 -0.1301  0.6923 -0.0983
 3052TIP3    H130571   2.963   1.698   2.214 -0.6365 -0.3852  0.8764
 3052TIP3    H230572   3.112   1.700   2.187 -0.9236  0.8821 -0.8364
 3053TIP3   OH230573   0.993   6.508   5.395 -0.7195 -0.2946 -0.1138
 3053TIP3    H130574   0.913   6.464   5.421 -0.0915 -3.0571 -2.3580
 3053TIP3    H230575   1.060   6.472   5.453 -0.8149  0.9378  0.8056
 3054TIP3   OH230576   3.910   4.224   2.735 -0.4886  1.4519  0.0473
 3054TIP3    H130577   3.838   4.177   2.776 -0.1094 -0.5603 -1.4574
 3054TIP3    H230578   3.989   4.190   2.776 -0.2565  1.6396 -0.2371
 3055TIP3   OH230579   6.016   2.789   0.256 -0.0918 -0.3019 -0.1772
 3055TIP3    H130580   5.971   2.717   0.299 -0.0125  0.4699  1.2469
 3055TIP3    H230581   5.946   2.850   0.231  0.0650  0.5812  1.4357
 3056TIP3   OH230582   1.716   3.415   6.515 -0.5008  0.5204 -0.5414
 3056TIP3    H130583   1.729   3.505   6.546  1.0495  0.4740 -0.9791
 3056TIP3    H230584   1.652   3.378   6.575  0.7635  1.1202  1.2474
 3057TIP3   OH230585   0.506   6.144   4.198  0.0657  0.0882  0.0064
 3057TIP3    H130586   0.541   6.096   4.124  2.3481 -0.0210  1.0873
 3057TIP3    H230587   0.412   6.125   4.197  0.0127  0.0729 -2.7910
 3058TIP3   OH230588   3.519   4.147  16.516  0.0531  0.1142  0.5019
 3058TIP3    H130589   3.572   4.130  16.593  0.0141 -1.7060  0.1834
 3058TIP3    H230590   3.580   4.183  16.452  0.4181  0.1719  0.8786
 3059TIP3   OH230591   3.103   0.196   3.206  0.6110  0.2014 -0.4923
 3059TIP3    H130592   3.139   0.130   3.265  0.3485 -0.7583 -1.3893
 3059TIP3    H230593   3.010   0.176   3.201  0.5682  0.4948 -0.9614
 3060TIP3   OH230594   4.425   4.306   1.811  0.5062  0.1454  0.5104
 3060TIP3    H130595   4.384   4.317   1.725 -0.7210  1.9333  1.2473
 3060TIP3    H230596   4.478   4.385   1.822  0.0229  0.3297  1.6857
 3061TIP3   OH230597   4.535   0.317   4.561  0.5748  0.5471 -0.1734
 3061TIP3    H130598   4.565   0.343   4.474 -1.0953  0.6356 -0.7593
 3061TIP3    H230599   4.552   0.222   4.564 -1.6238  0.0270 -1.6367
 3062TIP3   OH230600   6.273   4.427   3.560 -0.6686 -0.1874 -0.3204
 3062TIP3    H130601   6.322   4.449   3.480 -0.0218  0.6684  0.2947
 3062TIP3    H230602   6.313   4.481   3.628 -1.9723 -0.0490  0.3599
 3063TIP3   OH230603   2.018   5.240  11.859  0.0462 -0.3085  0.0416
 3063TIP3    H130604   1.928   5.274  11.856 -0.4726 -1.6938 -1.9160
 3063TIP3    H230605   2.054   5.262  11.773  1.9426  1.0094  1.1032
 3064TIP3   OH230606   4.880   4.716  13.198  0.1799 -0.4778  0.2576
 3064TIP3    H130607   4.945   4.731  13.129  0.8552  0.6284  1.1061
 3064TIP3    H230608   4.798   4.748  13.160  0.2603 -1.1842 -0.5429
 3065TIP3   OH230609   3.685   4.718   1.014 -0.0130 -0.3494  0.0357
 3065TIP3    H130610   3.738   4.714   1.093 -0.9125 -2.4470  0.5945
 3065TIP3    H230611   3.732   4.664   0.951  0.9429  1.6797 -1.0920
 3066TIP3   OH230612   2.595   2.902   2.520 -0.0633  0.0078  0.1382
 3066TIP3    H130613   2.633   2.821   2.553 -0.1980  0.1214  0.5706
 3066TIP3    H230614   2.576   2.954   2.598 -1.7316 -0.3223 -0.0058
 3067TIP3   OH230615   5.732   3.672   4.779 -0.1628  0.1387  0.2760
 3067TIP3    H130616   5.681   3.728   4.837 -0.3880  1.6136 -1.2758
 3067TIP3    H230617   5.667   3.617   4.735 -0.2779  0.8913 -0.5160
 3068TIP3   OH230618   3.121   4.928  14.887 -0.2982 -0.7022 -0.1400
 3068TIP3    H130619   3.121   4.958  14.978 -1.7144 -0.4573 -0.1922
 3068TIP3    H230620   3.040   4.878  14.879 -1.2219  0.9000 -1.7476
 3069TIP3   OH230621   5.538   3.270   4.488  0.0557  0.1109 -0.1627
 3069TIP3    H130622   5.502   3.182   4.474 -1.1874  0.7254 -0.9484
 3069TIP3    H230623   5.550   3.275   4.583 -1.1043 -0.4609  0.0408
 3070TIP3   OH230624   6.605   1.930   4.731 -0.2318  0.2370  0.3978
 3070TIP3    H130625   6.675   1.988   4.702 -0.0731  0.3337  0.9736
 3070TIP3    H230626   6.648   1.846   4.746  0.1204  0.7456  2.4804
 3071TIP3   OH230627   6.726   2.296  14.069 -0.1830  0.4065  0.6200
 3071TIP3    H130628   6.707   2.330  14.156 -1.8949  0.9078  0.0887
 3071TIP3    H230629   6.642   2.266  14.035  0.6996 -1.1749 -0.3060
 3072TIP3   OH230630   3.276   0.397  17.057 -0.2665 -0.1175  0.2309
 3072TIP3    H130631   3.237   0.469  17.106 -0.5645  0.6971 -1.1353
 3072TIP3    H230632   3.341   0.439  17.001 -0.1045 -0.9776 -0.2451
 3073TIP3   OH230633   3.831   4.761   1.433  0.1541 -0.2274  0.4709
 3073TIP3    H130634   3.808   4.854   1.439  2.3133  0.3583  0.4599
 3073TIP3    H230635   3.862   4.750   1.343 -0.7668 -1.1600  0.2483
 3074TIP3   OH230636   5.305   3.395   2.547  0.5923 -0.3200  0.0783
 3074TIP3    H130637   5.335   3.341   2.620  3.1043  0.6862 -0.1198
 3074TIP3    H230638   5.303   3.336   2.472 -0.8931 -1.0866  0.6802
 3075TIP3   OH230639   2.801   4.404   4.949  0.7989 -0.1084  0.5719
 3075TIP3    H130640   2.872   4.367   5.003 -0.5518 -1.2490  1.6505
 3075TIP3    H230641   2.801   4.350   4.870  1.7570  0.5445  0.1056
 3076TIP3   OH230642   5.730   1.281  16.802  0.0963  0.1671 -0.4662
 3076TIP3    H130643   5.647   1.234  16.801 -0.7877  1.6709  0.0166
 3076TIP3    H230644   5.724   1.342  16.729  0.6213  0.5548 -0.1953
 3077TIP3   OH230645   5.224   1.391   1.761 -0.4015 -0.1037  0.4060
 3077TIP3    H130646   5.219   1.439   1.843 -0.1218  0.2008  0.2453
 3077TIP3    H230647   5.218   1.459   1.693 -0.2134 -0.3138  0.1778
 3078TIP3   OH230648   3.560   6.321  11.014 -0.4407 -0.0599  0.3282
 3078TIP3    H130649   3.638   6.374  10.997 -0.9631  0.2607 -1.3071
 3078TIP3    H230650   3.498   6.382  11.055  0.1260 -0.3044  1.5883
 3079TIP3   OH230651   5.811   5.913   4.643  0.5220 -0.0714 -0.3532
 3079TIP3    H130652   5.778   5.906   4.733  2.4096  0.4433  0.4404
 3079TIP3    H230653   5.751   5.973   4.599 -0.9523 -1.0305  0.2746
 3080TIP3   OH230654   3.004   5.086  14.309  0.0264  0.4198 -0.1583
 3080TIP3    H130655   3.028   5.074  14.217  2.2800 -1.0916  0.5444
 3080TIP3    H230656   2.915   5.123  14.306  0.0450  0.4559 -2.9076
 3081TIP3   OH230657   2.375   0.024  12.726 -0.5583  0.2613  0.0521
 3081TIP3    H130658   2.442   0.013  12.793  1.5889  0.0650 -1.9935
 3081TIP3    H230659   2.388   0.114  12.694 -1.0536  0.1102 -0.5939
 3082TIP3   OH230660   1.815   2.415  15.416 -0.1020 -0.4125 -0.4641
 3082TIP3    H130661   1.781   2.332  15.451 -0.8212  0.6837  1.5849
 3082TIP3    H230662   1.873   2.448  15.484 -1.5909  1.8412 -0.1846
 3083TIP3   OH230663   4.754   5.380  14.298  0.0047  0.7288 -0.4880
 3083TIP3    H130664   4.832   5.325  14.303 -0.2769  0.4426  1.4775
 3083TIP3    H230665   4.788   5.466  14.272  1.0318  0.6742  0.5651
 3084TIP3   OH230666   4.891   6.309  11.406 -0.2258 -0.0930 -0.1556
 3084TIP3    H130667   4.965   6.362  11.378  1.7027 -2.7699 -0.5950
 3084TIP3    H230668   4.815   6.349  11.364  1.0560  2.3295 -0.3076
 3085TIP3   OH230669   4.778   6.541   0.401 -0.2290  0.0320 -0.3815
 3085TIP3    H130670   4.779   6.616   0.461 -2.4795  1.4792 -1.9927
 3085TIP3    H230671   4.836   6.477   0.442 -0.2708  1.6100  2.4124
 3086TIP3   OH230672   5.944   1.974   4.901  0.0693 -0.0180  0.5550
 3086TIP3    H130673   5.921   2.061   4.869 -0.0952 -0.4083 -0.4268
 3086TIP3    H230674   5.918   1.915   4.830  0.0636 -0.8777  1.2581
 3087TIP3   OH230675   6.658   3.597   6.420  0.2447 -0.5713  0.1142
 3087TIP3    H130676   6.586   3.631   6.367 -0.5717  0.0002  1.5290
 3087TIP3    H230677   6.675   3.510   6.384 -0.2948 -0.2165 -1.0524
 3088TIP3   OH230678   2.183   2.070  10.497 -0.2795 -0.0714  0.1092
 3088TIP3    H130679   2.217   2.125  10.568  2.9916 -0.6623 -0.8483
 3088TIP3    H230680   2.258   2.054  10.441 -1.9634 -2.5116 -1.6558
 3089TIP3   OH230681   0.659   6.649  12.452  0.2563 -0.0257 -0.4020
 3089TIP3    H130682   0.572   6.656  12.491 -0.2080  0.9041 -1.5257
 3089TIP3    H230683   0.715   6.702  12.510 -0.3367  1.0118 -0.7429
 3090TIP3   OH230684   2.082   3.305  11.404 -0.2436  0.5278 -0.3552
 3090TIP3    H130685   2.065   3.323  11.312 -0.3737  0.6065 -0.3166
 3090TIP3    H230686   2.038   3.376  11.451  0.6340  1.0368 -0.2751
 3091TIP3   OH230687   0.080   1.274   2.489 -0.3706 -0.0450  0.3449
 3091TIP3    H130688   0.050   1.365   2.483 -0.3882 -0.0005  1.0614
 3091TIP3    H230689   0.172   1.277   2.461 -0.9729 -0.1799 -1.8683
 3092TIP3   OH230690   6.678   5.329  14.826  0.1665  0.1737 -0.2807
 3092TIP3    H130691   6.611   5.268  14.794 -0.4577  0.8732 -0.3466
 3092TIP3    H230692   6.697   5.384  14.750 -0.5375  1.1534  0.2355
 3093TIP3   OH230693   2.803   5.748  12.586  0.2207  0.3655 -0.1266
 3093TIP3    H130694   2.825   5.764  12.678 -0.3954 -0.2294  0.1322
 3093TIP3    H230695   2.739   5.815  12.564 -0.7045 -0.3571  0.3070
 3094TIP3   OH230696   6.574   1.768   1.001 -0.0519 -0.3689  0.3389
 3094TIP3    H130697   6.573   1.831   1.073 -1.4523 -0.5710  0.5368
 3094TIP3    H230698   6.571   1.683   1.045 -0.7259 -0.4985  0.0525
 3095TIP3   OH230699   1.477   5.575   1.440  0.2888 -0.3196 -0.3509
 3095TIP3    H130700   1.471   5.482   1.419  1.0517 -0.6142  0.6696
 3095TIP3    H230701   1.561   5.584   1.486  0.2240  0.8736 -0.4304
 3096TIP3   OH230702   6.771   6.791  14.801  0.3711  0.5182 -0.5724
 3096TIP3    H130703   6.782   6.737  14.723 -0.7162 -1.1195  0.3562
 3096TIP3    H230704   6.817   6.872  14.781  1.6091 -0.5445 -2.2252
 3097TIP3   OH230705   4.830   2.182   0.385 -0.2234 -0.1471 -0.2684
 3097TIP3    H130706   4.800   2.228   0.464 -0.5817  0.0730 -0.5263
 3097TIP3    H230707   4.844   2.252   0.321  2.6717 -0.0107  0.3668
 3098TIP3   OH230708   6.066   2.705   4.462 -0.0250 -0.7554 -0.1598
 3098TIP3    H130709   5.991   2.723   4.518  0.6923  1.3128  0.2580
 3098TIP3    H230710   6.140   2.748   4.507  0.6027  0.9139 -2.5778
 3099TIP3   OH230711   0.343   4.297  14.791  0.5450 -0.3570  0.3332
 3099TIP3    H130712   0.399   4.363  14.750 -1.0513  0.6124 -0.3818
 3099TIP3    H230713   0.333   4.328  14.881  3.1019 -1.8709  1.2611
 3100TIP3   OH230714   4.815   2.892   4.223  0.0083  0.7330  0.2638
 3100TIP3    H130715   4.840   2.802   4.247 -3.1483 -0.2250  0.3890
 3100TIP3    H230716   4.816   2.892   4.127 -2.2862 -0.2884  0.1651
 3101TIP3   OH230717   3.685   3.672   0.078 -0.3643  0.0506  0.3974
 3101TIP3    H130718   3.688   3.735   0.150 -0.1795 -0.0217  0.4534
 3101TIP3    H230719   3.612   3.614   0.100 -0.0810 -0.1902  0.7132
 3102TIP3   OH230720   2.379   1.222   4.653  0.5390 -0.6959  0.1301
 3102TIP3    H130721   2.428   1.149   4.691 -1.5042 -1.0037  2.4061
 3102TIP3    H230722   2.345   1.270   4.728 -1.9085 -0.0164 -1.3093
 3103TIP3   OH230723   5.155   3.827   3.493  0.0665 -0.4080  0.0105
 3103TIP3    H130724   5.158   3.922   3.479 -1.0962 -0.0573  1.8512
 3103TIP3    H230725   5.246   3.802   3.503  0.4255  0.4372 -0.9559
 3104TIP3   OH230726   0.386   4.642  12.672  0.1104  0.1000  0.2406
 3104TIP3    H130727   0.294   4.668  12.670  0.1197  0.4440  2.1715
 3104TIP3    H230728   0.389   4.572  12.737  0.9621 -1.1211 -1.0619
 3105TIP3   OH230729   1.721   3.920  11.500  0.0385 -0.3344  0.0377
 3105TIP3    H130730   1.723   3.990  11.435  1.8064 -1.5247 -1.2536
 3105TIP3    H230731   1.658   3.857  11.465 -0.6910  0.0322  0.6400
 3106TIP3   OH230732   0.385   0.151  14.604 -0.0411 -0.1013 -0.4021
 3106TIP3    H130733   0.400   0.059  14.580  1.0907 -0.0573  0.0660
 3106TIP3    H230734   0.395   0.199  14.521  1.4908 -0.2027 -0.3144
 3107TIP3   OH230735   5.030   2.193  12.825 -0.1959  0.6848 -1.1201
 3107TIP3    H130736   4.992   2.111  12.855  0.0100  1.3474  1.1839
 3107TIP3    H230737   4.957   2.254  12.821 -0.4237  0.3493 -3.2415
 3108TIP3   OH230738   2.755   0.764   3.966 -0.3557  0.2140 -0.5782
 3108TIP3    H130739   2.681   0.703   3.959 -1.1335  0.8699  1.2774
 3108TIP3    H230740   2.731   0.837   3.909  0.5858 -1.1424 -2.8225
 3109TIP3   OH230741   0.556   1.186  11.368  0.0446 -0.3673  0.2196
 3109TIP3    H130742   0.532   1.094  11.380 -1.9743  0.0426 -0.3611
 3109TIP3    H230743   0.505   1.215  11.292  0.0986  1.4282  0.8190
 3110TIP3   OH230744   0.329   1.356  12.600 -0.2719 -0.1714 -0.1373
 3110TIP3    H130745   0.338   1.432  12.657  2.3476  0.1910 -0.8883
 3110TIP3    H230746   0.263   1.382  12.536  0.2791  1.3240 -0.1436
 3111TIP3   OH230747   1.595   2.071  12.519 -0.3747  0.0848 -0.7973
 3111TIP3    H130748   1.656   2.103  12.453  0.9882  0.5502  0.6394
 3111TIP3    H230749   1.588   2.142  12.583  0.4439 -1.3175  0.9349
 3112TIP3   OH230750   3.310   6.457  12.320  0.0912  0.0222 -0.0367
 3112TIP3    H130751   3.327   6.378  12.372  0.1238  0.4850  0.6675
 3112TIP3    H230752   3.367   6.523  12.357 -3.1616  1.6869  2.5495
 3113TIP3   OH230753   6.672   5.333  15.800  0.6907  0.2385 -0.1389
 3113TIP3    H130754   6.587   5.352  15.761  0.9033  1.2344 -0.1470
 3113TIP3    H230755   6.664   5.361  15.891  0.5252 -1.1214  0.2879
 3114TIP3   OH230756   1.529   1.088  16.234 -0.5907  0.1145 -0.2321
 3114TIP3    H130757   1.607   1.040  16.206 -1.2163 -0.9553 -0.1911
 3114TIP3    H230758   1.556   1.180  16.235  0.4664 -0.1781 -0.8809
 3115TIP3   OH230759   4.985   0.688  14.497 -0.2098  0.2638 -0.5151
 3115TIP3    H130760   5.069   0.699  14.541 -1.3468 -1.3043  2.3114
 3115TIP3    H230761   4.959   0.777  14.472  0.8975  1.1807  1.3637
 3116TIP3   OH230762   0.313   5.900  12.320 -0.1208  0.2267  0.3501
 3116TIP3    H130763   0.402   5.886  12.353  1.0826  0.2012 -2.6045
 3116TIP3    H230764   0.289   5.987  12.353  2.5053  1.8496 -1.6659
 3117TIP3   OH230765   2.150   5.127  11.199 -0.8635 -0.1819 -0.3399
 3117TIP3    H130766   2.236   5.096  11.227 -0.4095  2.5166  1.6607
 3117TIP3    H230767   2.096   5.121  11.278 -2.5225 -1.6318 -1.5165
 3118TIP3   OH230768   3.705   1.592  13.739 -0.0023  0.2161  0.4431
 3118TIP3    H130769   3.679   1.640  13.818 -1.2374  0.5884 -0.1617
 3118TIP3    H230770   3.722   1.503  13.769  0.3249  0.5369  1.2498
 3119TIP3   OH230771   2.729   5.652   0.250 -0.3891 -0.5034 -0.0384
 3119TIP3    H130772   2.745   5.591   0.178  0.6773 -0.3053  0.0122
 3119TIP3    H230773   2.697   5.731   0.207  0.1001 -0.4361 -0.2889
 3120TIP3   OH230774   4.097   1.996  12.181  1.0792  0.1634 -0.6787
 3120TIP3    H130775   4.072   1.915  12.224 -0.6602  1.7467  1.5447
 3120TIP3    H230776   4.097   1.975  12.088 -3.2747 -1.4889 -0.5293
 3121TIP3   OH230777   4.729   0.931   2.632  0.5567  0.0969  0.1541
 3121TIP3    H130778   4.760   0.893   2.549 -2.2437  1.2218 -1.5246
 3121TIP3    H230779   4.637   0.907   2.637 -0.3350  3.2511  0.9904
 3122TIP3   OH230780   2.990   5.106  15.502 -0.0127 -0.3371  0.0219
 3122TIP3    H130781   2.977   5.036  15.566 -2.1955 -0.5262 -0.5506
 3122TIP3    H230782   2.910   5.106  15.450  1.7349 -0.3104 -2.8655
 3123TIP3   OH230783   1.357   2.169   5.781  0.2830  0.1650 -0.0386
 3123TIP3    H130784   1.320   2.100   5.836 -3.5278 -1.7768 -4.3466
 3123TIP3    H230785   1.306   2.247   5.802  0.8257  0.2398  1.0585
 3124TIP3   OH230786   3.221   6.263   4.983  0.2383 -0.7597 -0.1032
 3124TIP3    H130787   3.186   6.285   5.069 -0.3619 -3.0682  0.3076
 3124TIP3    H230788   3.308   6.228   5.000  1.4338  1.6280 -0.7994
 3125TIP3   OH230789   5.388   2.014   5.697  0.3319  0.0036 -0.2446
 3125TIP3    H130790   5.353   1.927   5.714 -0.2021  0.1417 -0.6249
 3125TIP3    H230791   5.363   2.065   5.775 -1.4803  0.4425 -1.0607
 3126TIP3   OH230792   6.069   5.352  16.617  0.9956  0.1151  0.1059
 3126TIP3    H130793   5.993   5.332  16.563  1.2363 -1.1750  0.2092
 3126TIP3    H230794   6.033   5.391  16.696  0.1167 -3.1081  1.4394
 3127TIP3   OH230795   5.373   2.846   1.945  0.0062 -0.3482 -0.1436
 3127TIP3    H130796   5.389   2.772   2.004 -0.8633  0.6710  1.4533
 3127TIP3    H230797   5.459   2.881   1.926  0.2711  0.1388  1.7143
 3128TIP3   OH230798   0.265   0.434   2.458 -0.2097 -0.4403  0.0016
 3128TIP3    H130799   0.286   0.364   2.520  1.6349  0.5246  0.5474
 3128TIP3    H230800   0.259   0.513   2.512 -0.6906  0.0827 -0.7951
 3129TIP3   OH230801   2.643   0.455   4.597 -0.3397  0.3256  0.6862
 3129TIP3    H130802   2.698   0.426   4.670 -1.7642 -2.3017  0.8480
 3129TIP3    H230803   2.704   0.471   4.525  0.7979 -0.7221  1.3892
 3130TIP3   OH230804   6.172   3.032  16.173  0.0913  0.8427  0.3528
 3130TIP3    H130805   6.097   2.983  16.140  0.5780  0.1683  0.2087
 3130TIP3    H230806   6.244   3.007  16.114  0.5448  1.0676  0.8015
 3131TIP3   OH230807   0.496   4.187   2.103 -0.0240  0.0665  0.4589
 3131TIP3    H130808   0.476   4.159   2.013  0.4878 -0.8120  0.6058
 3131TIP3    H230809   0.504   4.282   2.098 -1.4972  0.1870 -0.1347
 3132TIP3   OH230810   5.582   3.254  11.470  0.1715 -0.0237  0.5419
 3132TIP3    H130811   5.621   3.300  11.544  1.7752 -0.0497 -0.2439
 3132TIP3    H230812   5.619   3.296  11.393 -0.4893 -0.8249 -0.2430
 3133TIP3   OH230813   4.207   0.778   5.439  0.0602  0.1876  0.3708
 3133TIP3    H130814   4.254   0.721   5.499 -1.5993 -1.2687  0.3968
 3133TIP3    H230815   4.271   0.802   5.372  1.2377 -0.3522  1.2781
 3134TIP3   OH230816   5.287   2.856   3.711  0.6758 -0.3043  0.1355
 3134TIP3    H130817   5.319   2.804   3.785  1.7064  0.0414 -0.0561
 3134TIP3    H230818   5.286   2.795   3.637  1.1806 -0.2452  0.0769
 3135TIP3   OH230819   6.324   1.011  12.583  0.5100 -0.3179 -0.4487
 3135TIP3    H130820   6.271   0.960  12.644 -1.5334  0.0038 -1.8532
 3135TIP3    H230821   6.322   1.100  12.619 -2.2342  0.2711 -1.7960
 3136TIP3   OH230822   4.874   4.564  14.310 -0.5785 -0.1869  0.0467
 3136TIP3    H130823   4.901   4.486  14.261 -1.6123  0.9609 -2.5342
 3136TIP3    H230824   4.956   4.607  14.332 -0.0488 -0.3416 -1.4642
 3137TIP3   OH230825   0.701   0.519  17.056 -0.2164 -0.8979 -0.3813
 3137TIP3    H130826   0.627   0.534  16.997 -0.1449  1.1353 -0.0139
 3137TIP3    H230827   0.744   0.441  17.021 -2.9075 -2.6105 -0.1844
 3138TIP3   OH230828   1.856   1.160   4.556  0.0293  0.3951 -0.4515
 3138TIP3    H130829   1.771   1.191   4.524  0.3116  1.8972  0.1420
 3138TIP3    H230830   1.884   1.095   4.492 -0.2680  1.9621 -2.2553
 3139TIP3   OH230831   2.999   0.842   4.551 -0.4137  0.1859  0.0887
 3139TIP3    H130832   2.951   0.782   4.609 -0.9090 -0.7814 -1.2808
 3139TIP3    H230833   2.982   0.929   4.588 -0.1645 -0.4412  1.7667
 3140TIP3   OH230834   3.985   4.286   0.490  0.5427 -0.2205 -0.1887
 3140TIP3    H130835   4.006   4.369   0.533 -0.6306 -0.3171  0.6510
 3140TIP3    H230836   3.923   4.244   0.550  0.3043 -1.2229 -1.1065
 3141TIP3   OH230837   5.525   1.575   2.409  0.6022  0.2511 -0.0579
 3141TIP3    H130838   5.491   1.664   2.402 -1.7327 -0.5443  0.2523
 3141TIP3    H230839   5.574   1.561   2.329 -1.0400  1.0410 -1.2507
 3142TIP3   OH230840   5.113   2.107  11.327  0.2625 -0.7959  0.8543
 3142TIP3    H130841   5.063   2.133  11.405  0.6852 -1.6128  1.4171
 3142TIP3    H230842   5.048   2.100  11.258  0.1822  2.2474  0.4920
 3143TIP3   OH230843   2.583   0.370  15.129  0.8687  0.1451  0.4573
 3143TIP3    H130844   2.520   0.308  15.164 -0.9421  0.9576 -1.1905
 3143TIP3    H230845   2.576   0.447  15.186 -0.7165  0.7562 -0.4930
 3144TIP3   OH230846   2.595   6.671  10.847  0.0742 -0.3781 -0.6860
 3144TIP3    H130847   2.581   6.675  10.942 -0.1410  1.4099 -0.7541
 3144TIP3    H230848   2.689   6.679  10.837  0.1608 -1.2223 -0.6142
 3145TIP3   OH230849   2.904   1.290  12.283 -0.0881  0.6583  0.3556
 3145TIP3    H130850   2.821   1.292  12.236  0.1608  3.3769 -0.1156
 3145TIP3    H230851   2.948   1.211  12.251 -1.3416  0.6255 -1.4113
 3146TIP3   OH230852   6.326   3.939  10.969 -0.4911  0.4695  0.2320
 3146TIP3    H130853   6.319   3.846  10.945 -0.5397  0.4927  0.1571
 3146TIP3    H230854   6.408   3.968  10.929 -0.7185  0.5837 -0.1570
 3147TIP3   OH230855   2.658   0.783  12.898 -0.4730  0.1214 -0.6316
 3147TIP3    H130856   2.671   0.852  12.833 -0.5489  1.8953  1.1303
 3147TIP3    H230857   2.747   0.759  12.926 -0.3242 -2.1794 -2.8247
 3148TIP3   OH230858   3.516   1.645  11.184  0.0448  0.0985  0.9501
 3148TIP3    H130859   3.575   1.600  11.123 -1.4720 -0.3815 -0.2263
 3148TIP3    H230860   3.516   1.590  11.263 -0.4071 -1.0555  0.1860
 3149TIP3   OH230861   4.130   4.691  14.123 -0.0108  0.7225 -0.0246
 3149TIP3    H130862   4.204   4.717  14.177 -0.1197  0.2724  0.3472
 3149TIP3    H230863   4.055   4.738  14.161 -0.5141 -1.3051  1.6761
 3150TIP3   OH230864   0.270   5.721   4.674  0.1253  0.4242  0.1825
 3150TIP3    H130865   0.226   5.655   4.728 -1.3138  2.1802  1.2385
 3150TIP3    H230866   0.211   5.796   4.674  1.5848  1.6495 -1.2202
 3151TIP3   OH230867   4.399   5.495  12.790 -0.1428  0.6915  0.3124
 3151TIP3    H130868   4.331   5.433  12.816  0.3778 -0.0696 -0.0977
 3151TIP3    H230869   4.387   5.507  12.696  1.5270 -1.0640 -0.1969
 3152TIP3   OH230870   1.098   1.455  16.212  0.2447  0.8009  0.3630
 3152TIP3    H130871   1.127   1.463  16.302 -0.0075 -1.0409  0.6300
 3152TIP3    H230872   1.064   1.366  16.204  0.7945  0.7039 -1.6984
 3153TIP3   OH230873   1.754   2.952  16.634  0.5145  0.5302 -0.3329
 3153TIP3    H130874   1.834   2.982  16.678 -1.2338  1.2117  2.7152
 3153TIP3    H230875   1.723   2.879  16.688 -0.8617  0.2391 -1.4729
 3154TIP3   OH230876   0.538   1.162   2.072 -0.0541 -0.1560 -0.3423
 3154TIP3    H130877   0.622   1.172   2.027  0.4436 -1.6841  0.1710
 3154TIP3    H230878   0.545   1.077   2.117 -2.0734 -0.5809 -0.7213
 3155TIP3   OH230879   3.304   0.823   5.989 -0.3943 -0.2077 -0.4027
 3155TIP3    H130880   3.235   0.867   5.941  2.0374  3.0761 -1.2199
 3155TIP3    H230881   3.292   0.852   6.080 -1.0973 -1.1100 -0.1923
 3156TIP3   OH230882   2.343   5.803  13.783  0.2862 -0.6169 -0.2723
 3156TIP3    H130883   2.438   5.794  13.774  0.2709 -0.4518 -0.6107
 3156TIP3    H230884   2.316   5.726  13.834  0.5645 -0.8124 -0.4170
 3157TIP3   OH230885   3.136   5.475   1.852 -0.1470 -0.4272  0.1641
 3157TIP3    H130886   3.136   5.395   1.905  0.3887 -0.7736 -0.3460
 3157TIP3    H230887   3.126   5.546   1.916 -2.4017 -0.9606  0.4988
 3158TIP3   OH230888   2.713   4.343  14.786  0.3277 -0.1698 -0.3243
 3158TIP3    H130889   2.674   4.348  14.873  0.1313  1.6414 -0.4723
 3158TIP3    H230890   2.788   4.284  14.796  0.2111 -0.1203  1.0208
 3159TIP3   OH230891   1.000   3.194   3.484  0.2208 -0.3306 -0.2877
 3159TIP3    H130892   1.088   3.219   3.456  0.4875 -0.1444  0.6548
 3159TIP3    H230893   0.966   3.273   3.528  0.3159 -0.9696  0.9869
 3160TIP3   OH230894   0.051   5.803  14.471  0.3194 -0.2706  0.5204
 3160TIP3    H130895   0.006   5.750  14.406 -4.0493  2.2472  1.1330
 3160TIP3    H230896   0.076   5.883  14.423  1.3243 -0.3207  0.9375
 3161TIP3   OH230897   3.625   3.508   6.397 -0.1956  0.1897 -0.6971
 3161TIP3    H130898   3.614   3.598   6.428 -0.2162 -0.0207 -0.0735
 3161TIP3    H230899   3.643   3.458   6.476 -1.1608 -0.5195 -0.9057
 3162TIP3   OH230900   3.622   2.131   0.011  0.2102  0.0372  0.3785
 3162TIP3    H130901   3.698   2.086  -0.024  1.0377  1.2892  0.5044
 3162TIP3    H230902   3.637   2.133   0.106 -0.8792 -1.2931  0.6054
 3163TIP3   OH230903   3.408   1.848   0.596  0.2067 -0.2182  0.2935
 3163TIP3    H130904   3.445   1.896   0.521 -0.1887 -1.9291 -1.0542
 3163TIP3    H230905   3.358   1.914   0.644  0.6243  0.9680 -0.8315
 3164TIP3   OH230906   1.976   4.107   4.627  0.1643 -0.1143 -0.0065
 3164TIP3    H130907   1.895   4.092   4.676 -0.8569  0.9722 -1.2927
 3164TIP3    H230908   1.965   4.194   4.589  2.7688  0.8900  1.3315
 3165TIP3   OH230909   5.194   1.115   1.898 -0.1283  0.0637  0.0915
 3165TIP3    H130910   5.253   1.098   1.971 -0.3225  1.5331  0.6384
 3165TIP3    H230911   5.211   1.207   1.876 -0.0480 -0.3519 -1.7517
 3166TIP3   OH230912   6.290   2.648   3.863  0.0269  0.0630 -0.1720
 3166TIP3    H130913   6.197   2.637   3.843 -0.0049  0.1345 -0.0670
 3166TIP3    H230914   6.310   2.737   3.834 -0.0396  0.1951  0.1915
 3167TIP3   OH230915   2.573   6.672  14.350 -0.1643 -0.0708  0.0540
 3167TIP3    H130916   2.590   6.606  14.283 -1.0897  0.5967 -0.8830
 3167TIP3    H230917   2.639   6.656  14.418  1.1097 -0.4690 -1.2349
 3168TIP3   OH230918   2.848   3.832  13.187 -0.0295 -0.2356 -0.6179
 3168TIP3    H130919   2.904   3.845  13.110 -0.1458 -2.0887 -1.0482
 3168TIP3    H230920   2.883   3.753  13.229 -1.9595 -1.1266 -0.5899
 3169TIP3   OH230921   4.869   2.457  14.675  0.1105  0.4822 -0.1916
 3169TIP3    H130922   4.933   2.389  14.696  0.6926  1.3847  1.0702
 3169TIP3    H230923   4.878   2.470  14.581 -0.1761 -1.3359 -0.5030
 3170TIP3   OH230924   5.654   6.109   2.835 -0.2918  0.4153  0.0380
 3170TIP3    H130925   5.625   6.192   2.871  0.5189  0.1067  1.5020
 3170TIP3    H230926   5.663   6.125   2.741 -1.4657  1.5629  0.0948
 3171TIP3   OH230927   6.053   5.297   5.070 -0.6760 -0.1475 -0.7951
 3171TIP3    H130928   5.965   5.332   5.057 -0.3157  0.5668 -1.3555
 3171TIP3    H230929   6.041   5.202   5.066 -1.1840 -0.0468 -2.6895
 3172TIP3   OH230930   1.959   3.244   5.037  0.4794  0.1917  0.2814
 3172TIP3    H130931   1.897   3.315   5.055 -0.8558 -1.1574  1.2230
 3172TIP3    H230932   2.002   3.271   4.956 -1.5977  1.0616 -0.6223
 3173TIP3   OH230933   0.792   0.810  15.920 -0.0520  0.0051  0.0501
 3173TIP3    H130934   0.861   0.868  15.889  1.1377 -0.3125  1.9478
 3173TIP3    H230935   0.785   0.742  15.852  0.7303  0.6383 -0.6840
 3174TIP3   OH230936   5.895   5.827  14.390  0.5834  0.3545  0.0697
 3174TIP3    H130937   5.861   5.914  14.368  1.2715 -0.0428 -2.9559
 3174TIP3    H230938   5.974   5.845  14.441 -0.3750  1.4045  1.2654
 3175TIP3   OH230939   0.761   5.350  14.015 -0.3794  0.3768 -0.3162
 3175TIP3    H130940   0.778   5.256  14.017  0.5710  0.5619  0.6551
 3175TIP3    H230941   0.762   5.378  14.106 -0.0603  1.4371 -0.6227
 3176TIP3   OH230942   0.271   1.218   0.038  0.0531 -0.1515 -0.6674
 3176TIP3    H130943   0.182   1.183   0.047  0.0193 -0.0556 -0.6307
 3176TIP3    H230944   0.271   1.260  -0.048  0.4457 -1.2754 -1.2398
 3177TIP3   OH230945   1.877   5.186   3.292  0.2262 -0.3845 -0.2359
 3177TIP3    H130946   1.804   5.173   3.352  0.3455 -1.7280 -0.3597
 3177TIP3    H230947   1.944   5.124   3.322  0.6686 -0.3577 -1.1432
 3178TIP3   OH230948   3.753   4.515   1.728  0.1112  0.0059 -0.2841
 3178TIP3    H130949   3.788   4.596   1.693 -0.7554 -0.0451 -1.2961
 3178TIP3    H230950   3.824   4.451   1.716  0.3580  0.3327 -0.5671
 3179TIP3   OH230951   2.092   1.801  10.481 -0.1060  0.3350  0.0632
 3179TIP3    H130952   2.153   1.728  10.483 -0.8892 -0.3525 -0.3510
 3179TIP3    H230953   2.147   1.879  10.488  0.6200 -0.3111  2.7124
 3180TIP3   OH230954   4.363   0.982  16.321 -0.6823 -0.3413  0.3027
 3180TIP3    H130955   4.374   1.069  16.359  2.8963 -0.2003 -0.6793
 3180TIP3    H230956   4.277   0.954  16.351 -1.5629  3.0859  1.4936
 3181TIP3   OH230957   0.911   4.647  10.570  0.1647  0.1336 -0.1410
 3181TIP3    H130958   0.955   4.573  10.527 -1.0144 -0.1937 -0.8360
 3181TIP3    H230959   0.975   4.718  10.568  1.1647 -0.7445  0.1673
 3182TIP3   OH230960   2.595   5.750  11.778  0.6535  0.3404 -0.4523
 3182TIP3    H130961   2.567   5.841  11.786  0.3706  0.2535 -0.4282
 3182TIP3    H230962   2.580   5.728  11.686  0.6382  0.2922 -0.4389
 3183TIP3   OH230963   1.833   6.403   3.609  0.3663 -0.0697  0.2417
 3183TIP3    H130964   1.838   6.393   3.514  1.5734  2.2561 -0.0176
 3183TIP3    H230965   1.744   6.434   3.626  0.7454  1.4118 -0.3853
 3184TIP3   OH230966   4.415   6.649   2.247  0.3027  0.1429  0.6149
 3184TIP3    H130967   4.497   6.637   2.199  0.7549  0.6828  1.2405
 3184TIP3    H230968   4.364   6.709   2.193 -0.5804 -1.8056 -0.8418
 3185TIP3   OH230969   4.893   5.081   4.667 -0.5964  0.3970 -0.1467
 3185TIP3    H130970   4.919   5.172   4.681 -1.5318  0.4848  1.2583
 3185TIP3    H230971   4.860   5.079   4.577 -1.2451  1.6340  0.0379
 3186TIP3   OH230972   2.449   6.101   0.205  0.4875 -0.4767 -0.3978
 3186TIP3    H130973   2.356   6.123   0.214 -0.0293 -1.0966 -3.1904
 3186TIP3    H230974   2.492   6.149   0.275 -1.7974  0.7973  0.2423
 3187TIP3   OH230975   6.107   2.610   2.260  0.1422 -0.0158 -0.5532
 3187TIP3    H130976   6.071   2.688   2.303 -0.2342 -0.5597  0.1517
 3187TIP3    H230977   6.201   2.615   2.277  0.1882  0.5279 -0.9282
 3188TIP3   OH230978   1.010   3.190  15.165  0.1550 -0.0860  0.4253
 3188TIP3    H130979   1.096   3.213  15.130  0.7006 -0.3341  1.5433
 3188TIP3    H230980   0.948   3.245  15.118  1.1093  1.3882  0.8422
 3189TIP3   OH230981   3.408   3.885  15.288  0.3612  0.2863  0.4921
 3189TIP3    H130982   3.464   3.921  15.219 -0.1603 -1.9323 -1.1992
 3189TIP3    H230983   3.466   3.828  15.338  0.6706  1.6744  1.7755
 3190TIP3   OH230984   6.074   0.670  17.065 -0.4625  1.0788 -0.1133
 3190TIP3    H130985   6.084   0.585  17.109  0.8518  1.4246  0.3076
 3190TIP3    H230986   5.988   0.701  17.093 -1.3378 -0.4630 -0.9307
 3191TIP3   OH230987   3.427   5.889   4.763  0.0144  0.2529  0.5261
 3191TIP3    H130988   3.490   5.858   4.829  2.4138  0.2319 -1.6409
 3191TIP3    H230989   3.434   5.825   4.692 -0.4989  1.6965 -0.8792
 3192TIP3   OH230990   4.194   2.012  16.645 -0.5380 -0.5090  0.4669
 3192TIP3    H130991   4.153   1.947  16.588 -0.0215 -0.2855 -0.1660
 3192TIP3    H230992   4.257   1.963  16.697  1.4036 -0.2249 -1.5030
 3193TIP3   OH230993   4.506   4.286   6.629 -0.2704 -0.2700  0.0965
 3193TIP3    H130994   4.562   4.244   6.564 -0.7201  0.8418 -1.0635
 3193TIP3    H230995   4.561   4.354   6.667 -0.8688  1.1240 -1.3624
 3194TIP3   OH230996   0.491   1.817  17.104 -0.7772 -0.1134  0.1953
 3194TIP3    H130997   0.513   1.878  17.034  1.1867 -0.1029  0.7659
 3194TIP3    H230998   0.410   1.774  17.075  0.5489 -0.9313 -2.6107
 3195TIP3   OH230999   1.713   6.725   2.264  0.2651  0.2584 -0.5749
 3195TIP3    H131000   1.670   6.800   2.224  0.4009  1.7404  1.8632
 3195TIP3    H231001   1.806   6.736   2.244  0.1124 -0.2011 -1.6050
 3196TIP3   OH231002   1.555   1.896  14.248 -0.0919 -0.0884 -0.8196
 3196TIP3    H131003   1.464   1.872  14.231  0.4740 -2.0844 -1.3019
 3196TIP3    H231004   1.605   1.851  14.180  1.2509  1.2900 -0.8034
 3197TIP3   OH231005   5.081   5.855  15.623  0.0022 -0.3806  0.2344
 3197TIP3    H131006   4.988   5.831  15.631  0.2298 -0.9372  1.5299
 3197TIP3    H231007   5.100   5.903  15.704  0.5080  0.9423 -0.6496
 3198TIP3   OH231008   2.645   4.414   1.166  0.2198  0.0560  0.3388
 3198TIP3    H131009   2.686   4.501   1.164  0.2630  0.0469  0.7593
 3198TIP3    H231010   2.714   4.354   1.138  0.2842  0.1219  0.3556
 3199TIP3   OH231011   4.484   1.554   3.917  0.0257  0.0464 -0.0650
 3199TIP3    H131012   4.545   1.565   3.844 -0.1183 -0.3753 -0.2520
 3199TIP3    H231013   4.421   1.489   3.886 -0.2532  0.1433  0.2964
 3200TIP3   OH231014   4.938   5.291  12.210 -0.5879 -0.1687  0.0117
 3200TIP3    H131015   4.871   5.352  12.179 -0.3660 -0.1621 -0.4642
 3200TIP3    H231016   5.021   5.330  12.181 -0.4433 -0.6872 -0.2895
 3201TIP3   OH231017   5.277   1.639  11.916 -0.3318 -0.4377 -0.3150
 3201TIP3    H131018   5.332   1.587  11.975  0.0167 -0.4688 -0.6633
 3201TIP3    H231019   5.264   1.583  11.840 -2.5734 -1.2567  0.6137
 3202TIP3   OH231020   3.530   0.683   5.671  0.1983  1.3733  0.5021
 3202TIP3    H131021   3.595   0.656   5.605  0.1324  2.4817 -0.0467
 3202TIP3    H231022   3.572   0.664   5.755  0.4888  0.3974  0.1567
 3203TIP3   OH231023   1.539   6.627  13.173  0.5157 -0.0472  0.4224
 3203TIP3    H131024   1.518   6.691  13.105 -1.2098  0.1095  1.0342
 3203TIP3    H231025   1.534   6.677  13.255  1.3255 -0.4978  0.7521
 3204TIP3   OH231026   0.948   6.143  13.447  0.7039 -0.6908 -0.1451
 3204TIP3    H131027   1.041   6.138  13.469  0.1341 -0.2370  2.8471
 3204TIP3    H231028   0.909   6.067  13.490 -0.5113 -0.0149 -0.0046
 3205TIP3   OH231029   3.411   0.767  13.640 -0.2932 -0.0977 -0.1384
 3205TIP3    H131030   3.402   0.820  13.561  1.0066  1.1145  0.4773
 3205TIP3    H231031   3.443   0.828  13.707  1.6801 -1.7109  0.4998
 3206TIP3   OH231032   1.933   2.764   1.474 -0.3396  0.1643 -0.1597
 3206TIP3    H131033   1.914   2.845   1.523  1.0465  0.7949 -0.5960
 3206TIP3    H231034   1.951   2.794   1.385 -1.3375 -0.8143 -0.7176
 3207TIP3   OH231035   2.631   1.984  16.268  0.8045 -0.1657 -0.0185
 3207TIP3    H131036   2.597   2.069  16.239  0.6576 -0.2907 -0.2142
 3207TIP3    H231037   2.674   1.948  16.191  0.6159 -0.3964 -0.0169
 3208TIP3   OH231038   3.289   3.739   4.880 -0.1846 -0.1594 -0.5104
 3208TIP3    H131039   3.365   3.701   4.923 -0.7058 -1.2534 -0.5206
 3208TIP3    H231040   3.283   3.827   4.916  1.2484  0.0551 -0.7319
 3209TIP3   OH231041   2.153   2.488   0.267  0.3285 -0.2742  0.2132
 3209TIP3    H131042   2.191   2.413   0.221  1.0051  0.6807 -0.8185
 3209TIP3    H231043   2.091   2.449   0.329  1.2927 -1.7294  0.3002
 3210TIP3   OH231044   1.374   1.599   0.602 -0.1031 -0.0026 -0.6482
 3210TIP3    H131045   1.337   1.675   0.558  0.4266  0.9422  0.4987
 3210TIP3    H231046   1.463   1.593   0.568 -0.5739 -1.0178 -1.8202
 3211TIP3   OH231047   5.955   5.843   5.116 -0.5730  0.1220  0.5071
 3211TIP3    H131048   5.923   5.921   5.071 -1.5701 -0.2435  0.5688
 3211TIP3    H231049   6.036   5.872   5.159 -0.0384  0.6902 -0.8156
 3212TIP3   OH231050   0.811   0.542  16.215 -0.2461  0.2964 -0.4588
 3212TIP3    H131051   0.893   0.583  16.186 -0.1031 -0.0390 -0.5234
 3212TIP3    H231052   0.833   0.451  16.233 -0.5392  0.2755 -0.1830
 3213TIP3   OH231053   2.575   1.190   0.712 -0.7892 -0.4773  0.4294
 3213TIP3    H131054   2.523   1.180   0.792 -1.4628 -1.1117 -0.0700
 3213TIP3    H231055   2.613   1.103   0.698  0.7867  0.0810  1.0237
 3214TIP3   OH231056   1.438   5.222   6.081  0.1943  0.3582 -0.3348
 3214TIP3    H131057   1.404   5.167   6.152 -0.3843  0.1737 -0.7478
 3214TIP3    H231058   1.527   5.191   6.068  0.2258  0.2324  0.1531
 3215TIP3   OH231059   1.583   3.307  13.331 -0.3336  0.1406 -0.5378
 3215TIP3    H131060   1.543   3.335  13.249  2.2138 -0.4296 -2.0785
 3215TIP3    H231061   1.667   3.353  13.335  0.4341 -1.2583  0.7880
 3216TIP3   OH231062   2.422   3.423   0.958  0.5507  0.2408  0.5044
 3216TIP3    H131063   2.375   3.456   0.881 -1.9826 -0.9713  1.4122
 3216TIP3    H231064   2.477   3.352   0.924 -2.8806 -2.4845  0.0108
 3217TIP3   OH231065   6.344   4.992   1.932 -0.4679  0.0047 -0.4747
 3217TIP3    H131066   6.403   5.031   1.867 -1.1049  0.4084 -0.8227
 3217TIP3    H231067   6.399   4.930   1.979  0.9119  2.1381  0.9055
 3218TIP3   OH231068   6.618   4.677   1.843  0.4990  0.1705 -0.5327
 3218TIP3    H131069   6.530   4.689   1.878  0.1175 -1.8219 -0.7043
 3218TIP3    H231070   6.617   4.721   1.759  0.0741  1.2375  0.0113
 3219TIP3   OH231071   2.280   4.969   2.117  0.4088 -0.1857  0.2584
 3219TIP3    H131072   2.203   4.913   2.131  0.6384 -0.5575  0.0444
 3219TIP3    H231073   2.333   4.922   2.053  0.4980  0.3870 -0.0926
 3220TIP3   OH231074   2.937   0.715  16.059  0.5980 -0.4128 -0.6767
 3220TIP3    H131075   3.026   0.739  16.033  0.3262 -0.6917 -1.9009
 3220TIP3    H231076   2.899   0.675  15.981 -1.4281  1.8633 -0.9716
 3221TIP3   OH231077   0.677   4.830   2.582  0.5037  0.2488 -0.0558
 3221TIP3    H131078   0.700   4.794   2.496  0.9363 -0.7777  0.4735
 3221TIP3    H231079   0.582   4.816   2.588 -0.3267  3.8564 -1.9439
 3222TIP3   OH231080   5.101   4.074   3.143  0.3378  0.2107  0.3615
 3222TIP3    H131081   5.009   4.054   3.159 -0.3164  1.6926 -1.2513
 3222TIP3    H231082   5.135   4.098   3.229 -0.8606 -0.0558  0.9348
 3223TIP3   OH231083   3.507   0.563   4.902  0.3415 -0.2973 -0.1165
 3223TIP3    H131084   3.549   0.514   4.832  0.2449 -1.8136  0.8470
 3223TIP3    H231085   3.535   0.519   4.983 -1.8093 -0.3895  0.6526
 3224TIP3   OH231086   4.494   2.947   3.331  0.3825  0.1655  0.0528
 3224TIP3    H131087   4.466   2.948   3.239 -0.7550  2.3871  0.3517
 3224TIP3    H231088   4.457   3.027   3.368 -1.9924 -2.1983  3.3494
 3225TIP3   OH231089   5.994   3.535  11.848  0.2326 -0.5386  0.4468
 3225TIP3    H131090   5.930   3.514  11.779 -1.3705  0.1827  1.6666
 3225TIP3    H231091   5.945   3.587  11.911  2.6356  2.0868  0.3142
 3226TIP3   OH231092   1.247   1.794   5.523 -0.2127  0.3049 -0.0088
 3226TIP3    H131093   1.334   1.811   5.559  0.1096 -1.3673  0.0532
 3226TIP3    H231094   1.196   1.765   5.598 -0.4915  0.1059 -0.2753
 3227TIP3   OH231095   1.250   3.964   1.916  0.0295  0.4727 -0.4232
 3227TIP3    H131096   1.263   3.922   1.831 -1.6170 -1.9552  0.4255
 3227TIP3    H231097   1.330   3.946   1.965 -0.1645 -0.6825 -0.5008
 3228TIP3   OH231098   2.936   1.270  12.742 -0.7648 -0.1654 -0.2043
 3228TIP3    H131099   2.927   1.175  12.731 -0.6535 -0.1828 -0.1522
 3228TIP3    H231100   2.987   1.280  12.823 -1.8189 -0.0308  0.4596
 3229TIP3   OH231101   1.435   2.163  15.772 -0.0199 -0.5276 -0.1396
 3229TIP3    H131102   1.455   2.256  15.780 -0.9778 -0.2354 -0.8914
 3229TIP3    H231103   1.453   2.141  15.681 -1.0598 -0.7337 -0.3190
 3230TIP3   OH231104   3.632   5.780   3.460  0.3783 -0.0293 -0.3230
 3230TIP3    H131105   3.638   5.829   3.542  2.5712  1.0610 -1.0829
 3230TIP3    H231106   3.719   5.744   3.447  0.1013 -0.0923 -2.2369
 3231TIP3   OH231107   1.621   5.684  14.851 -0.0280 -0.3068  0.0923
 3231TIP3    H131108   1.709   5.657  14.877  0.7053  1.6409 -0.1512
 3231TIP3    H231109   1.625   5.689  14.755  0.2957  1.7284  0.1525
 3232TIP3   OH231110   3.208   3.821  12.566  0.1691  0.3657 -0.1721
 3232TIP3    H131111   3.301   3.841  12.577  0.0894 -0.3928  2.3990
 3232TIP3    H231112   3.163   3.898  12.599 -0.0807 -0.5857  1.8458
 3233TIP3   OH231113   6.143   1.382  11.727  0.3116  0.6926  0.5432
 3233TIP3    H131114   6.218   1.417  11.776  1.0987 -0.3830  0.1360
 3233TIP3    H231115   6.081   1.356  11.795  0.5371  1.0680  0.9034
 3234TIP3   OH231116   5.795   4.554   3.026  0.4355  0.0693 -0.0704
 3234TIP3    H131117   5.788   4.507   3.109 -0.0031 -0.2787 -0.2925
 3234TIP3    H231118   5.889   4.561   3.010  0.5657  1.3392  1.1041
 3235TIP3   OH231119   1.747   1.759   5.284 -0.0239  0.2529 -0.4402
 3235TIP3    H131120   1.750   1.836   5.341 -0.0483  0.5891 -0.8875
 3235TIP3    H231121   1.658   1.725   5.294 -0.2065  0.6429 -0.7068
 3236TIP3   OH231122   4.563   4.891  14.688 -0.0324  0.0955 -0.3195
 3236TIP3    H131123   4.620   4.968  14.694 -0.5724  0.4644  0.2155
 3236TIP3    H231124   4.622   4.819  14.665  0.9142  0.1616  1.7016
 3237TIP3   OH231125   1.393   3.050   4.324 -0.0552 -0.4108  0.0284
 3237TIP3    H131126   1.303   3.048   4.291 -0.1289 -0.6811  0.2362
 3237TIP3    H231127   1.383   3.055   4.419  0.1499 -0.7205  0.0665
 3238TIP3   OH231128   0.805   6.574   1.754  0.0043 -0.7789 -0.2217
 3238TIP3    H131129   0.750   6.635   1.706  0.1644 -0.5122 -0.0650
 3238TIP3    H231130   0.809   6.609   1.843  3.5403  1.3825 -1.0350
 3239TIP3   OH231131   3.787   2.299   4.959 -0.1249  0.3081 -0.1250
 3239TIP3    H131132   3.786   2.306   5.055 -0.9512  2.3135 -0.2352
 3239TIP3    H231133   3.706   2.253   4.937  0.0707 -0.1632  0.1355
 3240TIP3   OH231134   0.924   1.570  10.630  0.2845  0.1730 -0.9170
 3240TIP3    H131135   0.932   1.665  10.639 -0.2748  0.0813  1.3737
 3240TIP3    H231136   0.843   1.557  10.581 -0.8471  0.9244  0.6545
 3241TIP3   OH231137   4.578   2.792   0.199 -0.0634  0.0304  0.0206
 3241TIP3    H131138   4.654   2.744   0.231 -0.7764 -0.4299  1.1032
 3241TIP3    H231139   4.577   2.776   0.105 -0.0161 -1.7263  0.2802
 3242TIP3   OH231140   6.121   0.555  15.447 -0.1348 -0.0416 -0.4954
 3242TIP3    H131141   6.151   0.646  15.441  0.3209 -0.1455  0.1017
 3242TIP3    H231142   6.194   0.508  15.485 -1.4896 -0.0547  2.3566
 3243TIP3   OH231143   5.690   0.261  15.625  0.2462 -0.0790 -0.3548
 3243TIP3    H131144   5.621   0.207  15.663 -2.0093  2.0561 -1.2220
 3243TIP3    H231145   5.752   0.274  15.697 -1.0671 -0.7252  0.9385
 3244TIP3   OH231146   4.123   0.324   3.012 -0.1665  0.2178  0.1588
 3244TIP3    H131147   4.056   0.371   3.061  0.2267  1.0359 -0.0610
 3244TIP3    H231148   4.191   0.306   3.076 -0.5962 -0.6334  0.3870
 3245TIP3   OH231149   4.369   5.396  14.478  0.2253 -0.0503 -0.2331
 3245TIP3    H131150   4.307   5.469  14.479 -0.5426 -0.6647  1.9047
 3245TIP3    H231151   4.322   5.326  14.432  0.6115  0.4874 -1.4731
 3246TIP3   OH231152   0.606   5.219  13.289  0.2684  0.5044  0.2417
 3246TIP3    H131153   0.689   5.264  13.305  0.6061 -0.5702  1.8350
 3246TIP3    H231154   0.597   5.218  13.194  2.3333  0.2194 -0.0001
 3247TIP3   OH231155   6.683   0.576  16.573 -0.1146 -0.0126  0.4974
 3247TIP3    H131156   6.617   0.507  16.564  0.5562 -0.5385 -0.6615
 3247TIP3    H231157   6.748   0.538  16.633  0.0332 -0.2236  0.2071
 3248TIP3   OH231158   4.185   0.522   0.617  0.4408  0.4053 -0.0002
 3248TIP3    H131159   4.242   0.594   0.591 -1.6580  1.2198 -2.9476
 3248TIP3    H231160   4.170   0.473   0.537 -0.4692 -1.6607  1.3458
 3249TIP3   OH231161   1.062   2.269  16.048  0.5828  0.6855  0.5701
 3249TIP3    H131162   1.053   2.174  16.055  1.6497  0.4815 -0.6454
 3249TIP3    H231163   0.973   2.302  16.062  0.0560 -0.5374  0.2242
 3250TIP3   OH231164   1.085   2.648   5.601 -0.0185 -0.0612  0.0447
 3250TIP3    H131165   1.074   2.564   5.645  1.1263  0.0792  0.6302
 3250TIP3    H231166   1.135   2.626   5.522  0.1559  0.0559  0.1241
 3251TIP3   OH231167   6.082   1.856   3.620 -1.2180  0.0199  0.0289
 3251TIP3    H131168   6.146   1.785   3.625 -0.1337  1.0511  2.2511
 3251TIP3    H231169   6.088   1.888   3.530  2.4501  0.9421  0.4611
 3252TIP3   OH231170   3.822   2.046  13.046  0.3550  0.3027 -0.1609
 3252TIP3    H131171   3.893   1.982  13.047  0.8395  0.8351  0.4560
 3252TIP3    H231172   3.857   2.121  12.998  0.4463  0.8106  0.6654
 3253TIP3   OH231173   1.919   4.656  13.316 -0.0168  0.5817  0.3934
 3253TIP3    H131174   1.896   4.667  13.408 -1.4934 -1.2241  0.2934
 3253TIP3    H231175   1.984   4.587  13.315 -3.4101 -2.9507 -0.1136
 3254TIP3   OH231176   6.539   0.023   3.393  0.0175  0.3462 -0.2247
 3254TIP3    H131177   6.562  -0.026   3.314 -1.1262 -1.7194  0.6473
 3254TIP3    H231178   6.455   0.064   3.372 -3.0625 -4.3596  1.3566
 3255TIP3   OH231179   6.213   2.506   4.979 -0.0136 -0.2479  0.4891
 3255TIP3    H131180   6.204   2.524   4.885  0.3658 -0.5796  0.3840
 3255TIP3    H231181   6.303   2.477   4.989  0.3651  1.0841  1.1792
 3256TIP3   OH231182   6.164   1.789  16.330  0.0317 -0.1871 -0.3232
 3256TIP3    H131183   6.202   1.865  16.373  3.4440 -0.5491 -2.3720
 3256TIP3    H231184   6.223   1.717  16.352 -1.5028 -1.6446 -0.8034
 3257TIP3   OH231185   2.709   1.004  11.342  0.1648 -0.3936  0.2577
 3257TIP3    H131186   2.678   0.977  11.429  0.1510  1.3662  0.8296
 3257TIP3    H231187   2.631   0.998  11.287 -0.5373  1.2037  1.0291
 3258TIP3   OH231188   5.745   6.161  16.371  0.1682 -0.7733  0.3029
 3258TIP3    H131189   5.782   6.207  16.296 -1.9471 -0.8266 -0.8665
 3258TIP3    H231190   5.799   6.188  16.445  2.0708 -0.3893 -1.1590
 3259TIP3   OH231191   1.802   2.446   5.754 -0.0272  0.3494  0.2873
 3259TIP3    H131192   1.757   2.367   5.725  0.9902 -0.5257  1.0340
 3259TIP3    H231193   1.746   2.481   5.823  0.3300 -0.6240  1.0804
 3260TIP3   OH231194   2.254   3.965   5.086 -0.2174  0.5463  0.4293
 3260TIP3    H131195   2.267   3.970   4.991 -0.6105  1.2174  0.4089
 3260TIP3    H231196   2.161   3.979   5.098 -0.3770 -0.7670  0.8340
 3261TIP3   OH231197   3.405   5.101  13.181  0.0994 -0.1177  0.1302
 3261TIP3    H131198   3.394   5.184  13.135 -0.8330 -0.9654 -1.2480
 3261TIP3    H231199   3.327   5.093  13.235  0.2816 -0.0132  0.4106
 3262TIP3   OH231200   1.006   4.066  10.707 -0.1592  0.3302 -0.0026
 3262TIP3    H131201   1.014   4.004  10.780 -0.2253  0.0928 -0.1938
 3262TIP3    H231202   0.939   4.128  10.735  0.8046  1.0739  0.7203
 3263TIP3   OH231203   0.111   1.709  11.877 -0.0466 -0.1818  0.9533
 3263TIP3    H131204   0.142   1.633  11.927  0.0731 -0.3481  0.6327
 3263TIP3    H231205   0.143   1.693  11.788  0.8603  0.7463  1.0845
 3264TIP3   OH231206   4.205   0.169  12.730  0.5717 -0.1608 -0.0542
 3264TIP3    H131207   4.129   0.148  12.675  1.2403  3.0045 -2.5206
 3264TIP3    H231208   4.170   0.225  12.799  0.4073 -0.1592 -0.1371
 3265TIP3   OH231209   5.413   4.877   4.025 -0.2884  0.7374  0.2850
 3265TIP3    H131210   5.455   4.895   4.109  2.1097 -0.3915 -0.5995
 3265TIP3    H231211   5.455   4.797   3.993 -2.0533  0.4169 -1.4186
 3266TIP3   OH231212   3.096   3.497  11.194 -0.3684  0.1832 -0.0820
 3266TIP3    H131213   3.097   3.593  11.192 -2.2108  0.2814  1.1394
 3266TIP3    H231214   3.011   3.474  11.159 -0.4878 -0.9517  0.9285
 3267TIP3   OH231215   6.531   6.277  12.893  0.7732 -0.4231  0.4100
 3267TIP3    H131216   6.521   6.232  12.977  0.6122 -0.4028  0.4013
 3267TIP3    H231217   6.611   6.240  12.856 -0.1429 -1.7992 -0.2774
 3268TIP3   OH231218   0.833   2.135   6.060  0.3532 -0.2145  0.1520
 3268TIP3    H131219   0.879   2.152   6.142 -0.4569 -0.0814  0.5904
 3268TIP3    H231220   0.791   2.050   6.073  2.3275 -1.4681 -1.1020
 3269TIP3   OH231221   4.159   2.164  14.460 -0.3621  0.2252  0.2530
 3269TIP3    H131222   4.137   2.130  14.373  2.0972 -2.0431  0.3683
 3269TIP3    H231223   4.076   2.166  14.507 -1.4929 -0.0908 -1.6163
 3270TIP3   OH231224   4.760   4.057  11.765 -0.5410  0.3630  0.2063
 3270TIP3    H131225   4.685   4.015  11.723 -0.5070  1.0392 -0.5417
 3270TIP3    H231226   4.794   3.990  11.825 -0.3748 -0.7792 -1.1008
 3271TIP3   OH231227   3.037   2.110  15.802  0.7767  0.3663  0.1119
 3271TIP3    H131228   3.023   2.141  15.713 -0.7037 -2.4945 -0.7937
 3271TIP3    H231229   2.964   2.146  15.852 -0.4707 -0.8676 -0.7316
 3272TIP3   OH231230   5.922   1.325  14.149 -0.6265 -0.0546  0.0682
 3272TIP3    H131231   5.842   1.306  14.099  0.4947 -1.1546 -1.3866
 3272TIP3    H231232   5.916   1.268  14.225 -0.4620 -1.4314 -0.9056
 3273TIP3   OH231233   1.292   2.904   1.349 -0.0457 -0.3351  0.1117
 3273TIP3    H131234   1.286   2.810   1.331 -0.3431 -0.5479  1.2330
 3273TIP3    H231235   1.225   2.920   1.417 -0.8129  0.9108 -0.8934
 3274TIP3   OH231236   4.370   3.124   2.498  0.4757 -0.1330  0.2086
 3274TIP3    H131237   4.399   3.182   2.427  1.4734 -0.7385  0.1121
 3274TIP3    H231238   4.412   3.159   2.576  0.8113 -0.5298  0.2050
 3275TIP3   OH231239   6.326   4.989  14.242  0.2950  0.3295 -0.3510
 3275TIP3    H131240   6.235   4.966  14.221  1.4531 -4.1039 -1.5351
 3275TIP3    H231241   6.330   4.989  14.337 -0.9249  0.5062 -0.2905
 3276TIP3   OH231242   0.539   2.573   4.987 -0.7420  0.1419 -0.0643
 3276TIP3    H131243   0.483   2.555   4.911 -1.4776  0.4767  0.3881
 3276TIP3    H231244   0.565   2.486   5.018 -0.1192  0.0080 -0.9157
 3277TIP3   OH231245   5.796   6.058   3.075 -0.0640  0.3672 -0.2136
 3277TIP3    H131246   5.730   6.115   3.035 -0.0369  2.0076  1.9330
 3277TIP3    H231247   5.749   5.976   3.092 -1.0764  0.9082 -0.2955
 3278TIP3   OH231248   0.800   2.460  11.608  0.1175 -0.3166  0.3887
 3278TIP3    H131249   0.738   2.520  11.566 -1.3034 -0.9248  1.5292
 3278TIP3    H231250   0.745   2.390  11.643  1.6976 -2.2557 -0.7812
 3279TIP3   OH231251   6.081   2.376   0.320 -0.3356 -0.9789 -0.4498
 3279TIP3    H131252   5.994   2.370   0.359  0.1563 -0.0537  0.8785
 3279TIP3    H231253   6.139   2.334   0.384  0.8204  2.6095  1.1344
 3280TIP3   OH231254   2.161   2.324   3.757 -0.6633  0.1874 -0.2004
 3280TIP3    H131255   2.169   2.258   3.688 -0.1492  0.1553 -0.1095
 3280TIP3    H231256   2.092   2.382   3.725  1.1810  1.5840 -1.9324
 3281TIP3   OH231257   6.633   1.196  16.658  0.4537 -0.0818  0.0435
 3281TIP3    H131258   6.553   1.147  16.642 -1.2343  2.4298  0.1557
 3281TIP3    H231259   6.684   1.188  16.577 -0.6528 -0.4173 -0.6308
 3282TIP3   OH231260   0.310   0.841  13.592  0.2771 -0.0400 -0.5977
 3282TIP3    H131261   0.370   0.906  13.629 -0.0217  0.3911 -0.8638
 3282TIP3    H231262   0.245   0.892  13.544 -0.9277 -0.4229  0.5630
 3283TIP3   OH231263   6.599   0.312   0.127  0.0434  0.3889  0.3817
 3283TIP3    H131264   6.510   0.275   0.124  0.8079 -2.1179  3.3579
 3283TIP3    H231265   6.649   0.259   0.064 -0.5574  2.1251 -1.6671
 3284TIP3   OH231266   1.437   4.485   4.217 -0.2947  0.4748 -0.4592
 3284TIP3    H131267   1.458   4.522   4.132  0.5855  1.3818  0.1359
 3284TIP3    H231268   1.522   4.469   4.258 -0.7025 -0.3103  0.1046
 3285TIP3   OH231269   1.358   6.216   3.202  0.1606  0.2344 -0.3129
 3285TIP3    H131270   1.380   6.223   3.295 -0.4040  1.9670 -0.2851
 3285TIP3    H231271   1.333   6.125   3.190  1.9360 -0.4621  0.8407
 3286TIP3   OH231272   3.172   5.466  16.849  0.5419 -0.4114  0.0593
 3286TIP3    H131273   3.261   5.443  16.874  0.8267  0.1093 -0.4361
 3286TIP3    H231274   3.118   5.442  16.924  1.1651 -0.2902  0.5512
 3287TIP3   OH231275   5.310   5.433   0.977 -0.1673 -0.1196 -0.8377
 3287TIP3    H131276   5.380   5.457   0.916  0.3492  2.0537  0.4815
 3287TIP3    H231277   5.355   5.404   1.056 -0.6382  2.0475  0.3135
 3288TIP3   OH231278   6.690   4.934   4.180 -0.2316  0.3631 -0.4142
 3288TIP3    H131279   6.784   4.943   4.197  0.1260 -0.9221 -1.5553
 3288TIP3    H231280   6.657   4.884   4.254  0.0521  0.5033 -0.1902
 3289TIP3   OH231281   3.191   5.891   0.367 -0.2631 -0.2285  0.0164
 3289TIP3    H131282   3.129   5.819   0.354 -0.6583  0.2069 -0.5342
 3289TIP3    H231283   3.181   5.914   0.460 -0.7980 -0.2764 -0.0258
 3290TIP3   OH231284   2.592   1.825   0.212  0.0758 -0.0923 -0.1157
 3290TIP3    H131285   2.660   1.866   0.265  1.5026 -1.9928 -0.3141
 3290TIP3    H231286   2.551   1.761   0.270 -1.1404  0.6190 -0.1796
 3291TIP3   OH231287   6.813   5.047   4.688 -0.0009 -0.3116 -0.2579
 3291TIP3    H131288   6.735   4.992   4.677  0.1688 -0.6693  0.2875
 3291TIP3    H231289   6.791   5.107   4.759  1.0118 -1.9183  1.4992
 3292TIP3   OH231290   5.630   6.529   3.815 -0.0337 -0.2659 -0.2415
 3292TIP3    H131291   5.543   6.497   3.841  0.0054  1.9782  3.2791
 3292TIP3    H231292   5.691   6.477   3.868  0.7437 -1.0394 -1.8464
 3293TIP3   OH231293   2.142   0.808  15.129 -0.4525  0.0244  0.7408
 3293TIP3    H131294   2.230   0.783  15.157  0.8530  0.4237 -2.5838
 3293TIP3    H231295   2.098   0.725  15.109  0.3366 -0.0769 -0.6555
 3294TIP3   OH231296   5.163   6.737  11.736 -0.4033 -0.3028  0.0917
 3294TIP3    H131297   5.258   6.745  11.728 -0.2118 -1.8217  0.5054
 3294TIP3    H231298   5.138   6.672  11.670 -1.2170  0.3356 -0.2549
 3295TIP3   OH231299   1.531   0.603   2.283  0.1684 -0.4621 -0.3959
 3295TIP3    H131300   1.500   0.520   2.249 -0.1971 -0.0221 -1.1602
 3295TIP3    H231301   1.456   0.662   2.277 -0.2773 -0.6379  2.2438
 3296TIP3   OH231302   2.463   3.562   4.946 -0.0188 -0.0259  0.0423
 3296TIP3    H131303   2.397   3.627   4.969  1.3513  1.3438  0.2409
 3296TIP3    H231304   2.491   3.585   4.857 -1.1767 -1.8004 -0.8332
 3297TIP3   OH231305   4.064   2.837  15.927  0.2972  0.1631  0.1706
 3297TIP3    H131306   4.039   2.866  16.014 -0.6318 -4.1996  1.6181
 3297TIP3    H231307   3.983   2.839  15.876  0.3449  0.5842  0.1132
 3298TIP3   OH231308   6.782   6.521   0.315  0.2133 -0.9862 -0.4720
 3298TIP3    H131309   6.866   6.553   0.349 -0.0573 -0.9968  0.2211
 3298TIP3    H231310   6.748   6.465   0.385 -1.1964  0.4080  0.0217
 3299TIP3   OH231311   5.240   3.596   0.945 -0.6654 -0.1804 -0.0089
 3299TIP3    H131312   5.266   3.676   0.900  0.3737 -1.0488 -0.9953
 3299TIP3    H231313   5.257   3.614   1.037 -1.7546  1.2106 -0.0366
 3300TIP3   OH231314   4.960   6.298   2.225 -0.0005  0.0769 -0.7749
 3300TIP3    H131315   4.874   6.338   2.214 -0.2884 -0.4015 -0.3565
 3300TIP3    H231316   4.998   6.341   2.302 -1.9663 -3.0645  2.2749
 3301TIP3   OH231317   2.112   3.278  12.705  0.1121  0.1027 -0.2376
 3301TIP3    H131318   2.156   3.199  12.736  1.9364  1.1397 -0.0344
 3301TIP3    H231319   2.128   3.343  12.773 -2.4030  0.3777  0.1798
 3302TIP3   OH231320   5.667   5.029   4.398  0.2167  0.5667  0.6356
 3302TIP3    H131321   5.583   5.046   4.356 -0.6024  1.1293  2.3940
 3302TIP3    H231322   5.732   5.049   4.330 -1.0484 -0.8418 -1.0747
 3303TIP3   OH231323   5.436   2.077  10.323 -0.4068 -0.3760 -0.1867
 3303TIP3    H131324   5.468   1.992  10.292  1.9982  0.5292 -0.3803
 3303TIP3    H231325   5.341   2.068  10.325 -0.2215 -3.0075 -0.3580
 3304TIP3   OH231326   0.430   4.476   0.285 -0.0532  0.3769  0.1081
 3304TIP3    H131327   0.402   4.477   0.376  0.8578 -0.4540  0.4155
 3304TIP3    H231328   0.519   4.512   0.287  0.5600 -1.0506 -0.2169
 3305TIP3   OH231329   6.355   5.752   2.605 -0.3790 -0.9959 -0.3156
 3305TIP3    H131330   6.346   5.680   2.667 -0.4759 -0.8574 -0.1680
 3305TIP3    H231331   6.287   5.736   2.539 -1.9926  0.2230  0.9694
 3306TIP3   OH231332   5.568   6.763  10.090 -0.6894 -0.0130  0.1942
 3306TIP3    H131333   5.628   6.689  10.100  0.5573  1.0012  0.4508
 3306TIP3    H231334   5.482   6.722  10.077 -0.2653 -1.5135  1.6480
 3307TIP3   OH231335   5.963   3.728   1.103  0.2133  0.0375  0.2859
 3307TIP3    H131336   5.952   3.823   1.098  2.2490  0.4062  1.5329
 3307TIP3    H231337   5.916   3.703   1.182 -0.0710  0.0590  0.1232
 3308TIP3   OH231338   3.507   0.960   1.739  0.2828 -0.2274  0.5765
 3308TIP3    H131339   3.442   1.011   1.786 -1.0591 -2.1310  0.8889
 3308TIP3    H231340   3.568   1.025   1.703  0.3816  1.3979  3.4324
 3309TIP3   OH231341   6.644   2.082   0.777 -0.4624 -0.2763 -0.1915
 3309TIP3    H131342   6.618   2.095   0.686 -2.9775 -1.1973  0.3377
 3309TIP3    H231343   6.610   2.159   0.822 -0.5138 -0.5271  0.1992
 3310TIP3   OH231344   3.556   4.875  13.174 -0.2619  0.5488  0.3293
 3310TIP3    H131345   3.513   4.961  13.177  1.9308  1.6807  2.0106
 3310TIP3    H231346   3.532   4.834  13.257  1.5183  1.0536  1.1311
 3311TIP3   OH231347   1.624   5.846   0.222  0.0682 -0.0312 -0.5170
 3311TIP3    H131348   1.650   5.935   0.246 -1.5735  0.4664 -0.4534
 3311TIP3    H231349   1.575   5.814   0.298 -0.8430 -0.3267 -1.2096
 3312TIP3   OH231350   2.057   4.279   4.025 -0.2080  0.2514 -0.7587
 3312TIP3    H131351   2.024   4.195   3.993 -0.7859  0.6496 -1.2173
 3312TIP3    H231352   2.066   4.267   4.120  0.7826 -0.6853 -0.9540
 3313TIP3   OH231353   1.279   3.600  13.233 -0.3326  0.1441 -0.0592
 3313TIP3    H131354   1.367   3.631  13.213  0.0007 -1.0754 -0.5331
 3313TIP3    H231355   1.283   3.572  13.324 -0.6616  1.4911  0.4062
 3314TIP3   OH231356   4.546   0.365   4.274 -0.0801  0.1135 -1.0663
 3314TIP3    H131357   4.611   0.390   4.208  0.4246  1.8253  0.0270
 3314TIP3    H231358   4.465   0.406   4.244 -0.5174 -1.3229 -1.9791
 3315TIP3   OH231359   2.062   6.269  15.808  0.3455  0.1166 -0.5359
 3315TIP3    H131360   2.035   6.266  15.900 -1.4381 -0.1908 -1.0529
 3315TIP3    H231361   1.985   6.244  15.758  1.2385  0.4149 -2.1549
 3316TIP3   OH231362   2.368   2.715   2.495 -0.1915 -0.2896 -0.0905
 3316TIP3    H131363   2.389   2.661   2.571  0.8537  1.7683  1.1690
 3316TIP3    H231364   2.431   2.787   2.498 -1.4977  1.0064 -1.7059
 3317TIP3   OH231365   5.170   4.542   2.521 -0.1876 -0.1532 -0.2606
 3317TIP3    H131366   5.190   4.449   2.510  0.6939  0.1078 -1.0738
 3317TIP3    H231367   5.095   4.544   2.579  0.4795 -1.3281  0.6893
 3318TIP3   OH231368   5.641   3.105  16.641 -0.0144  0.3690  0.3083
 3318TIP3    H131369   5.632   3.198  16.617  1.2024  0.8408  1.5591
 3318TIP3    H231370   5.591   3.097  16.722 -0.1552 -0.0802  0.1761
 3319TIP3   OH231371   3.128   4.072   1.247 -0.0284  0.1246  0.3371
 3319TIP3    H131372   3.212   4.072   1.293  0.8175  1.5120 -1.1079
 3319TIP3    H231373   3.093   3.984   1.260  1.4122 -0.3258  1.3628
 3320TIP3   OH231374   1.417   6.105   4.668 -0.1080 -0.3145  0.4862
 3320TIP3    H131375   1.388   6.181   4.719 -1.1677 -0.1632 -0.3104
 3320TIP3    H231376   1.349   6.039   4.683 -1.6281  0.4441 -2.3711
 3321TIP3   OH231377   0.813   1.883   2.525 -0.0087 -0.0083  0.1923
 3321TIP3    H131378   0.852   1.868   2.612 -0.6197  1.4396  0.7355
 3321TIP3    H231379   0.721   1.862   2.536 -0.8243  3.3422  0.8725
 3322TIP3   OH231380   4.139   5.893   2.556 -0.0909  0.3966 -0.5519
 3322TIP3    H131381   4.080   5.852   2.619  1.0214  2.3320  1.9213
 3322TIP3    H231382   4.192   5.821   2.522 -1.5163 -0.8648 -0.2070
 3323TIP3   OH231383   5.198   6.482  15.602 -0.2954  0.2049 -0.1849
 3323TIP3    H131384   5.202   6.538  15.681 -0.0003  1.0823 -0.7997
 3323TIP3    H231385   5.200   6.544  15.529 -1.4485 -0.5556 -0.8867
 3324TIP3   OH231386   0.280   1.331   1.194 -0.0265 -0.2923 -0.2023
 3324TIP3    H131387   0.284   1.282   1.112 -1.8954  0.5705 -0.8853
 3324TIP3    H231388   0.214   1.285   1.246 -0.5156  0.4481 -0.1422
 3325TIP3   OH231389   6.721   3.932  14.784 -0.0084  0.2947  0.2508
 3325TIP3    H131390   6.782   4.002  14.804 -2.3929  2.2924  0.9438
 3325TIP3    H231391   6.717   3.930  14.688  0.8532  0.3320  0.2037
 3326TIP3   OH231392   3.042   6.661  11.624 -0.3819 -0.2285 -0.3158
 3326TIP3    H131393   2.989   6.741  11.625 -1.2495 -0.7737 -1.1926
 3326TIP3    H231394   3.064   6.646  11.532 -0.5241 -1.1799 -0.2120
 3327TIP3   OH231395   4.872   2.937   0.133  0.1828  0.2384  0.1438
 3327TIP3    H131396   4.892   2.870   0.199  0.2289  0.1481  0.0394
 3327TIP3    H231397   4.783   2.917   0.104  0.2951  0.0561 -0.0826
 3328TIP3   OH231398   1.962   5.773   2.960  0.1232 -0.5392  0.2265
 3328TIP3    H131399   1.929   5.832   3.027  1.1410  1.4505 -0.8990
 3328TIP3    H231400   1.974   5.830   2.883  6.5531 -0.6735  0.5950
 3329TIP3   OH231401   3.803   1.020  14.174 -0.2499  0.0464  0.6556
 3329TIP3    H131402   3.804   1.096  14.233 -0.8347  1.1551 -0.6986
 3329TIP3    H231403   3.726   1.034  14.119 -0.5283 -1.7036  0.5614
 3330TIP3   OH231404   4.193   5.711   1.105  0.7826  0.0702 -0.5334
 3330TIP3    H131405   4.284   5.699   1.079  1.5673 -1.3939  2.4650
 3330TIP3    H231406   4.174   5.636   1.161 -2.2068  0.5055 -0.8104
 3331TIP3   OH231407   4.809   6.510  14.149  0.0801 -0.0330  0.1701
 3331TIP3    H131408   4.860   6.552  14.080 -1.8340  0.1736 -1.2150
 3331TIP3    H231409   4.829   6.417  14.139 -0.9789 -0.1393 -1.4550
 3332TIP3   OH231410   1.884   2.899  12.971 -0.3837 -0.3473  0.2507
 3332TIP3    H131411   1.924   2.833  12.914  0.6173  0.8657 -0.4852
 3332TIP3    H231412   1.891   2.981  12.923 -2.7599  0.1421  0.5903
 3333TIP3   OH231413   3.086   0.807   0.881 -0.1829 -0.2822  0.5485
 3333TIP3    H131414   3.127   0.720   0.874  3.0444  1.1428 -0.2744
 3333TIP3    H231415   3.092   0.828   0.974  1.2909 -0.0079  0.4136
 3334TIP3   OH231416   6.129   0.487  14.980 -0.0319  0.3890 -0.0315
 3334TIP3    H131417   6.064   0.556  14.992 -0.0077  0.5937 -1.0109
 3334TIP3    H231418   6.121   0.433  15.059 -1.8899 -0.0018 -0.4181
 3335TIP3   OH231419   3.961   3.619  16.347  0.6752 -0.0460 -0.1553
 3335TIP3    H131420   3.926   3.533  16.368 -0.8456  0.2821 -1.1989
 3335TIP3    H231421   3.968   3.621  16.252 -1.3657  1.6700 -0.3577
 3336TIP3   OH231422   2.324   2.928   4.887  0.5614 -0.0975  0.6591
 3336TIP3    H131423   2.319   2.836   4.913  1.2140 -0.1398  0.6551
 3336TIP3    H231424   2.326   2.927   4.792  4.6183 -0.3850  0.5786
 3337TIP3   OH231425   0.695   2.446  12.377  0.6112 -0.2729  0.1473
 3337TIP3    H131426   0.733   2.497  12.305  2.8377 -2.8467 -0.7035
 3337TIP3    H231427   0.771   2.412  12.425 -0.7879 -0.8760  2.0481
 3338TIP3   OH231428   3.221   6.624   3.687  0.1253 -0.6055 -0.2191
 3338TIP3    H131429   3.186   6.604   3.774  0.2193 -3.2826 -0.7091
 3338TIP3    H231430   3.180   6.707   3.663  0.5202  0.4767  2.5760
 3339TIP3   OH231431   2.776   2.776   0.003 -0.6325 -0.3514  0.8769
 3339TIP3    H131432   2.824   2.824   0.071 -0.4544 -0.2964  0.7103
 3339TIP3    H231433   2.814   2.806  -0.079 -1.8417  0.7026  0.6671
 3340TIP3   OH231434   0.609   2.716   5.775 -0.3622 -0.2501 -1.2196
 3340TIP3    H131435   0.646   2.762   5.850  0.6155 -2.2996 -0.3782
 3340TIP3    H231436   0.557   2.782   5.730  0.3705  1.4604  0.3247
 3341TIP3   OH231437   2.395   3.066  15.936  0.1037 -0.1477  0.0647
 3341TIP3    H131438   2.459   3.131  15.966  0.0900 -0.1954  0.1994
 3341TIP3    H231439   2.416   3.052  15.844 -0.0094  0.1838 -0.0118
 3342TIP3   OH231440   3.408   2.469   1.393  0.0774  0.3429  0.4209
 3342TIP3    H131441   3.419   2.408   1.320 -0.3416  0.4943  0.2274
 3342TIP3    H231442   3.475   2.444   1.456  0.0410 -0.1857  0.2529
 3343TIP3   OH231443   0.602   4.890  11.860  0.3969 -0.3637 -0.1227
 3343TIP3    H131444   0.606   4.803  11.821  0.4223  0.1736 -1.3540
 3343TIP3    H231445   0.612   4.874  11.954  2.4538 -1.5221 -0.4673
 3344TIP3   OH231446   4.531   1.960  13.914  0.3322  0.2645  0.1917
 3344TIP3    H131447   4.534   1.865  13.927  0.6503  0.3949  1.1497
 3344TIP3    H231448   4.463   1.991  13.974  1.3487  0.8126  1.1066
 3345TIP3   OH231449   3.549   5.036  14.058  0.0345  0.1365  0.0292
 3345TIP3    H131450   3.513   5.115  14.097  0.1556 -0.1628  0.7517
 3345TIP3    H231451   3.545   4.970  14.127 -0.5931 -0.6543 -0.7354
 3346TIP3   OH231452   6.781   1.449   5.728 -0.2483  0.6486 -1.0907
 3346TIP3    H131453   6.841   1.379   5.753  1.1648  2.6753  1.7014
 3346TIP3    H231454   6.831   1.501   5.665  0.7285  1.8940  0.6425
 3347TIP3   OH231455   5.587   5.463  10.889  0.7180 -0.1814 -0.2588
 3347TIP3    H131456   5.507   5.422  10.855  0.6120 -0.5189  0.3649
 3347TIP3    H231457   5.650   5.457  10.817  0.0015  0.6524 -0.9799
 3348TIP3   OH231458   1.503   3.666   2.103 -0.0535 -0.1814 -0.1529
 3348TIP3    H131459   1.416   3.698   2.125 -0.9454 -0.9231 -2.3118
 3348TIP3    H231460   1.497   3.642   2.010  2.0319 -1.5998  0.0062
 3349TIP3   OH231461   2.348   3.555   4.500  0.0907 -0.2748 -0.0717
 3349TIP3    H131462   2.261   3.590   4.479 -0.1631 -1.9316 -2.1830
 3349TIP3    H231463   2.339   3.460   4.488  1.7099 -0.6984  1.6460
 3350TIP3   OH231464   0.316   1.969  13.038  0.7365  0.5445 -0.3272
 3350TIP3    H131465   0.284   2.033  13.101 -0.7554  0.1600 -0.6643
 3350TIP3    H231466   0.349   2.021  12.965 -0.8569  0.9526 -0.7893
 3351TIP3   OH231467   5.026   0.827   2.079  0.2478  0.7435  0.0003
 3351TIP3    H131468   4.946   0.854   2.034  0.9740 -0.9476 -2.4532
 3351TIP3    H231469   4.998   0.756   2.136 -0.1590  0.8312 -0.0837
 3352TIP3   OH231470   3.581   2.790  16.629 -0.3091  0.2963  0.4087
 3352TIP3    H131471   3.518   2.802  16.699 -0.7645 -1.6409  0.4043
 3352TIP3    H231472   3.666   2.795  16.672 -0.4999  1.2690  0.6978
 3353TIP3   OH231473   1.531   4.952  16.719 -0.5879 -0.3871  0.2050
 3353TIP3    H131474   1.578   4.966  16.802  0.8405 -1.9614 -0.2868
 3353TIP3    H231475   1.439   4.949  16.744 -0.3555  1.1993  1.4302
 3354TIP3   OH231476   6.052   3.106  16.754 -0.1284  0.0256  0.2812
 3354TIP3    H131477   6.059   3.092  16.660 -1.0571  2.4339 -0.2064
 3354TIP3    H231478   5.967   3.068  16.778 -1.2370  1.9020 -0.4555
 3355TIP3   OH231479   1.458   6.770  11.788  0.1395  0.3481  0.0643
 3355TIP3    H131480   1.390   6.805  11.732  0.3651  2.0680  0.8097
 3355TIP3    H231481   1.525   6.736  11.728 -0.3289  0.7313 -0.6810
 3356TIP3   OH231482   1.896   2.316  12.856  0.3140 -0.0568 -0.0219
 3356TIP3    H131483   1.857   2.229  12.857 -0.9131  0.4626 -0.5407
 3356TIP3    H231484   1.979   2.305  12.810  1.0332 -1.2707  1.4618
 3357TIP3   OH231485   1.780   0.871   3.786  0.4821  0.1868 -0.2480
 3357TIP3    H131486   1.832   0.938   3.831 -0.6182  1.7107 -1.1570
 3357TIP3    H231487   1.838   0.837   3.718  1.0876  0.1239  0.2882
 3358TIP3   OH231488   1.014   1.663  15.909 -0.3941  0.0564  0.2733
 3358TIP3    H131489   1.022   1.669  16.004  1.1043  1.6914  0.0908
 3358TIP3    H231490   1.103   1.668  15.877 -0.8402 -1.0193 -1.2273
 3359TIP3   OH231491   1.852   5.886   1.345 -0.2326  0.1423 -0.4122
 3359TIP3    H131492   1.941   5.891   1.310 -0.4122  1.5160 -0.7251
 3359TIP3    H231493   1.830   5.976   1.370 -0.3523 -0.6187  2.6950
 3360TIP3   OH231494   4.498   0.420   0.435  0.7136  0.0810 -0.3351
 3360TIP3    H131495   4.520   0.473   0.358  4.1949  0.7186  0.9213
 3360TIP3    H231496   4.463   0.484   0.498  1.1752  0.2057 -0.1995
 3361TIP3   OH231497   2.564   3.935  15.934 -0.0868 -0.0572  0.5624
 3361TIP3    H131498   2.636   3.898  15.985 -1.0840 -1.4453  1.0294
 3361TIP3    H231499   2.485   3.902  15.976 -0.9746 -0.1265 -1.0697
 3362TIP3   OH231500   6.081   3.643   2.772  0.1006 -0.2756 -0.2984
 3362TIP3    H131501   6.079   3.650   2.868  1.4570  2.0029 -0.3798
 3362TIP3    H231502   5.989   3.647   2.747 -0.2952 -1.1303  0.8921
 3363TIP3   OH231503   1.341   0.303  14.989 -0.2472  0.2078 -0.4161
 3363TIP3    H131504   1.402   0.338  14.924 -0.0188 -0.4916 -0.5877
 3363TIP3    H231505   1.378   0.218  15.013 -0.6228  0.2207  0.2272
 3364TIP3   OH231506   6.049   4.902   4.071  0.1278 -0.0894  0.0082
 3364TIP3    H131507   6.107   4.958   4.123 -1.1768  1.3953 -0.0484
 3364TIP3    H231508   6.082   4.909   3.982 -1.3496  2.6345 -0.4620
 3365TIP3   OH231509   2.307   0.343  13.774  0.5275 -0.0309  0.2877
 3365TIP3    H131510   2.251   0.266  13.777  1.2269 -0.5320  1.9340
 3365TIP3    H231511   2.311   0.374  13.865  2.5749  0.1948  0.1852
 3366TIP3   OH231512   4.942   5.157   3.268  0.1262 -0.4366  0.2532
 3366TIP3    H131513   5.023   5.108   3.285 -0.3919 -0.6198  2.3467
 3366TIP3    H231514   4.970   5.248   3.263  0.6528 -0.6302 -0.5562
 3367TIP3   OH231515   0.740   6.035   2.781 -0.0522 -0.2176 -0.0230
 3367TIP3    H131516   0.711   5.978   2.711  0.3289 -0.9489  0.4067
 3367TIP3    H231517   0.787   5.978   2.842  3.8924  1.1066 -1.4988
 3368TIP3   OH231518   0.376   3.315   1.068  0.1014 -0.5447 -0.3251
 3368TIP3    H131519   0.376   3.325   1.163  1.1418  1.1316 -0.4662
 3368TIP3    H231520   0.397   3.402   1.034 -0.4729 -1.0465 -2.1091
 3369TIP3   OH231521   0.500   6.649   0.370  1.2825  0.1948  0.2246
 3369TIP3    H131522   0.566   6.595   0.325 -0.2825 -0.6623 -1.1499
 3369TIP3    H231523   0.433   6.586   0.397  1.1885  0.9896  1.9987
 3370TIP3   OH231524   3.318   2.787  12.871  0.3070  0.1805  0.1338
 3370TIP3    H131525   3.394   2.741  12.836 -1.2093 -2.1907 -0.2608
 3370TIP3    H231526   3.279   2.830  12.795 -0.7657 -1.6849 -0.4238
 3371TIP3   OH231527   4.086   4.588   3.731  0.0658  0.2411  0.3510
 3371TIP3    H131528   4.056   4.648   3.799  0.1413 -0.9261  1.4544
 3371TIP3    H231529   4.169   4.624   3.701  0.1691  0.6246  1.0835
 3372TIP3   OH231530   4.449   3.625   5.648  0.0948 -0.4634 -0.4830
 3372TIP3    H131531   4.545   3.623   5.646  0.1232 -0.3876 -2.9576
 3372TIP3    H231532   4.424   3.538   5.680  0.9823 -0.5841 -0.0861
 3373TIP3   OH231533   3.713   0.976   1.286  0.6200 -0.1319 -0.2396
 3373TIP3    H131534   3.743   0.924   1.211  0.4780 -0.3437 -0.1512
 3373TIP3    H231535   3.619   0.957   1.292  0.5218  0.3166 -0.3470
 3374TIP3   OH231536   2.601   6.726   5.227 -0.0756  0.0094 -0.2452
 3374TIP3    H131537   2.508   6.715   5.249 -0.4758 -0.2910 -1.9559
 3374TIP3    H231538   2.620   6.818   5.246 -0.9747  0.3030 -0.7367
 3375TIP3   OH231539   0.969   0.864  11.130 -0.0441  0.4864  0.7357
 3375TIP3    H131540   1.041   0.884  11.191  1.2334  2.0578 -1.1258
 3375TIP3    H231541   1.012   0.859  11.044 -2.1044  1.0568 -0.3939
 3376TIP3   OH231542   0.759   3.180  11.866  0.1823 -0.0346 -0.0574
 3376TIP3    H131543   0.672   3.162  11.900  0.1851 -0.0757 -0.0716
 3376TIP3    H231544   0.773   3.112  11.800  0.3395 -0.2028  0.1449
 3377TIP3   OH231545   0.837   5.358   0.795  0.1955  0.4223 -0.1114
 3377TIP3    H131546   0.798   5.314   0.871 -0.8521  2.0751  0.3695
 3377TIP3    H231547   0.883   5.433   0.833 -0.0797  1.0953 -1.0753
 3378TIP3   OH231548   3.773   6.300   5.841 -0.2549 -0.2375  0.2824
 3378TIP3    H131549   3.810   6.349   5.767  1.4202 -0.4211  0.9409
 3378TIP3    H231550   3.697   6.256   5.805  0.1049  0.2525 -1.1571
 3379TIP3   OH231551   6.145   4.918   1.775  0.1988 -0.0249 -0.2616
 3379TIP3    H131552   6.053   4.930   1.797  0.0358 -0.3714 -0.7326
 3379TIP3    H231553   6.192   4.926   1.858 -0.4269 -1.7154  0.2788
 3380TIP3   OH231554   0.471   3.049   2.740  0.1681  0.4049 -0.3776
 3380TIP3    H131555   0.435   3.127   2.782 -0.2329 -0.3909  0.8076
 3380TIP3    H231556   0.431   2.976   2.788 -0.3783 -0.5577 -2.2109
 3381TIP3   OH231557   3.774   3.218  13.543 -0.0889 -0.7667  0.2560
 3381TIP3    H131558   3.848   3.276  13.524 -0.4893 -0.4759 -0.4630
 3381TIP3    H231559   3.759   3.227  13.637  0.8970 -0.9570  0.4441
 3382TIP3   OH231560   3.273   5.205   3.694 -0.3883 -0.1469  0.2149
 3382TIP3    H131561   3.315   5.228   3.776 -0.4407 -0.6559  0.3886
 3382TIP3    H231562   3.344   5.204   3.630 -0.3169  0.0666  0.2917
 3383TIP3   OH231563   5.959   2.592  11.369 -0.4412  0.4245 -0.0657
 3383TIP3    H131564   5.880   2.646  11.375 -0.6988  0.2252 -1.3449
 3383TIP3    H231565   5.932   2.505  11.398 -1.8158 -0.6954 -4.0794
 3384TIP3   OH231566   5.141   4.985  15.150 -0.0268  0.5802 -0.1230
 3384TIP3    H131567   5.116   4.949  15.065 -0.4496 -0.0611  0.2628
 3384TIP3    H231568   5.193   4.916  15.191 -2.1164 -0.2902  1.2452
 3385TIP3   OH231569   3.836   3.963   6.371 -0.0006 -1.1561 -0.1486
 3385TIP3    H131570   3.743   3.961   6.394 -0.8638  2.0642 -2.6643
 3385TIP3    H231571   3.868   4.046   6.407  1.2840 -1.1034 -1.3195
 3386TIP3   OH231572   0.306   2.745  15.257 -0.4732 -0.1267 -0.1247
 3386TIP3    H131573   0.337   2.704  15.176  0.4544  1.9125 -0.8733
 3386TIP3    H231574   0.228   2.695  15.281  0.9499 -2.7287 -0.5668
 3387TIP3   OH231575   5.657   6.607   3.015 -0.1193  0.1930 -0.5362
 3387TIP3    H131576   5.734   6.563   3.050 -0.9493 -1.2562 -0.4543
 3387TIP3    H231577   5.643   6.681   3.074  0.2215 -0.5114  0.4570
 3388TIP3   OH231578   5.786   2.004   5.173  0.7617  0.5385  0.3404
 3388TIP3    H131579   5.765   2.097   5.168 -1.2356  0.1200  0.1479
 3388TIP3    H231580   5.816   1.981   5.085 -0.5665  0.6238 -0.1535
 3389TIP3   OH231581   1.436   6.266  13.995 -0.0798 -0.8239  0.3640
 3389TIP3    H131582   1.485   6.184  14.004 -0.8460 -1.3186  0.1553
 3389TIP3    H231583   1.409   6.288  14.085  0.4724 -0.5788  0.4711
 3390TIP3   OH231584   5.616   4.736  16.593  0.0119  0.1502 -0.3291
 3390TIP3    H131585   5.626   4.793  16.670 -0.2506 -0.7351  0.3825
 3390TIP3    H231586   5.598   4.649  16.630  0.3483 -0.3888 -1.3872
 3391TIP3   OH231587   0.624   1.639   5.573 -0.0982 -0.7580  0.1003
 3391TIP3    H131588   0.684   1.612   5.503 -1.4619  0.0093 -1.4239
 3391TIP3    H231589   0.619   1.734   5.565 -0.8851 -0.7334  0.7281
 3392TIP3   OH231590   5.863   6.603  16.964  1.1140  0.4275  1.1201
 3392TIP3    H131591   5.802   6.530  16.975  1.7862 -0.3092  0.1189
 3392TIP3    H231592   5.939   6.579  17.016  1.2639  0.4907  0.9321
 3393TIP3   OH231593   2.295   3.423  11.764  0.0030  0.5137 -0.1049
 3393TIP3    H131594   2.318   3.501  11.713 -0.9303  1.5013  0.9077
 3393TIP3    H231595   2.330   3.441  11.852  0.7278 -0.7078 -0.1306
 3394TIP3   OH231596   0.709   3.387   2.779 -0.0287  0.1874 -0.1439
 3394TIP3    H131597   0.732   3.295   2.770  0.2640  0.3993 -2.1194
 3394TIP3    H231598   0.777   3.434   2.731 -1.0030  1.3119 -0.4871
 3395TIP3   OH231599   2.379   2.522  11.492  0.3240  0.0309  0.6201
 3395TIP3    H131600   2.299   2.519  11.544 -1.5580  0.1822 -2.0278
 3395TIP3    H231601   2.433   2.589  11.534 -2.2839  2.1700  0.8333
 3396TIP3   OH231602   6.059   1.237  13.436  0.3211 -0.3161 -0.0886
 3396TIP3    H131603   5.998   1.171  13.404  2.0119 -1.0152 -2.0801
 3396TIP3    H231604   6.136   1.187  13.464  1.8920  0.7399 -2.2106
 3397TIP3   OH231605   6.727   2.099   3.063  0.3406  0.0016  0.3411
 3397TIP3    H131606   6.741   2.077   2.971 -0.1471 -0.5394  0.3874
 3397TIP3    H231607   6.742   2.193   3.068 -0.0793  0.1120 -0.3794
 3398TIP3   OH231608   6.012   0.025   4.626  0.6362  0.2283  0.0292
 3398TIP3    H131609   6.069   0.047   4.700  1.7224 -1.1759 -0.3504
 3398TIP3    H231610   6.055   0.063   4.550  0.8113 -0.3854 -0.1871
 3399TIP3   OH231611   5.238   3.904   4.782  0.1358  0.3570 -0.2752
 3399TIP3    H131612   5.284   3.933   4.860 -2.9675 -0.1590  1.9339
 3399TIP3    H231613   5.224   3.983   4.731  1.7793  0.7798 -0.1145
 3400TIP3   OH231614   1.802   6.177  12.834 -0.2188  0.5267 -0.0004
 3400TIP3    H131615   1.717   6.161  12.876  0.8610 -1.2854  1.6918
 3400TIP3    H231616   1.791   6.260  12.789 -2.3598  1.2468  1.6503
 3401TIP3   OH231617   6.801   3.333   0.542  0.1147 -0.1414  0.1817
 3401TIP3    H131618   6.820   3.254   0.592  1.7290  0.9813  1.4799
 3401TIP3    H231619   6.782   3.400   0.609  0.3871  0.9438 -0.7835
 3402TIP3   OH231620   4.569   1.304   6.267  0.3944  0.2911  0.7095
 3402TIP3    H131621   4.655   1.280   6.233 -1.2915 -0.5676 -3.5984
 3402TIP3    H231622   4.528   1.221   6.291 -0.2033  0.3642 -0.0197
 3403TIP3   OH231623   6.756   0.788  14.146  0.1320  0.1735  0.2468
 3403TIP3    H131624   6.763   0.699  14.181  1.9137  0.4876  0.7564
 3403TIP3    H231625   6.810   0.841  14.203  1.1891  1.1319 -1.5602
 3404TIP3   OH231626   1.592   1.415   0.298 -0.4952 -0.0721 -0.1345
 3404TIP3    H131627   1.547   1.434   0.216 -0.0359  0.2493 -0.3133
 3404TIP3    H231628   1.522   1.388   0.358 -0.8982  0.2217 -0.4697
 3405TIP3   OH231629   4.307   2.795  14.285  0.2381 -0.0097  0.0637
 3405TIP3    H131630   4.303   2.836  14.199  0.0876 -1.1931 -0.5035
 3405TIP3    H231631   4.216   2.789  14.313  0.3549  1.5129  0.8823
 3406TIP3   OH231632   2.639   4.312  15.048 -0.1347  0.1822  0.4034
 3406TIP3    H131633   2.567   4.311  15.111  0.4597 -0.9233  1.0950
 3406TIP3    H231634   2.712   4.351  15.095  0.5759 -1.4623  0.7543
 3407TIP3   OH231635   2.693   3.032   2.848 -0.0156 -0.3813 -0.2143
 3407TIP3    H131636   2.637   2.955   2.835  2.2892 -1.8312 -2.5160
 3407TIP3    H231637   2.658   3.074   2.926 -1.9594 -3.2390  0.6152
 3408TIP3   OH231638   1.285   1.404  16.935 -0.5373 -0.3103  0.0784
 3408TIP3    H131639   1.299   1.319  16.976  0.4197 -0.7292 -1.0672
 3408TIP3    H231640   1.339   1.465  16.985  2.3642 -1.1900 -1.7703
 3409TIP3   OH231641   5.240   2.368   1.148 -0.2934 -0.0167  0.2043
 3409TIP3    H131642   5.171   2.434   1.149 -1.9961 -1.7184  1.5373
 3409TIP3    H231643   5.256   2.348   1.240  1.7934  0.0764 -0.0749
 3410TIP3   OH231644   5.964   2.860  10.795 -0.4165  0.5680  0.0603
 3410TIP3    H131645   6.001   2.822  10.875 -1.5440 -0.2283  0.2356
 3410TIP3    H231646   5.990   2.800  10.726  1.6105  1.9079 -0.4141
 3411TIP3   OH231647   3.710   0.696   0.205  0.4649  0.2764 -0.3702
 3411TIP3    H131648   3.679   0.771   0.255  0.2615 -0.0147 -0.0548
 3411TIP3    H231649   3.796   0.675   0.243 -0.1286 -0.5708  0.5451
 3412TIP3   OH231650   4.635   2.746  14.475  0.4486 -0.5143  0.0077
 3412TIP3    H131651   4.564   2.695  14.435 -0.6229  0.6142  0.3903
 3412TIP3    H231652   4.690   2.771  14.401 -1.0859  0.8974 -0.7433
 3413TIP3   OH231653   6.025   1.187   5.688  0.5456  0.5416  0.2584
 3413TIP3    H131654   5.971   1.207   5.612  0.7931 -2.7109 -0.9537
 3413TIP3    H231655   6.114   1.212   5.662  0.2861  1.6968  0.4643
 3414TIP3   OH231656   3.687   3.806   0.549  0.3572  0.2216 -0.4440
 3414TIP3    H131657   3.752   3.770   0.609  1.3356 -0.2448 -1.7688
 3414TIP3    H231658   3.605   3.764   0.576  0.4979  0.9951  1.3922
 3415TIP3   OH231659   5.093   2.462  11.351  0.8101  0.1583  0.0743
 3415TIP3    H131660   5.025   2.463  11.284  0.6088 -2.9597  0.1159
 3415TIP3    H231661   5.174   2.483  11.303  0.3091  0.5041 -0.6391
 3416TIP3   OH231662   5.563   1.376   5.873 -0.6173 -0.2875  0.6031
 3416TIP3    H131663   5.485   1.334   5.836 -0.2867 -0.5962  0.2357
 3416TIP3    H231664   5.576   1.332   5.957 -0.9702 -0.0715  0.7744
 3417TIP3   OH231665   0.870   6.126  11.526  0.3206  0.5036  0.0380
 3417TIP3    H131666   0.861   6.180  11.448  1.0194  1.1822  0.4184
 3417TIP3    H231667   0.961   6.096  11.525 -0.0140 -0.5554 -0.0891
 3418TIP3   OH231668   1.773   0.542  15.868 -0.9571  0.1641 -0.4179
 3418TIP3    H131669   1.791   0.449  15.851  0.7293  0.4466 -0.3869
 3418TIP3    H231670   1.732   0.543  15.954  2.2592 -0.3626  1.2650
 3419TIP3   OH231671   6.721   0.580   2.116 -0.4908 -0.4914  0.1415
 3419TIP3    H131672   6.767   0.511   2.163 -1.7495 -1.7122 -0.3447
 3419TIP3    H231673   6.652   0.609   2.176  0.4364  0.8350  0.5993
 3420TIP3   OH231674   4.829   1.765   0.797 -0.1077 -0.4187  0.3877
 3420TIP3    H131675   4.861   1.680   0.766  2.5153  0.1845  1.2262
 3420TIP3    H231676   4.805   1.812   0.717  1.7499 -0.7152 -0.3944
 3421TIP3   OH231677   1.391   1.760  14.515  0.7509  0.2882  0.1431
 3421TIP3    H131678   1.417   1.830  14.455  0.1396  0.1459 -0.3031
 3421TIP3    H231679   1.397   1.680  14.462  1.2487  0.0248  0.5896
 3422TIP3   OH231680   3.541   5.967   1.389 -0.0022 -0.4862  0.4397
 3422TIP3    H131681   3.551   5.872   1.375 -0.4227 -0.8323  2.2255
 3422TIP3    H231682   3.592   5.985   1.468 -0.3174  0.6885  0.3912
 3423TIP3   OH231683   5.055   4.711  10.684  0.3764 -0.2154  0.4608
 3423TIP3    H131684   5.028   4.726  10.594  0.6166 -2.9985 -0.1758
 3423TIP3    H231685   4.987   4.654  10.720  0.4965  0.5161  1.9392
 3424TIP3   OH231686   0.265   2.023   3.565  0.3033  0.5150 -0.2077
 3424TIP3    H131687   0.204   1.951   3.547  1.6978 -0.5530 -0.8978
 3424TIP3    H231688   0.220   2.101   3.531 -1.4372  0.0886  0.9580
 3425TIP3   OH231689   6.245   5.478  10.519 -0.0018  0.6295  0.1949
 3425TIP3    H131690   6.302   5.436  10.585  2.5672  0.3242 -2.0455
 3425TIP3    H231691   6.175   5.415  10.505  1.9016 -1.4647 -0.5836
 3426TIP3   OH231692   5.737   5.372  13.758 -0.3102  0.7182  0.3526
 3426TIP3    H131693   5.663   5.323  13.723  0.6364 -1.1613  0.8382
 3426TIP3    H231694   5.718   5.464  13.737 -2.6125  0.2608  0.2480
 3427TIP3   OH231695   1.450   2.750   3.691  0.1714 -0.1286 -0.6874
 3427TIP3    H131696   1.355   2.739   3.694  0.0872  0.0048 -2.3378
 3427TIP3    H231697   1.476   2.755   3.783 -1.2556 -1.4858 -0.1686
 3428TIP3   OH231698   6.544   0.290  15.231 -0.2067 -0.3682  0.5093
 3428TIP3    H131699   6.507   0.241  15.305 -3.0869  0.0920 -0.4998
 3428TIP3    H231700   6.514   0.380  15.245 -0.7456 -0.2667 -1.1579
 3429TIP3   OH231701   0.458   3.395   2.035 -0.2741 -0.2675  0.2377
 3429TIP3    H131702   0.533   3.452   2.050 -0.2893 -0.4211  0.9824
 3429TIP3    H231703   0.493   3.306   2.049  0.0009 -0.5454 -1.9234
 3430TIP3   OH231704   3.296   6.501   2.299 -0.1307 -0.3012  0.4583
 3430TIP3    H131705   3.256   6.419   2.328 -1.4000 -1.3750 -3.5930
 3430TIP3    H231706   3.225   6.547   2.254  1.2538  1.6692  0.1640
 3431TIP3   OH231707   3.476   0.107   5.389 -0.4774 -0.6550 -0.2147
 3431TIP3    H131708   3.468   0.196   5.421 -0.2184 -0.3812 -0.8813
 3431TIP3    H231709   3.390   0.068   5.403 -0.1355 -0.8456  1.6181
 3432TIP3   OH231710   6.709   0.190   5.779  0.4529  0.3020 -0.0156
 3432TIP3    H131711   6.784   0.245   5.802 -0.0622  1.1489 -0.2995
 3432TIP3    H231712   6.747   0.108   5.747  1.2589  0.8028 -0.3597
 3433TIP3   OH231713   1.337   1.777   3.049 -0.3339  0.3837 -0.6217
 3433TIP3    H131714   1.350   1.870   3.067 -1.4185  0.7754 -1.7405
 3433TIP3    H231715   1.257   1.754   3.097  0.3184 -0.1794  0.2420
 3434TIP3   OH231716   6.479   2.152  15.301 -0.9404 -0.2020  0.5391
 3434TIP3    H131717   6.396   2.173  15.257 -0.4336 -1.0416 -0.8874
 3434TIP3    H231718   6.529   2.233  15.297 -0.7360 -0.3640 -0.8879
 3435TIP3   OH231719   0.117   0.578  11.850  0.3086 -0.1230  0.3518
 3435TIP3    H131720   0.034   0.555  11.809 -0.0191  0.1229  0.8653
 3435TIP3    H231721   0.144   0.659  11.806 -0.2406  0.3587  0.8802
 3436TIP3   OH231722   1.217   6.816   5.416 -0.1756  0.0366  0.6880
 3436TIP3    H131723   1.264   6.836   5.335 -2.1469  0.4356 -0.4368
 3436TIP3    H231724   1.284   6.782   5.475  1.5966  1.1341 -0.5894
 3437TIP3   OH231725   5.001   6.132   4.483  0.0971 -0.3178  0.3944
 3437TIP3    H131726   4.990   6.088   4.399 -1.2414  0.4106  0.1640
 3437TIP3    H231727   5.095   6.150   4.489  0.2796 -0.8504 -0.6924
 3438TIP3   OH231728   1.713   4.186   0.719 -0.4991  0.0461 -0.0977
 3438TIP3    H131729   1.761   4.215   0.796 -0.4187  0.7781 -0.4173
 3438TIP3    H231730   1.668   4.106   0.748 -0.9886  0.6576  0.9013
 3439TIP3   OH231731   1.152   4.373  16.772  0.6894  0.4238  0.3440
 3439TIP3    H131732   1.172   4.341  16.684  0.5885  1.1567  0.0441
 3439TIP3    H231733   1.104   4.455  16.757 -0.7551 -0.2564  1.0641
 3440TIP3   OH231734   5.304   2.495  15.092  0.1516 -0.7529  0.2744
 3440TIP3    H131735   5.387   2.458  15.062  0.4256 -1.2645  1.5910
 3440TIP3    H231736   5.305   2.483  15.187 -0.9008  0.3260  0.4499
 3441TIP3   OH231737   3.983   2.187  14.179 -0.5944  0.4044  0.3523
 3441TIP3    H131738   4.002   2.178  14.086 -0.7461 -0.8730  0.4257
 3441TIP3    H231739   3.991   2.281  14.196  0.1290  0.5735 -0.7904
 3442TIP3   OH231740   2.827   6.072   3.275 -0.2883  0.2369  0.3369
 3442TIP3    H131741   2.837   5.993   3.328  0.7143  1.2067  1.6591
 3442TIP3    H231742   2.911   6.082   3.231 -0.7275  0.0710 -0.5521
 3443TIP3   OH231743   5.764   1.309   2.444 -0.6868  0.1846  0.7865
 3443TIP3    H131744   5.673   1.292   2.466 -1.4531  0.7341 -1.6259
 3443TIP3    H231745   5.785   1.245   2.376 -0.7596  2.7332 -1.8739
 3444TIP3   OH231746   5.164   3.735  15.772  0.2685  0.3192  0.3178
 3444TIP3    H131747   5.215   3.661  15.738 -1.4562 -0.4644 -0.7330
 3444TIP3    H231748   5.199   3.750  15.859  1.5881 -0.8448  0.0305
 3445TIP3   OH231749   3.858   4.367  15.692  0.8504  0.0601  0.4196
 3445TIP3    H131750   3.879   4.398  15.780  1.1293  1.6333 -0.1742
 3445TIP3    H231751   3.911   4.421  15.633  0.6786 -0.9613 -0.7248
 3446TIP3   OH231752   4.801   2.162  13.340  0.7003 -0.2411  0.0533
 3446TIP3    H131753   4.869   2.152  13.274  0.1941  0.4215 -0.5805
 3446TIP3    H231754   4.719   2.141  13.295  0.2045  1.5117  0.0762
 3447TIP3   OH231755   2.358   4.809  16.681  1.0106  0.0146  0.1487
 3447TIP3    H131756   2.305   4.876  16.638  1.1177 -0.2061 -0.3442
 3447TIP3    H231757   2.382   4.749  16.610 -0.3511 -1.4064  0.8110
 3448TIP3   OH231758   2.766   2.144  13.452 -0.1850  0.1468 -0.6408
 3448TIP3    H131759   2.802   2.206  13.514  0.0385  1.3583 -1.9206
 3448TIP3    H231760   2.762   2.061  13.499 -1.2255  1.2787  1.3722
 3449TIP3   OH231761   1.946   1.544  12.268 -0.1198  0.7748  0.1028
 3449TIP3    H131762   2.021   1.491  12.241 -1.2367 -0.4304 -0.7523
 3449TIP3    H231763   1.895   1.556  12.188 -0.2047  2.6979  0.3966
 3450TIP3   OH231764   4.623   2.139  13.733  0.4495  0.2198 -0.5903
 3450TIP3    H131765   4.584   2.071  13.787  0.0592  0.4875 -0.5285
 3450TIP3    H231766   4.588   2.124  13.645 -0.5687  1.0301 -0.3495
 3451TIP3   OH231767   1.076   5.125   0.858  0.2238 -0.4570  0.0297
 3451TIP3    H131768   1.084   5.161   0.947 -0.1504 -0.3981  0.0412
 3451TIP3    H231769   1.021   5.047   0.869  1.6305 -1.4816  0.1233
 3452TIP3   OH231770   2.618   0.539  13.528  0.0337  0.0541  0.7087
 3452TIP3    H131771   2.600   0.557  13.436  0.3252  0.7261  0.7803
 3452TIP3    H231772   2.539   0.494  13.559  0.7847 -2.1669 -0.3923
 3453TIP3   OH231773   4.748   1.102   2.880  0.1068 -0.3697 -0.0117
 3453TIP3    H131774   4.657   1.130   2.876  0.6290  1.3995 -0.2653
 3453TIP3    H231775   4.753   1.027   2.820 -0.9070  0.3373 -1.0220
 3454TIP3   OH231776   0.941   1.638   1.785 -0.0445  0.0427  0.3007
 3454TIP3    H131777   0.925   1.637   1.880  1.3422 -2.0237  0.5861
 3454TIP3    H231778   1.014   1.699   1.774 -0.9073  1.1215  0.3939
 3455TIP3   OH231779   1.488   5.726  10.915 -0.3268  0.0693  0.1280
 3455TIP3    H131780   1.562   5.732  10.854  1.2725 -0.7140  1.8631
 3455TIP3    H231781   1.517   5.774  10.993 -2.2472  0.9313  0.3650
 3456TIP3   OH231782   5.087   4.873  12.476 -0.4807  0.2553  0.2557
 3456TIP3    H131783   5.153   4.911  12.418  1.6738 -2.5401  0.6313
 3456TIP3    H231784   5.090   4.779  12.457 -1.9776 -0.3661  2.6857
 3457TIP3   OH231785   6.334   2.895   1.552  0.2093  0.2427  0.2143
 3457TIP3    H131786   6.408   2.904   1.491  0.7531 -0.6856  0.7143
 3457TIP3    H231787   6.257   2.907   1.497  0.6963 -0.2977 -0.6211
 3458TIP3   OH231788   4.159   2.702  13.105 -0.2459 -0.3445  0.3246
 3458TIP3    H131789   4.209   2.742  13.176 -0.4756  0.2984  0.1225
 3458TIP3    H231790   4.226   2.670  13.044 -0.0565 -0.6159  0.6688
 3459TIP3   OH231791   3.644   5.295  10.727 -0.0176 -0.3282  0.3907
 3459TIP3    H131792   3.686   5.334  10.804 -0.1858  1.2309 -0.2858
 3459TIP3    H231793   3.622   5.369  10.671 -3.1895 -1.0881  0.4290
 3460TIP3   OH231794   6.699   6.046  12.163  0.3670  0.2125 -0.6638
 3460TIP3    H131795   6.733   6.082  12.081 -1.2903  0.7672 -1.1465
 3460TIP3    H231796   6.741   6.098  12.231  1.2737  0.1738 -1.1803
 3461TIP3   OH231797   1.459   6.097  10.978 -0.1043  0.1478  0.2807
 3461TIP3    H131798   1.489   6.172  11.030 -1.1611  1.3452 -0.7691
 3461TIP3    H231799   1.532   6.075  10.922  0.2452  0.3143  0.6669
 3462TIP3   OH231800   1.627   1.001  15.600 -0.1371  0.4549 -0.5427
 3462TIP3    H131801   1.537   1.029  15.617 -0.5517 -0.2359 -1.5105
 3462TIP3    H231802   1.628   0.980  15.507  0.4081 -1.7605 -0.0876
 3463TIP3   OH231803   6.643   6.720  11.559  0.2228 -0.6612 -0.2272
 3463TIP3    H131804   6.590   6.772  11.498 -2.2086 -2.7640 -0.0701
 3463TIP3    H231805   6.724   6.703  11.512 -0.6845 -0.3493 -2.0039
 3464TIP3   OH231806   1.343   3.543   3.459 -0.4156  0.8205 -0.5307
 3464TIP3    H131807   1.275   3.520   3.522  1.5931  1.4919  2.0450
 3464TIP3    H231808   1.328   3.636   3.441 -2.0177  0.2605 -2.5306
 3465TIP3   OH231809   6.424   5.873   3.185  0.0357 -0.2603  0.3269
 3465TIP3    H131810   6.334   5.857   3.212 -0.4115 -1.3240 -1.6229
 3465TIP3    H231811   6.441   5.808   3.117  1.5960  1.2264 -0.7920
 3466TIP3   OH231812   6.021   0.881   1.427  0.5956 -0.3476 -0.0632
 3466TIP3    H131813   5.935   0.912   1.398 -0.4948 -2.7850  0.3352
 3466TIP3    H231814   6.077   0.894   1.350 -0.5821 -0.4517 -0.9706
 3467TIP3   OH231815   6.369   1.765   0.665 -0.0549 -0.1206  0.5299
 3467TIP3    H131816   6.462   1.775   0.687  0.0538  1.2706 -0.4028
 3467TIP3    H231817   6.357   1.821   0.588 -1.4549 -1.0799  0.0226
 3468TIP3   OH231818   2.840   6.451   1.224  0.1941 -0.4722  0.0416
 3468TIP3    H131819   2.811   6.522   1.168 -0.4233 -0.8485 -0.1273
 3468TIP3    H231820   2.882   6.495   1.299 -1.2665  0.1288  0.5494
 3469TIP3   OH231821   1.130   1.643   3.193 -0.1781 -0.9059  0.3367
 3469TIP3    H131822   1.048   1.692   3.197  1.0946  1.3596  0.5092
 3469TIP3    H231823   1.119   1.572   3.256 -2.1594 -0.9539 -0.0110
 3470TIP3   OH231824   3.689   2.335  13.157  0.0058 -0.2164 -0.5361
 3470TIP3    H131825   3.765   2.350  13.101  1.9972 -0.2896  1.9600
 3470TIP3    H231826   3.617   2.379  13.112  1.4607 -0.2918 -3.1027
 3471TIP3   OH231827   1.774   2.667  11.532  0.0787 -0.1657 -0.1790
 3471TIP3    H131828   1.837   2.736  11.516 -2.2336  3.0193  2.9559
 3471TIP3    H231829   1.696   2.693  11.481 -0.3401 -1.3427 -0.1746
 3472TIP3   OH231830   6.077   5.084   2.099  0.3711 -0.1414 -0.6707
 3472TIP3    H131831   6.047   5.062   2.011 -0.8832 -1.0354 -0.0480
 3472TIP3    H231832   6.029   5.025   2.156  2.4408 -0.7804  0.5090
 3473TIP3   OH231833   3.652   3.029   3.627 -0.8859  0.3926 -0.2111
 3473TIP3    H131834   3.581   2.967   3.645 -0.7988  0.6353  1.0236
 3473TIP3    H231835   3.689   3.049   3.713 -0.5839  1.7741 -0.6403
 3474TIP3   OH231836   4.357   4.741  14.312 -0.4110 -0.5523  0.2395
 3474TIP3    H131837   4.388   4.738  14.402 -0.2891 -1.5798  0.1797
 3474TIP3    H231838   4.420   4.687  14.264 -0.7763 -0.4481 -0.3601
 3475TIP3   OH231839   0.836   0.371   5.425 -0.2917 -0.3850  0.0599
 3475TIP3    H131840   0.912   0.321   5.455  1.0250  1.1246 -0.6220
 3475TIP3    H231841   0.814   0.426   5.500 -0.5781 -0.6453  0.1704
 3476TIP3   OH231842   1.061   5.113  16.174 -0.4137  0.0401 -0.0319
 3476TIP3    H131843   0.993   5.178  16.156  1.5437  2.4883  0.7200
 3476TIP3    H231844   1.092   5.135  16.262  1.3624 -0.9376 -0.3560
 3477TIP3   OH231845   3.090   6.507  10.957  0.5530 -0.1085  0.1693
 3477TIP3    H131846   3.130   6.591  10.982 -1.2080  0.3626  1.6331
 3477TIP3    H231847   3.016   6.532  10.903 -0.3775 -0.6459  1.1585
 3478TIP3   OH231848   1.685   6.471  16.932  0.1452 -0.2189  0.0276
 3478TIP3    H131849   1.751   6.539  16.941  0.2832 -0.5216  1.5213
 3478TIP3    H231850   1.643   6.466  17.018 -1.9269  0.0637 -0.9078
 3479TIP3   OH231851   0.194   1.746   0.382  0.4427 -0.1041  0.4779
 3479TIP3    H131852   0.099   1.738   0.374  0.2880 -0.1467  1.9954
 3479TIP3    H231853   0.228   1.669   0.338 -0.1083  0.8058 -1.6580
 3480TIP3   OH231854   6.639   6.774  10.953 -0.4451  0.6725 -0.0978
 3480TIP3    H131855   6.612   6.683  10.962 -0.4534  0.6844  0.0072
 3480TIP3    H231856   6.605   6.817  11.033  0.8224  0.4706  0.5716
 3481TIP3   OH231857   4.724   3.260   2.779  0.3987  0.0659  0.4080
 3481TIP3    H131858   4.696   3.240   2.690 -0.0984  2.1384  0.0578
 3481TIP3    H231859   4.816   3.233   2.782  0.0035 -1.4491 -0.2218
 3482TIP3   OH231860   5.236   0.182  13.906  0.0518  0.0789 -0.7053
 3482TIP3    H131861   5.281   0.111  13.861  2.0071  1.0421 -0.3474
 3482TIP3    H231862   5.217   0.148  13.993  0.1646 -0.3071 -0.8319
 3483TIP3   OH231863   1.845   4.263   1.767 -1.0791  0.4412  0.3540
 3483TIP3    H131864   1.830   4.326   1.695  2.0096  1.1120  0.1731
 3483TIP3    H231865   1.847   4.178   1.724  1.2232  0.8755 -0.5407
 3484TIP3   OH231866   0.806   3.927  11.305  0.0272 -0.2575 -0.2385
 3484TIP3    H131867   0.784   4.017  11.331 -1.3364 -0.9146  1.0713
 3484TIP3    H231868   0.844   3.936  11.218  1.2862  1.7328  0.4382
 3485TIP3   OH231869   2.238   3.432   2.790  0.2449  0.0385  0.6090
 3485TIP3    H131870   2.173   3.501   2.777  0.6916  0.1340 -1.4836
 3485TIP3    H231871   2.287   3.430   2.708  1.0028 -1.9872  1.0539
 3486TIP3   OH231872   0.185   5.240   1.514 -0.4204 -0.2199 -0.4581
 3486TIP3    H131873   0.200   5.147   1.531  2.5757  0.2688  0.2188
 3486TIP3    H231874   0.113   5.242   1.452  0.5498 -3.1128 -1.8464
 3487TIP3   OH231875   4.272   5.280   6.780  0.8489 -0.5035  0.0086
 3487TIP3    H131876   4.293   5.333   6.703  1.9187 -0.1536  0.5182
 3487TIP3    H231877   4.325   5.201   6.770  1.4832 -0.1766  0.6811
 3488TIP3   OH231878   4.176   5.375   2.688  0.0536  0.2878 -0.1053
 3488TIP3    H131879   4.241   5.319   2.646 -0.5354 -0.3473 -0.1841
 3488TIP3    H231880   4.106   5.384   2.623 -0.1163  0.6381  0.1213
 3489TIP3   OH231881   1.597   3.144  15.235 -0.0966 -0.0198  0.4010
 3489TIP3    H131882   1.652   3.067  15.248 -0.8961 -0.3651  2.1073
 3489TIP3    H231883   1.547   3.126  15.155  0.8848 -0.5277 -0.1093
 3490TIP3   OH231884   1.414   0.547  13.068 -0.1498  0.3803  0.2076
 3490TIP3    H131885   1.404   0.546  12.973  1.0317 -0.0626  0.0713
 3490TIP3    H231886   1.504   0.577  13.083 -0.7325  1.7502  1.2387
 3491TIP3   OH231887   5.303   5.344  11.160 -0.3809 -0.4297  0.4627
 3491TIP3    H131888   5.244   5.268  11.159  0.0088 -0.7448 -1.3101
 3491TIP3    H231889   5.313   5.368  11.068  1.7513  0.0177  0.7575
 3492TIP3   OH231890   0.814   6.102  16.647  0.6869  0.1407 -1.0084
 3492TIP3    H131891   0.785   6.017  16.682  1.2502  0.7866  1.1645
 3492TIP3    H231892   0.883   6.079  16.585  0.5576 -1.0267 -0.7530
 3493TIP3   OH231893   3.954   1.189  15.976  0.2497  0.5262 -0.6637
 3493TIP3    H131894   3.888   1.220  15.914  0.8408  2.6004 -0.3407
 3493TIP3    H231895   4.031   1.244  15.958  1.5016 -1.0036 -0.2184
 3494TIP3   OH231896   6.674   0.548   4.847 -0.1665 -0.4740 -0.4138
 3494TIP3    H131897   6.675   0.613   4.777  1.2799  1.4692  1.2779
 3494TIP3    H231898   6.585   0.552   4.882 -0.4212 -0.2471 -1.0840
 3495TIP3   OH231899   4.338   4.661   4.700 -0.2963 -0.3537 -0.0277
 3495TIP3    H131900   4.356   4.573   4.667  0.2429 -0.4979  0.6409
 3495TIP3    H231901   4.380   4.720   4.637  1.4248 -0.6459  0.8138
 3496TIP3   OH231902   0.681   4.545  10.481  0.0494 -0.0085  0.3411
 3496TIP3    H131903   0.604   4.600  10.495 -0.0830 -0.4782  1.6658
 3496TIP3    H231904   0.752   4.592  10.524  0.6742  0.7156 -1.3866
 3497TIP3   OH231905   3.103   5.054  12.065  0.0148 -0.5505  0.1502
 3497TIP3    H131906   3.108   5.030  11.973  0.7096 -1.1980  0.3411
 3497TIP3    H231907   3.187   5.097  12.084  0.2519 -1.2251  0.6831
 3498TIP3   OH231908   0.558   0.400   6.264  0.1020  0.6954 -0.0259
 3498TIP3    H131909   0.488   0.379   6.203 -0.4243  1.3338  0.3332
 3498TIP3    H231910   0.607   0.319   6.275  0.6185  0.7461 -1.7983
 3499TIP3   OH231911   2.891   3.184  16.124 -0.3034 -0.0577  0.0161
 3499TIP3    H131912   2.810   3.203  16.171  1.5131 -0.0567  3.4628
 3499TIP3    H231913   2.932   3.269  16.111 -0.1185 -0.1829 -0.2244
 3500TIP3   OH231914   4.364   2.857  14.812 -0.6169 -0.1948  0.2809
 3500TIP3    H131915   4.290   2.867  14.752 -0.3096 -0.4897 -0.1607
 3500TIP3    H231916   4.439   2.891  14.764 -0.2227 -1.1639  0.1709
 3501TIP3   OH231917   2.407   3.060  15.638 -0.1058  0.5661  0.5768
 3501TIP3    H131918   2.363   2.987  15.594  1.6813 -1.3139  1.6806
 3501TIP3    H231919   2.500   3.038  15.631  0.4228  2.2040  1.9316
 3502TIP3   OH231920   2.989   2.746  15.566  0.2481  0.1745 -0.0571
 3502TIP3    H131921   3.080   2.714  15.566  0.8574  1.6430 -2.1062
 3502TIP3    H231922   2.938   2.671  15.535  0.6683 -0.8019  1.5190
 3503TIP3   OH231923   4.787   2.803   1.707  0.3860 -0.1095  0.2454
 3503TIP3    H131924   4.738   2.864   1.762  1.5821  0.0341  1.1670
 3503TIP3    H231925   4.877   2.809   1.738  0.7638 -1.3404 -0.5607
 3504TIP3   OH231926   5.856   3.246  13.085  0.1238  0.0561  0.1305
 3504TIP3    H131927   5.845   3.247  13.180  1.4954  0.8359  0.3012
 3504TIP3    H231928   5.766   3.248  13.051 -0.4120  2.5275  1.4092
 3505TIP3   OH231929   6.386   1.628  16.390 -0.2140 -0.4077  0.3744
 3505TIP3    H131930   6.374   1.537  16.364  1.0448 -0.3889 -0.3309
 3505TIP3    H231931   6.362   1.630  16.483  1.8976 -1.9502  1.0209
 3506TIP3   OH231932   0.332   0.313   3.618  0.2937 -0.0293  0.3496
 3506TIP3    H131933   0.371   0.261   3.688  1.7443  1.7354  0.9097
 3506TIP3    H231934   0.255   0.353   3.659 -1.6737 -2.6944 -0.4706
 3507TIP3   OH231935   0.320   0.929   4.769  0.1083 -0.1429 -0.8713
 3507TIP3    H131936   0.256   0.862   4.790  1.1527 -1.6321 -2.2280
 3507TIP3    H231937   0.396   0.908   4.823  0.5794 -0.2783 -1.5853
 3508TIP3   OH231938   6.748   0.395   4.477 -0.0127  0.7201 -0.6281
 3508TIP3    H131939   6.672   0.391   4.535  0.3879 -1.9402 -0.1338
 3508TIP3    H231940   6.717   0.442   4.399 -1.2410  2.2776  0.7473
 3509TIP3   OH231941   4.877   5.554   2.439  0.1380 -0.4512 -0.4437
 3509TIP3    H131942   4.812   5.546   2.509  0.2228 -0.0712 -0.3140
 3509TIP3    H231943   4.930   5.630   2.465 -0.6411  0.5135 -1.5740
 3510TIP3   OH231944   4.689   1.690  14.991  0.5033  0.1707 -0.4416
 3510TIP3    H131945   4.618   1.752  15.011  0.6281 -0.2873  1.6886
 3510TIP3    H231946   4.652   1.604  15.010  1.6495 -0.0632  0.9105
 3511TIP3   OH231947   6.066   2.599  15.316 -0.0272  0.0001  0.0754
 3511TIP3    H131948   6.081   2.689  15.347  1.4978 -0.3216  0.3443
 3511TIP3    H231949   6.111   2.596  15.231  2.0303 -1.1450  1.1262
 3512TIP3   OH231950   1.074   3.809  10.899 -0.0749  0.1520  1.1750
 3512TIP3    H131951   1.099   3.735  10.954 -1.4542 -0.6907  0.7250
 3512TIP3    H231952   1.123   3.796  10.818  0.3228  0.2105  1.4019
 3513TIP3   OH231953   2.721   4.985  11.175 -0.4414  0.2965  0.1190
 3513TIP3    H131954   2.650   4.968  11.114  1.3183 -0.6283 -1.7942
 3513TIP3    H231955   2.707   4.924  11.247 -1.8689  0.5317  0.0626
 3514TIP3   OH231956   4.274   6.322  12.022 -0.2550 -0.6886  0.8113
 3514TIP3    H131957   4.299   6.336  12.113 -1.7462  0.1510  1.1334
 3514TIP3    H231958   4.191   6.369  12.013 -1.5826 -3.0941 -0.2298
 3515TIP3   OH231959   5.414   3.805   2.253  0.1885  0.1084 -0.5140
 3515TIP3    H131960   5.334   3.855   2.268  0.2401 -0.3120  1.4901
 3515TIP3    H231961   5.384   3.716   2.235  0.1708  0.2918 -1.4167
 3516TIP3   OH231962   3.770   1.630   1.565  0.1008  0.5629 -0.4980
 3516TIP3    H131963   3.823   1.581   1.502  0.2487  1.7633 -1.3323
 3516TIP3    H231964   3.771   1.720   1.533  0.0923  1.1910  1.1682
 3517TIP3   OH231965   3.304   0.523  13.137  0.8013  0.0811 -0.7167
 3517TIP3    H131966   3.258   0.574  13.205 -0.6612  0.1029 -1.6683
 3517TIP3    H231967   3.272   0.434  13.148  1.3000 -0.1075 -0.7738
 3518TIP3   OH231968   6.665   6.746  15.056 -0.0651 -0.8855  0.1291
 3518TIP3    H131969   6.727   6.676  15.034 -0.7493 -1.2654 -0.6576
 3518TIP3    H231970   6.664   6.802  14.979  0.5068  0.0217  0.7747
 3519TIP3   OH231971   0.081   3.076  16.854  0.2092 -0.0294 -0.1049
 3519TIP3    H131972   0.088   3.109  16.943  0.2481 -1.3792  0.4255
 3519TIP3    H231973  -0.005   3.104  16.824 -0.6966 -1.2890  1.1418
 3520TIP3   OH231974   5.532   0.902  12.149 -0.2964  0.5537  0.4492
 3520TIP3    H131975   5.487   0.877  12.230 -2.3679  2.5472  0.0200
 3520TIP3    H231976   5.513   0.830  12.088 -0.4371  0.0027  1.1302
 3521TIP3   OH231977   5.696   0.976   0.603 -0.1402 -0.1249  0.1187
 3521TIP3    H131978   5.681   1.065   0.636 -0.0029  0.5143 -1.4428
 3521TIP3    H231979   5.751   0.935   0.669 -0.3629  0.8829  0.9617
 3522TIP3   OH231980   5.333   0.423   3.370 -0.6118 -0.1485  0.2679
 3522TIP3    H131981   5.264   0.424   3.436 -0.4632 -0.8397  0.4468
 3522TIP3    H231982   5.359   0.515   3.361 -0.9562  0.0102  0.8313
 3523TIP3   OH231983   4.197   2.104   0.122 -0.6133 -0.6149  0.0124
 3523TIP3    H131984   4.236   2.056   0.050  0.9884 -1.3971  1.3299
 3523TIP3    H231985   4.133   2.162   0.081  1.7978  0.6198 -2.2796
 3524TIP3   OH231986   1.187   6.008  16.993  0.0455 -0.2702  0.4292
 3524TIP3    H131987   1.252   6.078  16.996 -0.9006  0.6209  1.1993
 3524TIP3    H231988   1.218   5.948  16.925 -1.0053  2.7994 -3.0615
 3525TIP3   OH231989   6.653   6.152  14.600 -0.3151  0.4652  0.0737
 3525TIP3    H131990   6.660   6.057  14.608 -2.8346  0.1352 -0.8943
 3525TIP3    H231991   6.582   6.167  14.538  0.1225  3.0093  0.0456
 3526TIP3   OH231992   0.685   6.334   4.592  0.3769  0.3073  0.1938
 3526TIP3    H131993   0.682   6.247   4.631  0.0599  0.0427 -0.4046
 3526TIP3    H231994   0.745   6.325   4.518 -0.0519  0.4646 -0.1776
 3527TIP3   OH231995   0.174   4.561  15.087 -0.1338  0.1881  0.3144
 3527TIP3    H131996   0.177   4.466  15.100 -0.9714  0.3454  1.8900
 3527TIP3    H231997   0.158   4.572  14.993  3.2963 -1.1313 -0.5775
 3528TIP3   OH231998   4.085   5.029  15.603 -0.0079 -0.1152  0.3338
 3528TIP3    H131999   4.052   5.104  15.553  2.2212 -0.0179 -1.1173
 3528TIP3    H232000   4.014   4.965  15.599 -1.4531  1.3970  0.5249
 3529TIP3   OH232001   0.561   4.702  15.357 -0.2237  0.1848 -0.0514
 3529TIP3    H132002   0.570   4.786  15.403  0.3044 -0.1671  0.5061
 3529TIP3    H232003   0.626   4.706  15.288 -0.7233  0.5378 -0.5168
 3530TIP3   OH232004   4.943   6.568  16.618  0.0201  0.9004  0.2155
 3530TIP3    H132005   4.866   6.625  16.613  0.5197  1.7251  1.3341
 3530TIP3    H232006   4.965   6.567  16.711 -0.0267 -1.2377  0.2424
 3531TIP3   OH232007   5.990   5.426  13.596 -0.1626  0.0336  0.5569
 3531TIP3    H132008   5.901   5.393  13.608  0.0711 -1.4187 -1.2515
 3531TIP3    H232009   6.047   5.355  13.627  0.3519  0.1189 -0.1672
 3532TIP3   OH232010   3.872   5.498   1.523  0.2478  0.2650 -0.2638
 3532TIP3    H132011   3.933   5.467   1.590  0.7461  1.5014 -0.1187
 3532TIP3    H232012   3.907   5.583   1.496 -2.1233  1.6651  0.7660
 3533TIP3   OH232013   4.870   2.401  15.384 -0.5997  0.1980 -0.4157
 3533TIP3    H132014   4.844   2.452  15.307  0.5452  1.5042  0.0147
 3533TIP3    H232015   4.896   2.467  15.448  1.6039 -0.9246 -0.0595
 3534TIP3   OH232016   4.716   4.671   2.049  0.3934  0.4403  0.2580
 3534TIP3    H132017   4.782   4.671   1.978  0.3962  0.4696  0.2605
 3534TIP3    H232018   4.768   4.667   2.129  0.3799 -3.0615  0.2607
 3535TIP3   OH232019   4.093   0.595   3.719  0.0165 -0.2223  0.5046
 3535TIP3    H132020   4.088   0.690   3.726  0.2837 -0.0967 -0.7497
 3535TIP3    H232021   4.159   0.569   3.784  0.3361  0.5060  0.4783
 3536TIP3   OH232022   0.655   1.918  16.624  0.3902  0.5938 -0.2407
 3536TIP3    H132023   0.619   1.942  16.539  2.6721  0.0140 -1.4632
 3536TIP3    H232024   0.679   1.826  16.615  2.5732  1.0592  0.2896
 3537TIP3   OH232025   5.443   6.451  17.103  0.2722 -0.1852 -0.3730
 3537TIP3    H132026   5.525   6.407  17.124  1.0882  0.5273 -1.8697
 3537TIP3    H232027   5.393   6.386  17.054  0.2129 -0.4250  0.0071
 3538TIP3   OH232028   2.179   1.791   1.562  0.0222  0.2077 -0.0297
 3538TIP3    H132029   2.230   1.783   1.481  1.3618 -0.6643  0.8707
 3538TIP3    H232030   2.117   1.862   1.544 -1.3942 -1.5301 -2.6974
 3539TIP3   OH232031   6.195   1.103  11.724  0.0198 -0.0299  0.2240
 3539TIP3    H132032   6.247   1.179  11.700  0.9150 -1.2445 -1.9175
 3539TIP3    H232033   6.104   1.133  11.719  0.3502  0.8632 -0.6701
 3540TIP3   OH232034   5.029   6.192   1.402  0.1329 -0.7950 -0.1328
 3540TIP3    H132035   5.080   6.143   1.467  1.2905 -0.9895 -1.1481
 3540TIP3    H232036   5.095   6.237   1.349 -0.7176 -1.4253 -1.7833
 3541TIP3   OH232037   6.312   6.103   3.610 -0.0422  0.1078 -0.0095
 3541TIP3    H132038   6.389   6.094   3.554 -0.0813 -0.5305  0.0363
 3541TIP3    H232039   6.333   6.177   3.668  1.4726 -1.3982  1.4891
 3542TIP3   OH232040   5.736   2.033  11.128  0.4287  0.3286  0.0027
 3542TIP3    H132041   5.743   2.069  11.040  1.0452 -0.1892 -0.1704
 3542TIP3    H232042   5.785   1.951  11.124  2.5079  1.4123  1.4358
 3543TIP3   OH232043   3.168   4.557  13.837  0.3090  0.0989  0.6439
 3543TIP3    H132044   3.205   4.569  13.924 -0.9177  1.2316  1.0499
 3543TIP3    H232045   3.140   4.645  13.811 -2.1228 -0.6763  0.4186
 3544TIP3   OH232046   3.918   1.979  15.956  0.3219 -0.1425 -0.0873
 3544TIP3    H132047   3.901   1.987  15.862 -0.1631 -0.6328 -0.0503
 3544TIP3    H232048   4.009   1.949  15.962 -0.0551 -1.4696 -0.4684
 3545TIP3   OH232049   3.927   5.978   6.261 -0.2927 -0.4709 -0.5430
 3545TIP3    H132050   3.916   5.884   6.243 -0.3748 -0.1778 -2.2714
 3545TIP3    H232051   3.992   6.006   6.196 -0.1375  0.6356  0.0791
 3546TIP3   OH232052   1.246   3.917  13.239 -0.0004 -0.3048 -0.0465
 3546TIP3    H132053   1.256   3.925  13.144  0.2624 -0.8315 -0.0657
 3546TIP3    H232054   1.311   3.852  13.265  1.1178  1.0616  0.7447
 3547TIP3   OH232055   2.564   3.777  14.382  0.0686  0.1559  0.2957
 3547TIP3    H132056   2.555   3.868  14.411 -0.2271  0.6071 -1.1000
 3547TIP3    H232057   2.641   3.778  14.324  0.4264 -0.6218  0.7351
 3548TIP3   OH232058   4.269   2.915   0.891 -0.1423  0.1875 -0.0100
 3548TIP3    H132059   4.298   3.006   0.897  0.9085 -0.0471 -1.0172
 3548TIP3    H232060   4.300   2.886   0.805  2.0517 -1.9374  1.3521
 3549TIP3   OH232061   5.131   0.938   1.017  0.2412 -0.2852 -0.5188
 3549TIP3    H132062   5.115   0.987   0.937  1.7053 -2.0034 -1.9581
 3549TIP3    H232063   5.202   0.986   1.061 -0.2348  0.3915 -0.4761
 3550TIP3   OH232064   2.528   6.406   3.620 -0.3827  0.0262  0.3332
 3550TIP3    H132065   2.585   6.331   3.608  1.2225  1.3849 -0.9142
 3550TIP3    H232066   2.566   6.454   3.694  0.2922  1.0864 -0.6823
 3551TIP3   OH232067   5.972   2.512  14.624 -0.0347  0.1125  0.3940
 3551TIP3    H132068   5.885   2.540  14.654 -0.6292  0.1615 -1.2535
 3551TIP3    H232069   6.033   2.562  14.677 -0.9862 -0.3521  2.0086
 3552TIP3   OH232070   3.960   1.958   1.872 -0.1901 -0.1260  0.7575
 3552TIP3    H132071   3.946   2.020   1.943  1.1192  0.5252  0.4823
 3552TIP3    H232072   4.046   1.920   1.890 -0.2632 -0.6473  0.0423
 3553TIP3   OH232073   0.178   3.131   3.742  0.0198 -0.3043 -0.0433
 3553TIP3    H132074   0.122   3.186   3.797 -0.4020 -0.1386 -0.6263
 3553TIP3    H232075   0.215   3.192   3.678  0.3973 -0.5184 -0.0291
 3554TIP3   OH232076   5.199   3.723   1.963 -0.1404 -0.0202 -0.0759
 3554TIP3    H132077   5.221   3.812   1.934 -0.1532  0.3050  0.8843
 3554TIP3    H232078   5.105   3.724   1.976 -0.0242  0.0960  0.8068
 3555TIP3   OH232079   5.615   5.219   0.488 -0.2533  0.4398  0.0180
 3555TIP3    H132080   5.669   5.287   0.448  0.6342  0.2290  0.8171
 3555TIP3    H232081   5.566   5.181   0.415  1.8637 -0.4227 -1.0411
 3556TIP3   OH232082   2.116   4.556  13.548  0.4455 -0.6289 -0.0752
 3556TIP3    H132083   2.047   4.545  13.613 -0.1921  0.2838 -0.5762
 3556TIP3    H232084   2.110   4.477  13.493 -0.1142 -0.6149 -0.0338
 3557TIP3   OH232085   5.499   2.518   1.259 -0.6552  0.1436  0.2545
 3557TIP3    H132086   5.521   2.427   1.275 -3.0454 -0.6584 -0.5373
 3557TIP3    H232087   5.507   2.561   1.344 -1.0645 -1.1639  0.9690
 3558TIP3   OH232088   2.399   0.164   4.969  0.6684  0.1021  0.2540
 3558TIP3    H132089   2.423   0.176   5.061 -0.2666 -1.3288  0.7287
 3558TIP3    H232090   2.359   0.247   4.944 -0.7971 -0.1022  1.7339
 3559TIP3   OH232091   4.441   6.219  10.709 -0.2948  0.6009 -0.4398
 3559TIP3    H132092   4.383   6.250  10.779  0.6960  0.9707  0.2476
 3559TIP3    H232093   4.492   6.149  10.750  1.6250  2.0807 -0.1888
 3560TIP3   OH232094   0.651   2.220  11.640 -0.0961  0.5153 -0.1891
 3560TIP3    H132095   0.701   2.208  11.559  0.4364 -0.0754  0.2231
 3560TIP3    H232096   0.559   2.217  11.612  0.0155 -2.0658 -0.4871
 3561TIP3   OH232097   1.293   4.491  13.383  0.0708  0.2989 -0.2068
 3561TIP3    H132098   1.245   4.488  13.300  0.0299 -0.0127 -0.1729
 3561TIP3    H232099   1.380   4.458  13.361 -0.0160 -0.0236 -0.0772
 3562TIP3   OH232100   2.825   2.468  16.929 -0.3991  0.0281  0.2578
 3562TIP3    H132101   2.889   2.539  16.922 -2.6641  2.1832 -0.2901
 3562TIP3    H232102   2.857   2.414  17.002  1.0123  2.1130  1.3031
 3563TIP3   OH232103   5.098   4.468  16.965  0.1035 -0.6121 -0.0772
 3563TIP3    H132104   5.138   4.505  16.887  0.3099  1.4045  0.9282
 3563TIP3    H232105   5.009   4.447  16.938  0.7465 -1.8758 -1.3745
 3564TIP3   OH232106   4.702   5.084  16.705 -0.2595  0.0094  0.3805
 3564TIP3    H132107   4.679   5.043  16.622 -1.5342  1.8175 -0.1927
 3564TIP3    H232108   4.792   5.056  16.721 -0.3787 -1.2827 -1.0209
 3565TIP3   OH232109   0.427   1.315   6.160 -0.0111 -0.3541 -0.0046
 3565TIP3    H132110   0.491   1.323   6.089  1.1304 -1.3744  0.8718
 3565TIP3    H232111   0.388   1.229   6.149  0.6393 -0.7966  0.9444
 3566TIP3   OH232112   6.137   6.575   1.024 -0.6541 -0.3051 -0.0234
 3566TIP3    H132113   6.200   6.610   1.088  0.4152  0.9169 -1.6593
 3566TIP3    H232114   6.072   6.644   1.015  1.6201  1.6595 -3.4834
 3567TIP3   OH232115   2.634   6.796   0.038 -0.6457 -0.8994  0.3676
 3567TIP3    H132116   2.666   6.884   0.019 -1.8301 -0.7165 -0.8780
 3567TIP3    H232117   2.688   6.739  -0.017  1.3823 -1.2207  2.4914
 3568TIP3   OH232118   5.211   5.254   3.344  0.2071  0.3858 -0.3893
 3568TIP3    H132119   5.287   5.301   3.377  0.4318  0.0795 -0.4584
 3568TIP3    H232120   5.153   5.244   3.420 -0.2203  1.4900 -0.5598
 3569TIP3   OH232121   5.724   6.223   4.733 -0.1845 -0.1345 -0.3342
 3569TIP3    H132122   5.786   6.274   4.786 -1.1637  1.3127 -0.5344
 3569TIP3    H232123   5.760   6.227   4.644  0.7187 -1.3940 -0.0546
 3570TIP3   OH232124   6.145   1.537   5.020  0.0864 -0.0961 -0.1801
 3570TIP3    H132125   6.234   1.502   5.020 -0.2537 -0.9807 -0.6737
 3570TIP3    H232126   6.092   1.468   5.059 -0.3103  0.6641  0.6772
 3571TIP3   OH232127   0.882   4.443  16.035 -0.8754  0.0024 -0.6439
 3571TIP3    H132128   0.904   4.459  15.943 -0.5444  0.2871 -0.5155
 3571TIP3    H232129   0.949   4.490  16.084 -1.0639 -0.1343 -0.2549
 3572TIP3   OH232130   2.099   3.988   1.471 -0.4466 -0.0001  0.4379
 3572TIP3    H132131   2.117   4.080   1.492  2.9729 -0.7430  1.3304
 3572TIP3    H232132   2.116   3.980   1.377  3.1519 -0.3408  0.9768
 3573TIP3   OH232133   4.014   5.503  14.776 -0.1855 -0.2252  0.1701
 3573TIP3    H132134   4.000   5.506  14.871 -0.7788 -1.4465  0.1373
 3573TIP3    H232135   4.084   5.567  14.760 -0.2215  0.1458  1.3961
 3574TIP3   OH232136   5.601   1.225   0.517  0.3416  0.1876 -0.2699
 3574TIP3    H132137   5.614   1.281   0.594 -1.3200  0.9769 -0.5373
 3574TIP3    H232138   5.539   1.273   0.462 -0.9419 -1.7734 -0.6316
 3575TIP3   OH232139   5.499   0.626  15.991 -0.1301  0.0997  0.0565
 3575TIP3    H132140   5.502   0.709  15.944 -1.8150  0.1872  0.0241
 3575TIP3    H232141   5.489   0.652  16.083  1.8348 -0.0789  0.3550
 3576TIP3   OH232142   3.217   2.355  16.722 -0.2483  0.0537 -0.1287
 3576TIP3    H132143   3.293   2.379  16.669 -0.3411 -1.0338 -0.7801
 3576TIP3    H232144   3.142   2.366  16.663 -0.7373  1.9242  0.7444
 3577TIP3   OH232145   2.168   3.074  12.988 -0.3595  0.3525  0.5979
 3577TIP3    H132146   2.193   2.986  13.017 -1.7192 -0.5697 -0.9115
 3577TIP3    H232147   2.110   3.060  12.914  0.9372  2.5777 -0.9648
 3578TIP3   OH232148   2.164   4.123  16.240 -0.0982 -0.0938  0.3484
 3578TIP3    H132149   2.112   4.088  16.167  0.1271  2.0325 -0.9536
 3578TIP3    H232150   2.209   4.048  16.276 -1.1124 -1.4069 -0.9886
 3579TIP3   OH232151   5.254   0.640   3.864 -0.1429  0.0848  0.1736
 3579TIP3    H132152   5.338   0.595   3.849 -0.6130 -0.7272 -0.1054
 3579TIP3    H232153   5.196   0.604   3.797 -1.0837 -0.3912  1.2094
 3580TIP3   OH232154   3.094   0.903   3.560 -0.1435 -0.7228  0.0448
 3580TIP3    H132155   3.076   0.993   3.588 -1.5342 -0.8011 -0.5345
 3580TIP3    H232156   3.171   0.911   3.503 -1.2588  0.3722 -1.3910
 3581TIP3   OH232157   3.798   0.031   4.489 -0.1753  0.6557  0.1010
 3581TIP3    H132158   3.864   0.062   4.428  0.4219 -0.4680  0.1615
 3581TIP3    H232159   3.847  -0.017   4.556 -1.2057 -3.4315 -1.7602
 3582TIP3   OH232160   6.263   3.762  14.830 -0.3353 -0.3030  0.3387
 3582TIP3    H132161   6.171   3.755  14.854 -0.5351  0.0859 -0.2962
 3582TIP3    H232162   6.281   3.856  14.831 -0.2063 -0.3192 -0.4976
 3583TIP3   OH232163   6.027   0.734   1.646 -0.2330 -0.1290  0.3058
 3583TIP3    H132164   6.098   0.671   1.629 -0.0222  0.1553  0.1297
 3583TIP3    H232165   6.014   0.779   1.563 -1.4788 -1.0254 -0.0206
 3584TIP3   OH232166   6.242   2.678  14.019 -0.1899 -0.3979  0.0163
 3584TIP3    H132167   6.201   2.681  14.105  1.2230 -0.3206  0.7201
 3584TIP3    H232168   6.304   2.605  14.024  0.4877  0.1100 -0.6600
 3585TIP3   OH232169   5.352   4.568  12.787  0.2717 -0.3626 -0.2584
 3585TIP3    H132170   5.374   4.476  12.773  0.8197 -0.1333 -1.0167
 3585TIP3    H232171   5.333   4.575  12.880 -2.5939 -1.8261 -0.6323
 3586TIP3   OH232172   3.588   0.015  13.197 -0.1188  0.1093 -0.2738
 3586TIP3    H132173   3.574  -0.065  13.146  1.9343 -0.6029  0.1545
 3586TIP3    H232174   3.540   0.083  13.150  0.7601 -0.7320 -2.5483
 3587TIP3   OH232175   5.947   6.157  12.002  0.0164 -0.4475  0.2233
 3587TIP3    H132176   6.025   6.109  11.972 -0.3908 -0.5396 -0.7173
 3587TIP3    H232177   5.980   6.244  12.025  0.2586 -0.2034 -1.0089
 3588TIP3   OH232178   4.609   3.951  15.118  0.3423  0.2657 -0.3835
 3588TIP3    H132179   4.548   3.889  15.079 -0.4049 -0.1367  1.3613
 3588TIP3    H232180   4.681   3.896  15.150  1.2097  0.6470 -1.6085
 3589TIP3   OH232181   4.987   0.954  11.089 -0.1212 -0.1951 -0.0168
 3589TIP3    H132182   5.082   0.947  11.086 -0.1334 -0.2107 -0.4512
 3589TIP3    H232183   4.963   0.992  11.004 -0.3341  1.7926  0.8650
 3590TIP3   OH232184   2.426   3.300  14.116 -0.6927 -0.4217  0.1105
 3590TIP3    H132185   2.349   3.265  14.072  0.3891 -0.8910 -1.4792
 3590TIP3    H232186   2.432   3.391  14.087 -1.1501 -0.1040  0.9699
 3591TIP3   OH232187   1.245   1.660  12.408  0.0580 -0.4261  0.3846
 3591TIP3    H132188   1.271   1.639  12.498  1.2270 -1.2680 -0.1304
 3591TIP3    H232189   1.251   1.577  12.361 -1.4790 -0.1946 -0.2759
 3592TIP3   OH232190   0.018   5.561  16.299 -0.0148  0.0692 -0.0274
 3592TIP3    H132191  -0.065   5.567  16.252 -0.8082 -0.9496  1.1776
 3592TIP3    H232192   0.075   5.512  16.241 -0.8893 -0.9196 -0.0790
 3593TIP3   OH232193   0.226   0.112  13.596 -0.4387  0.0201 -0.6102
 3593TIP3    H132194   0.166   0.154  13.657 -0.1547 -1.4018  0.6870
 3593TIP3    H232195   0.310   0.110  13.642 -0.2187 -1.0721 -1.0374
 3594TIP3   OH232196   1.387   4.894   1.725  0.0913 -0.2410 -0.4066
 3594TIP3    H132197   1.350   4.982   1.729  1.2434  0.2263  0.6105
 3594TIP3    H232198   1.444   4.895   1.647 -0.2710 -0.2431 -0.6728
 3595TIP3   OH232199   6.294   3.153  15.289 -0.5078 -0.0671 -0.5648
 3595TIP3    H132200   6.263   3.094  15.221 -0.2571  0.3342 -1.0283
 3595TIP3    H232201   6.312   3.236  15.244 -0.1460  0.1418 -0.0506
 3596TIP3   OH232202   6.807   5.254   4.903 -0.0668  0.0764 -0.1893
 3596TIP3    H132203   6.832   5.317   4.970  0.1325 -1.7175  1.5084
 3596TIP3    H232204   6.717   5.229   4.925 -0.0320 -0.4696 -0.6195
 3597TIP3   OH232205   4.706   4.371   5.179 -0.2927 -0.5448 -0.0730
 3597TIP3    H132206   4.799   4.389   5.168 -0.4040  0.2798  0.2495
 3597TIP3    H232207   4.680   4.329   5.098  0.2992 -0.5121 -0.2854
 3598TIP3   OH232208   1.190   5.237  16.382  0.1400  0.5767  0.0204
 3598TIP3    H132209   1.280   5.257  16.358  0.5317 -0.7516  0.2827
 3598TIP3    H232210   1.187   5.247  16.477 -0.3189  1.7924 -0.1078
 3599TIP3   OH232211   2.200   6.090  14.491 -0.4573  0.3770 -0.2799
 3599TIP3    H132212   2.156   6.143  14.425  0.7680  1.3458 -0.3444
 3599TIP3    H232213   2.197   6.143  14.570  1.8367  1.1568 -0.6373
 3600TIP3   OH232214   5.839   3.072  15.410  0.0307  0.3515 -0.2338
 3600TIP3    H132215   5.912   3.125  15.441  0.3108 -0.7413  1.1120
 3600TIP3    H232216   5.838   3.085  15.316  0.3653  2.3483 -0.0056
 3601TIP3   OH232217   5.527   0.876   0.954 -0.3655 -0.2235 -0.1878
 3601TIP3    H132218   5.493   0.948   1.007 -0.3127  0.5946 -1.2410
 3601TIP3    H232219   5.594   0.916   0.899  0.0071 -1.1772 -0.4424
 3602TIP3   OH232220   6.123   4.307   5.534 -0.3075 -0.2764 -0.1145
 3602TIP3    H132221   6.105   4.397   5.561  0.2782  0.0208 -0.7107
 3602TIP3    H232222   6.043   4.279   5.490 -0.2941  0.1316 -0.3995
 3603TIP3   OH232223   4.167   1.779  11.472 -0.0031  0.4099  0.3233
 3603TIP3    H132224   4.239   1.774  11.409 -1.3109  0.8025 -1.2778
 3603TIP3    H232225   4.173   1.868  11.507 -0.3939  0.8472 -0.6839
 3604TIP3   OH232226   5.219   0.952  14.970  0.5409  0.1242  0.0102
 3604TIP3    H132227   5.163   1.015  15.016  0.2278  0.1141 -0.3550
 3604TIP3    H232228   5.244   0.889  15.037  1.2021  0.8680  0.4833
 3605TIP3   OH232229   1.035   1.190  16.922 -0.1070  0.0615  0.2615
 3605TIP3    H132230   0.977   1.114  16.913  0.5915 -0.5566  0.8516
 3605TIP3    H232231   1.120   1.153  16.942  1.0868  0.8040 -2.8503
 3606TIP3   OH232232   4.281   5.776   3.707 -0.1376 -0.0657 -0.2739
 3606TIP3    H132233   4.356   5.723   3.681  1.2462  0.6371  1.9812
 3606TIP3    H232234   4.223   5.715   3.752 -0.8248 -0.5488 -1.7569
 3607TIP3   OH232235   5.278   3.539   3.762 -0.6075 -0.3400  0.4041
 3607TIP3    H132236   5.265   3.507   3.851 -0.3613  0.6485  0.8007
 3607TIP3    H232237   5.351   3.600   3.768 -0.9910  0.2129 -0.3585
 3608TIP3   OH232238   0.859   6.494   2.807 -0.2159  0.3767  0.2163
 3608TIP3    H132239   0.794   6.476   2.876  1.7883 -0.6326  1.9460
 3608TIP3    H232240   0.939   6.517   2.855  1.4074 -0.8772 -1.7454
 3609TIP3   OH232241   5.064   0.574   1.849  0.1946  0.1932  0.1034
 3609TIP3    H132242   5.037   0.611   1.764  0.5863  0.4668  0.0981
 3609TIP3    H232243   4.983   0.573   1.900 -0.0956 -0.1944 -0.3519
 3610TIP3   OH232244   5.967   0.145  15.276  0.4930 -0.4318  0.5960
 3610TIP3    H132245   5.879   0.176  15.300  0.5036 -0.3445  0.5242
 3610TIP3    H232246   5.959   0.120  15.184  0.7890  0.5160  0.3018
 3611TIP3   OH232247   5.539   2.416  13.826 -0.2391  0.1470  0.1399
 3611TIP3    H132248   5.528   2.363  13.905 -0.3969 -2.7214 -1.6495
 3611TIP3    H232249   5.453   2.455  13.811 -0.5597 -0.3303  0.6982
 3612TIP3   OH232250   0.624   6.797   1.107 -0.3334 -0.0885  0.1776
 3612TIP3    H132251   0.700   6.850   1.133 -1.3385  0.6072  1.7853
 3612TIP3    H232252   0.575   6.854   1.047 -1.5030  0.9560  2.0354
 3613TIP3   OH232253   2.126   6.014  10.937  0.0680 -0.2001 -0.3550
 3613TIP3    H132254   2.066   5.985  10.869 -1.2926  0.8218  0.3576
 3613TIP3    H232255   2.146   5.934  10.987  1.5161 -1.0668 -2.1988
 3614TIP3   OH232256   6.440   1.859  11.828  0.5259  0.7921 -0.0190
 3614TIP3    H132257   6.471   1.948  11.810  2.3985 -0.0714 -1.4568
 3614TIP3    H232258   6.479   1.806  11.758 -2.0750 -0.8843 -0.3016
 3615TIP3   OH232259   6.456   5.978  14.869  0.1121  0.0718 -0.2417
 3615TIP3    H132260   6.414   5.893  14.873 -0.2235  0.2048 -0.9593
 3615TIP3    H232261   6.389   6.037  14.835  0.5718  0.4744 -0.4648
 3616TIP3   OH232262   4.229   6.585  14.530  0.1117  0.6010 -0.0725
 3616TIP3    H132263   4.288   6.512  14.548 -0.4999  0.2121  0.3716
 3616TIP3    H232264   4.187   6.603  14.614 -0.5319  0.7585 -0.4211
 3617TIP3   OH232265   2.850   4.207   1.206  0.1207  0.2521  0.2263
 3617TIP3    H132266   2.917   4.138   1.203 -1.6179 -1.5274  0.2133
 3617TIP3    H232267   2.819   4.206   1.297 -1.1853 -0.2811 -0.2114
 3618TIP3   OH232268   0.388   3.831  16.459 -0.1251 -0.5870 -0.1220
 3618TIP3    H132269   0.466   3.801  16.506 -0.2004 -0.7276 -0.0860
 3618TIP3    H232270   0.384   3.775  16.382 -0.1099 -0.4841 -0.1971
 3619TIP3   OH232271   5.345   4.805  16.747 -0.0427  0.1085  0.6833
 3619TIP3    H132272   5.302   4.888  16.767  1.1704  0.9955 -0.2307
 3619TIP3    H232273   5.428   4.808  16.794  1.1335  0.5708 -1.2837
 3620TIP3   OH232274   3.386   6.034  15.249  0.1274  0.3627 -0.0689
 3620TIP3    H132275   3.444   6.102  15.282 -0.9503  0.6103  1.4511
 3620TIP3    H232276   3.299   6.062  15.277 -0.2436 -2.2159  1.7392
 3621TIP3   OH232277   2.367   5.440  11.473 -0.1891 -0.7595 -0.5772
 3621TIP3    H132278   2.302   5.500  11.509  0.6168 -0.9297  1.2763
 3621TIP3    H232279   2.371   5.463  11.380 -2.2978 -0.2224 -0.5905
 3622TIP3   OH232280   2.577   4.608   4.656  0.3146 -0.6093 -0.4045
 3622TIP3    H132281   2.670   4.585   4.650  0.7057  0.1558  1.9450
 3622TIP3    H232282   2.531   4.525   4.650  1.2790 -1.2206  0.3921
 3623TIP3   OH232283   6.758   4.149   4.833  0.0474  0.0490 -0.2268
 3623TIP3    H132284   6.833   4.189   4.788 -0.8961  1.3892 -0.6539
 3623TIP3    H232285   6.772   4.055   4.823  2.8196  0.1204  1.5755
 3624TIP3   OH232286   0.966   6.722  16.310 -0.4794 -0.2984  0.7137
 3624TIP3    H132287   1.008   6.756  16.389  0.1715  0.2768  0.1432
 3624TIP3    H232288   1.034   6.730  16.243 -0.8174 -1.3459  0.2288
 3625TIP3   OH232289   1.465   0.301   5.486 -0.1874 -0.4382 -0.0356
 3625TIP3    H132290   1.462   0.395   5.468  0.0747 -0.4914 -0.3910
 3625TIP3    H232291   1.532   0.292   5.553 -0.5183 -0.3277  0.3091
 3626TIP3   OH232292   5.691   0.003  12.900  0.3773 -0.1098 -0.2627
 3626TIP3    H132293   5.764   0.029  12.957 -0.1338 -0.3396  0.5035
 3626TIP3    H232294   5.727  -0.069  12.849  0.5286 -0.5909  0.5005
 3627TIP3   OH232295   1.193   1.503   2.250 -0.0686 -0.3546  0.8083
 3627TIP3    H132296   1.278   1.537   2.221 -0.4930  1.7321  1.8322
 3627TIP3    H232297   1.215   1.424   2.299  1.3607  0.5201  1.6423
 3628TIP3   OH232298   5.329   2.549  13.261 -0.1347 -0.3389 -0.0321
 3628TIP3    H132299   5.380   2.624  13.232 -0.2290 -0.2032  0.1495
 3628TIP3    H232300   5.389   2.475  13.257  0.2809 -0.0615  0.8416
 3629TIP3   OH232301   1.879   3.347   2.651  0.2746 -0.4781 -0.1775
 3629TIP3    H132302   1.872   3.252   2.640  0.2719 -0.5903  0.7093
 3629TIP3    H232303   1.909   3.358   2.741 -0.7547  0.3961  0.0763
 3630TIP3   OH232304   5.053   3.320  16.997  0.0099  0.0950  0.5491
 3630TIP3    H132305   5.091   3.259  16.932  1.0500 -0.1083  1.3213
 3630TIP3    H232306   4.986   3.268  17.041  0.4668 -0.3113  0.7817
 3631TIP3   OH232307   3.082   4.964  16.704  0.0103 -0.1693 -0.6768
 3631TIP3    H132308   3.030   4.909  16.645 -0.8008 -0.4685  0.2897
 3631TIP3    H232309   3.024   5.037  16.726  0.3359 -0.0128 -0.3198
 3632TIP3   OH232310   4.921   6.613  14.718  0.0259 -0.5101  0.0870
 3632TIP3    H132311   4.908   6.596  14.625  1.4036  2.0897 -0.6559
 3632TIP3    H232312   4.860   6.684  14.739  1.2882  0.4542  0.5915
 3633TIP3   OH232313   6.489   3.173   1.340 -0.3370  0.1970  0.2954
 3633TIP3    H132314   6.536   3.139   1.263  0.7468  0.0447  1.0012
 3633TIP3    H232315   6.396   3.166   1.316 -0.0803 -1.3183 -0.3907
 3634TIP3   OH232316   6.492   1.204   1.449  0.6412 -0.1002  0.5213
 3634TIP3    H132317   6.565   1.180   1.392 -0.1011 -2.1297  0.3239
 3634TIP3    H232318   6.417   1.214   1.390 -0.0301 -1.7702  1.0338
 3635TIP3   OH232319   2.883   3.992   3.981  0.0090  0.3452 -0.2422
 3635TIP3    H132320   2.898   4.086   3.992  0.8919  0.3197 -1.0343
 3635TIP3    H232321   2.932   3.951   4.052  0.3063  0.4473 -0.3880
 3636TIP3   OH232322   3.304   4.033  13.426 -0.5271  0.3904  0.0686
 3636TIP3    H132323   3.306   4.121  13.387 -1.1874  0.9427  1.2235
 3636TIP3    H232324   3.366   4.038  13.499 -0.1678 -0.2770 -0.1838
 3637TIP3   OH232325   0.715   5.905   3.128 -0.2247  0.1370 -0.5754
 3637TIP3    H132326   0.624   5.927   3.148 -0.6429 -1.1391 -0.9599
 3637TIP3    H232327   0.766   5.980   3.159 -1.6041  2.0066 -2.5480
 3638TIP3   OH232328   2.860   4.583   4.200 -0.8534  0.2165 -0.4284
 3638TIP3    H132329   2.827   4.495   4.218 -0.6564  0.3982  1.0043
 3638TIP3    H232330   2.869   4.587   4.105 -1.8198 -0.9570 -0.5941
 3639TIP3   OH232331   6.523   5.731   4.120 -0.1549 -0.1208  0.1236
 3639TIP3    H132332   6.559   5.706   4.035 -1.4946  0.0531 -0.5278
 3639TIP3    H232333   6.588   5.791   4.157  1.3188 -1.6018  0.0567
 3640TIP3   OH232334   1.879   5.904   4.449 -0.1766 -0.3109  0.0393
 3640TIP3    H132335   1.818   5.964   4.492 -0.2900 -0.8030  0.5760
 3640TIP3    H232336   1.829   5.866   4.377  0.2537  1.1076 -1.0474
 3641TIP3   OH232337   2.426   0.277  12.279  0.0295 -0.0950 -0.9049
 3641TIP3    H132338   2.394   0.208  12.221  0.2588  0.2599 -1.4637
 3641TIP3    H232339   2.479   0.231  12.343 -0.6714 -0.5573 -0.6459
 3642TIP3   OH232340   3.781   3.453  13.761 -0.2148 -0.1682  0.8995
 3642TIP3    H132341   3.875   3.457  13.744 -0.2836 -1.5761  0.0385
 3642TIP3    H232342   3.759   3.539  13.797  0.8921  1.2600 -1.5662
 3643TIP3   OH232343   5.649   3.650   0.132  0.2893 -0.8955 -0.3443
 3643TIP3    H132344   5.582   3.596   0.090 -0.5429 -0.1942  0.0549
 3643TIP3    H232345   5.731   3.623   0.090  0.1296 -3.5275  0.8990
 3644TIP3   OH232346   4.986   6.554   3.139  0.7459  0.5890  0.3936
 3644TIP3    H132347   5.068   6.598   3.117  0.6947  0.2881 -0.4191
 3644TIP3    H232348   4.978   6.565   3.234  0.0277  3.5593  0.0681
 3645TIP3   OH232349   5.588   4.186   5.536  0.9189 -0.5311 -0.4892
 3645TIP3    H132350   5.641   4.129   5.592 -0.2137 -1.7517 -0.6132
 3645TIP3    H232351   5.504   4.191   5.581  0.5398 -0.1414 -1.2321
 3646TIP3   OH232352   5.101   0.884   4.965  0.2363  0.3605 -0.1446
 3646TIP3    H132353   5.116   0.915   5.055  0.5180 -0.6332  0.1646
 3646TIP3    H232354   5.028   0.936   4.934 -0.0096  0.5664  0.7458
 3647TIP3   OH232355   6.478   1.808  15.487  0.3555  0.2289 -0.0600
 3647TIP3    H132356   6.493   1.718  15.517  0.0968 -0.2266 -1.2562
 3647TIP3    H232357   6.562   1.837  15.454  0.3742  0.3473  0.0861
 3648TIP3   OH232358   6.364   0.181  15.030 -0.2378  0.1692 -0.0877
 3648TIP3    H132359   6.428   0.194  15.100 -0.1423  0.3124 -0.2004
 3648TIP3    H232360   6.288   0.233  15.057  0.0035  0.6617 -0.3563
 3649TIP3   OH232361   0.745   3.852  16.908 -0.2729 -0.7522  0.2302
 3649TIP3    H132362   0.683   3.878  16.976 -0.9796  1.5225 -1.1418
 3649TIP3    H232363   0.824   3.902  16.927 -1.1083  1.4454 -1.5524
 3650TIP3   OH232364   4.027   4.452  14.230 -0.2242  0.2808  0.6414
 3650TIP3    H132365   4.063   4.496  14.307 -2.2802  2.0213  0.7058
 3650TIP3    H232366   4.041   4.514  14.158 -3.2480  1.2339  0.7413
 3651TIP3   OH232367   3.946   2.010   3.192  0.4016 -0.1454 -0.0352
 3651TIP3    H132368   3.865   2.021   3.143  0.3534 -1.4861 -0.3021
 3651TIP3    H232369   4.015   2.018   3.126  0.3459 -1.7454 -0.3183
 3652TIP3   OH232370   1.466   5.471   2.467  0.1213 -0.5857 -0.1547
 3652TIP3    H132371   1.506   5.552   2.435 -0.8821  0.6899  1.6202
 3652TIP3    H232372   1.480   5.474   2.562 -0.3318 -2.2938 -0.0108
 3653TIP3   OH232373   6.791   1.979  16.608  0.3914 -0.0971 -0.1407
 3653TIP3    H132374   6.762   1.888  16.613  0.3261 -0.0082  1.5138
 3653TIP3    H232375   6.711   2.029  16.588  0.3089 -0.3329 -0.3981
 3654TIP3   OH232376   5.421   1.947   2.589 -0.3686 -0.6307  0.2975
 3654TIP3    H132377   5.416   1.896   2.509  0.8176 -0.1175 -0.1228
 3654TIP3    H232378   5.442   1.884   2.657  3.2628 -0.5199 -0.5426
 3655TIP3   OH232379   3.155   6.762   1.937  0.2241  0.2114 -0.0467
 3655TIP3    H132380   3.079   6.705   1.935  0.4028 -0.0245 -0.3111
 3655TIP3    H232381   3.212   6.723   2.004 -0.0442  0.5975  0.4109
 3656TIP3   OH232382   3.113   1.696   3.620 -0.0671  0.2155  0.5019
 3656TIP3    H132383   3.192   1.686   3.567 -1.1654 -0.3558 -1.1356
 3656TIP3    H232384   3.112   1.788   3.646  0.7587  0.3981 -0.0902
 3657TIP3   OH232385   4.135   3.840   2.165  0.1563  0.8468  0.2302
 3657TIP3    H132386   4.120   3.902   2.236 -0.9208  2.1439 -1.0451
 3657TIP3    H232387   4.051   3.796   2.153  1.2784 -2.1063  2.1171
 3658TIP3   OH232388   3.313   5.108  11.809  0.2258  0.3035  0.0371
 3658TIP3    H132389   3.306   5.063  11.724 -0.5487 -1.4628  0.9734
 3658TIP3    H232390   3.365   5.049  11.863  0.0248  1.0149  1.0325
 3659TIP3   OH232391   6.623   4.274  12.224 -0.4962  0.0209 -0.5822
 3659TIP3    H132392   6.593   4.331  12.295  0.6893  2.0737 -1.6307
 3659TIP3    H232393   6.685   4.214  12.267 -0.0634  0.9919  0.2016
 3660TIP3   OH232394   5.619   1.308  12.957 -0.1101 -0.4781  0.2127
 3660TIP3    H132395   5.570   1.368  13.014 -0.3234 -1.0666  0.6611
 3660TIP3    H232396   5.668   1.365  12.899 -1.0208  0.1342  0.0268
 3661TIP3   OH232397   1.507   3.424  15.717  0.7615 -0.7787  0.6573
 3661TIP3    H132398   1.580   3.395  15.661  1.2527  0.5716  0.5651
 3661TIP3    H232399   1.520   3.519  15.725 -0.2285 -0.7271  1.7494
 3662TIP3   OH232400   6.469   2.402  11.736 -0.2679 -0.6132 -0.5714
 3662TIP3    H132401   6.510   2.386  11.651 -0.0156  0.0731 -0.5833
 3662TIP3    H232402   6.469   2.497  11.746  2.4115 -0.7133  1.5171
 3663TIP3   OH232403   5.314   1.360   4.643 -0.4810 -0.5960 -0.3676
 3663TIP3    H132404   5.351   1.277   4.613  3.4873  0.7754  0.1493
 3663TIP3    H232405   5.318   1.355   4.739 -0.1129  0.2058 -0.3309
 3664TIP3   OH232406   0.480   1.220  16.590  0.0837 -0.0667 -0.0061
 3664TIP3    H132407   0.557   1.218  16.648 -0.9297 -1.5102  1.3843
 3664TIP3    H232408   0.445   1.308  16.600  0.1990 -0.1413  1.2896
 3665TIP3   OH232409   6.469   0.904  12.860 -0.0360  0.6402 -0.4132
 3665TIP3    H132410   6.409   0.975  12.839  0.9880  1.9632  0.9332
 3665TIP3    H232411   6.414   0.826  12.863 -1.3296  1.4924 -1.0843
 3666TIP3   OH232412   2.354   5.912   2.155  0.3349 -0.0474 -0.4328
 3666TIP3    H132413   2.342   5.853   2.080  0.6587 -0.5589 -0.0865
 3666TIP3    H232414   2.445   5.942   2.148  1.4379 -2.5832  1.4916
 3667TIP3   OH232415   2.630   1.558  12.456  0.0659  0.4456 -0.3574
 3667TIP3    H132416   2.719   1.591  12.472 -0.6008  2.5374 -0.6177
 3667TIP3    H232417   2.608   1.592  12.369 -0.5866 -1.0319 -0.7913
 3668TIP3   OH232418   4.332   2.979   0.618  0.0267 -0.3205 -0.1139
 3668TIP3    H132419   4.269   3.016   0.556  0.5800 -2.5562 -2.1880
 3668TIP3    H232420   4.410   3.033   0.609 -1.1786  1.9013  1.7959
 3669TIP3   OH232421   6.732   0.826  14.547 -0.2284  0.0728 -0.0258
 3669TIP3    H132422   6.730   0.905  14.601 -0.9949  0.6958 -0.9416
 3669TIP3    H232423   6.657   0.834  14.489  0.5262 -0.6178 -1.1396
 3670TIP3   OH232424   4.657   3.776  11.198  0.6616  0.6202  0.8348
 3670TIP3    H132425   4.606   3.706  11.239 -3.3226  2.8638  0.1837
 3670TIP3    H232426   4.678   3.742  11.111 -1.5020  0.2548  0.4004
 3671TIP3   OH232427   1.856   0.435   1.529  0.0391 -0.4760  0.3556
 3671TIP3    H132428   1.812   0.519   1.522 -0.1981 -0.4423  1.9579
 3671TIP3    H232429   1.821   0.383   1.456 -2.4194 -0.3385  1.3469
 3672TIP3   OH232430   2.697   2.233  14.231 -0.1995  0.3134 -0.4558
 3672TIP3    H132431   2.784   2.195  14.219  0.6822  2.5534 -1.6494
 3672TIP3    H232432   2.698   2.269  14.320 -0.2997 -0.5549 -0.0932
 3673TIP3   OH232433   1.680   5.671   5.918 -0.0182 -0.1271 -0.4929
 3673TIP3    H132434   1.759   5.631   5.955 -0.4507 -1.0683 -0.5709
 3673TIP3    H232435   1.626   5.692   5.993  1.0734  2.2790 -0.2816
 3674TIP3   OH232436   1.221   5.759  10.911  0.0118 -0.3864  0.4797
 3674TIP3    H132437   1.203   5.845  10.873 -0.9336 -1.1506 -0.8904
 3674TIP3    H232438   1.313   5.763  10.937  0.1440  0.8400 -0.0967
 3675TIP3   OH232439   6.617   0.079   5.088 -0.4716  0.0590 -0.3504
 3675TIP3    H132440   6.655   0.048   5.006 -2.0833 -0.7560 -0.8287
 3675TIP3    H232441   6.583   0.166   5.066  1.6721  1.1438  0.2857
 3676TIP3   OH232442   1.655   2.752  11.769  0.3804  0.4282  0.1453
 3676TIP3    H132443   1.714   2.755  11.693  2.3620  4.3117  1.5520
 3676TIP3    H232444   1.705   2.704  11.835  0.8802  1.3997  0.4954
 3677TIP3   OH232445   0.711   4.787   1.636 -0.6347 -0.5993  0.3927
 3677TIP3    H132446   0.756   4.778   1.720  1.6084  0.3666 -0.6202
 3677TIP3    H232447   0.661   4.868   1.644  0.3249 -0.0072  0.4945
 3678TIP3   OH232448   5.930   4.385   2.327  0.3822 -0.5381  0.1804
 3678TIP3    H132449   5.859   4.380   2.391 -0.4359  1.5227 -0.5081
 3678TIP3    H232450   6.006   4.349   2.373 -0.5868 -0.7737  1.6698
 3679TIP3   OH232451   2.510   3.320  13.447  0.0617 -0.4300 -0.0770
 3679TIP3    H132452   2.564   3.331  13.524 -0.0095 -2.7073  0.3734
 3679TIP3    H232453   2.475   3.231  13.454 -0.5735 -0.4415 -2.3363
 3680TIP3   OH232454   6.318   1.580  13.252  0.2206  0.2610  0.2625
 3680TIP3    H132455   6.324   1.485  13.252 -1.4766  0.0755 -1.7526
 3680TIP3    H232456   6.397   1.610  13.207 -0.4862 -0.4056 -1.5146
 3681TIP3   OH232457   6.297   2.153   0.730  0.3380 -0.5536 -0.8476
 3681TIP3    H132458   6.382   2.185   0.759 -0.9171  1.8427  0.5473
 3681TIP3    H232459   6.278   2.080   0.789  0.3698  0.5485  0.6109
 3682TIP3   OH232460   3.563   5.215   0.027  0.3384 -0.0465 -0.1409
 3682TIP3    H132461   3.614   5.249  -0.046  0.9507 -1.1712 -0.2613
 3682TIP3    H232462   3.529   5.293   0.071 -1.4642  0.6508 -2.5894
 3683TIP3   OH232463   4.157   1.835  15.998  0.5430 -0.0907  0.1552
 3683TIP3    H132464   4.171   1.740  15.998  0.9347 -0.0496  1.3233
 3683TIP3    H232465   4.238   1.871  15.963  0.8948 -0.1469  0.8808
 3684TIP3   OH232466   4.959   4.544  14.673 -0.1256  0.2654 -0.2466
 3684TIP3    H132467   5.053   4.560  14.679  0.5229 -2.7497 -1.0650
 3684TIP3    H232468   4.946   4.457  14.709 -2.6824  0.6643  0.0381
 3685TIP3   OH232469   0.210   3.727   3.664  0.7829 -0.5579 -0.0639
 3685TIP3    H132470   0.240   3.800   3.718  1.8079  0.8957 -2.4294
 3685TIP3    H232471   0.215   3.651   3.721  0.6756  1.0291  2.2012
 3686TIP3   OH232472   2.539   4.445  11.898 -0.2172 -0.3200 -0.4128
 3686TIP3    H132473   2.505   4.373  11.951 -0.2405  0.5332  0.7645
 3686TIP3    H232474   2.617   4.408  11.855 -0.1543 -1.0147  0.2726
 3687TIP3   OH232475   1.441   1.677   1.832 -0.0100  0.2870  0.3156
 3687TIP3    H132476   1.474   1.701   1.919 -0.3852  0.2641  0.4705
 3687TIP3    H232477   1.514   1.692   1.773  0.2261  0.3779  0.6272
 3688TIP3   OH232478   3.718   3.315   0.889  0.7550 -0.3940 -0.6685
 3688TIP3    H132479   3.698   3.223   0.909 -1.1314 -0.0520 -0.7809
 3688TIP3    H232480   3.632   3.357   0.879  1.5770  1.2345 -1.3579
 3689TIP3   OH232481   3.863   5.750   3.881 -0.0365  0.5824 -1.2888
 3689TIP3    H132482   3.797   5.697   3.928  0.4149  2.1107  1.2811
 3689TIP3    H232483   3.944   5.736   3.931  0.4572  2.3897 -1.5288
 3690TIP3   OH232484   0.037   6.342  10.252 -0.8290  0.6203 -0.5258
 3690TIP3    H132485  -0.046   6.376  10.218  0.1903  0.5851 -3.2186
 3690TIP3    H232486   0.081   6.419  10.289 -1.4597  0.8872 -0.3159
 3691TIP3   OH232487   3.624   0.263  13.471 -0.0663 -0.5669  0.2733
 3691TIP3    H132488   3.705   0.234  13.430 -0.8949 -1.2788 -0.9091
 3691TIP3    H232489   3.642   0.353  13.499  0.2976  0.2588 -2.3917
 3692TIP3   OH232490   6.197   4.066   2.425 -0.0913 -0.7576  0.7040
 3692TIP3    H132491   6.157   4.000   2.482  1.1177 -0.6817  1.6921
 3692TIP3    H232492   6.221   4.018   2.346 -4.2961 -0.3121 -1.0566
 3693TIP3   OH232493   2.654   1.171   3.262 -0.1153 -0.1384  0.0117
 3693TIP3    H132494   2.607   1.249   3.290  1.5440  0.5353  1.0325
 3693TIP3    H232495   2.660   1.117   3.341  0.7192 -0.2429 -0.1097
 3694TIP3   OH232496   0.679   1.563  14.617 -0.4386  0.1794  0.3733
 3694TIP3    H132497   0.749   1.500  14.630 -0.1938  0.4375  0.3118
 3694TIP3    H232498   0.671   1.572  14.522 -0.7399 -0.0528  0.3736
 3695TIP3   OH232499   1.724   0.003  16.313 -0.0787 -0.1176 -0.1288
 3695TIP3    H132500   1.739   0.073  16.250  0.0032  0.7643  0.8443
 3695TIP3    H232501   1.754   0.039  16.396  0.6426 -1.5799  0.2730
 3696TIP3   OH232502   6.426   1.712   3.874  0.6393  0.4478 -0.4330
 3696TIP3    H132503   6.370   1.699   3.951  1.6883 -0.8585  0.1460
 3696TIP3    H232504   6.381   1.663   3.805  1.8181 -2.0691  0.4398
 3697TIP3   OH232505   5.786   3.273  13.369 -0.2115  1.0446  0.5594
 3697TIP3    H132506   5.744   3.222  13.437 -1.5524  2.9341  1.2094
 3697TIP3    H232507   5.858   3.318  13.413  0.1237  0.7908  0.2829
 3698TIP3   OH232508   3.220   5.668  15.540 -0.4234  1.0655 -0.3258
 3698TIP3    H132509   3.198   5.761  15.529  2.3924  1.8825  0.2833
 3698TIP3    H232510   3.202   5.650  15.633 -0.0170  1.2930 -0.2008
 3699TIP3   OH232511   0.916   1.351  16.701 -0.4363 -0.0315 -0.7643
 3699TIP3    H132512   0.833   1.304  16.695  0.5658 -2.2715  1.2260
 3699TIP3    H232513   0.939   1.348  16.794  0.8559  2.4565 -0.9155
 3700TIP3   OH232514   1.518   4.953  11.552 -0.2935  0.3943  0.0015
 3700TIP3    H132515   1.580   4.880  11.551  0.9317  1.3770  0.5339
 3700TIP3    H232516   1.467   4.941  11.632  0.3460  0.4702  0.4255
 3701TIP3   OH232517   2.098   6.327  16.891  0.2296 -0.0645  0.0634
 3701TIP3    H132518   2.090   6.421  16.876  2.0290  0.6127  2.6861
 3701TIP3    H232519   2.147   6.295  16.814  1.9319  1.6563  0.3555
 3702TIP3   OH232520   1.308   5.057  14.837  0.0247 -0.0718  0.1636
 3702TIP3    H132521   1.301   5.152  14.850 -0.1797 -0.0338 -0.2137
 3702TIP3    H232522   1.261   5.020  14.911 -1.1266  0.1463 -0.4324
 3703TIP3   OH232523   5.985   2.277  15.825  0.2860 -0.2029  0.3660
 3703TIP3    H132524   5.988   2.372  15.816 -1.4046 -0.2688 -1.3122
 3703TIP3    H232525   6.016   2.244  15.741 -1.8757 -1.0589 -0.1584
 3704TIP3   OH232526   6.624   3.978   5.668  0.3694 -0.4806 -0.0231
 3704TIP3    H132527   6.578   3.896   5.686 -0.7085 -0.2418 -1.5593
 3704TIP3    H232528   6.716   3.957   5.682 -0.0551 -1.2486  2.1009
 3705TIP3   OH232529   4.346   3.325   2.262 -0.2510  0.2526  0.1575
 3705TIP3    H132530   4.425   3.375   2.284  1.6697 -1.8543 -1.5118
 3705TIP3    H232531   4.337   3.336   2.167  0.1834 -2.3590 -0.2500
 3706TIP3   OH232532   2.879   5.556   5.885 -0.6369  0.0993 -0.4660
 3706TIP3    H132533   2.837   5.570   5.970 -1.5159 -0.0712 -0.8599
 3706TIP3    H232534   2.924   5.472   5.894  2.9951  2.0080  1.2533
 3707TIP3   OH232535   1.518   3.085  12.997 -0.0395 -0.2210  0.0820
 3707TIP3    H132536   1.564   3.041  13.068  3.0712  2.5171 -0.0003
 3707TIP3    H232537   1.506   3.175  13.029 -0.8982  0.4080 -1.8865
 3708TIP3   OH232538   3.034   6.360  13.644  0.4809  0.6740 -0.7688
 3708TIP3    H132539   2.998   6.360  13.732  1.3963  2.1886 -0.3641
 3708TIP3    H232540   3.129   6.363  13.656  0.6007  2.1212 -1.7581
 3709TIP3   OH232541   5.964   0.959  12.986 -0.0545 -0.1022  0.2268
 3709TIP3    H132542   5.952   0.868  13.015 -0.0314 -1.0895 -2.4759
 3709TIP3    H232543   5.880   0.982  12.945  0.0921  0.9363  0.4846
 3710TIP3   OH232544   4.155   4.014  13.006 -0.0663  0.0843 -0.7183
 3710TIP3    H132545   4.240   4.037  13.044 -0.9196  1.1681  0.6178
 3710TIP3    H232546   4.141   4.078  12.937  1.4154 -1.7932 -2.9261
 3711TIP3   OH232547   2.877   1.401   4.033 -0.2673 -0.3332 -0.2586
 3711TIP3    H132548   2.936   1.335   3.995 -0.9129  0.2940 -2.4554
 3711TIP3    H232549   2.887   1.478   3.977 -0.9919  0.7888  1.1016
 3712TIP3   OH232550   2.674   1.218   4.885  0.1598  0.1251 -0.0135
 3712TIP3    H132551   2.732   1.275   4.834  1.4504 -1.1260 -0.0214
 3712TIP3    H232552   2.680   1.252   4.974  0.5101  0.3372 -0.1141
 3713TIP3   OH232553   2.025   1.427  14.360  0.1345  0.0626  0.0873
 3713TIP3    H132554   1.960   1.497  14.351 -0.9836 -0.7003  1.7474
 3713TIP3    H232555   2.069   1.447  14.443 -0.3966 -1.3267  0.7253
 3714TIP3   OH232556   1.607   3.839  14.904 -0.3720  0.6268 -0.9655
 3714TIP3    H132557   1.526   3.872  14.941  0.8464  1.1333  1.4815
 3714TIP3    H232558   1.581   3.795  14.823 -3.0343  0.8055 -0.2890
 3715TIP3   OH232559   2.610   1.518   4.324 -0.1804 -0.4436  0.0762
 3715TIP3    H132560   2.568   1.603   4.316  0.4271 -0.0549  0.9374
 3715TIP3    H232561   2.607   1.498   4.418 -0.8076 -1.6258 -0.1768
 3716TIP3   OH232562   0.262   1.483   0.187  0.2293 -0.3921  0.8633
 3716TIP3    H132563   0.291   1.424   0.117 -1.1287 -0.3185  0.2049
 3716TIP3    H232564   0.234   1.426   0.258 -2.1100 -0.6444 -0.1799
 3717TIP3   OH232565   5.963   2.150  12.528  0.1538  0.2100  0.1717
 3717TIP3    H132566   5.936   2.159  12.619 -1.7315 -1.3638 -0.1540
 3717TIP3    H232567   5.914   2.218  12.482 -0.0166  0.0757  0.1522
 3718TIP3   OH232568   5.681   1.097   4.357 -0.8953  0.0176  0.0834
 3718TIP3    H132569   5.764   1.117   4.399 -1.0095 -0.9106  0.7914
 3718TIP3    H232570   5.676   1.156   4.282  1.3477 -1.3031 -1.1917
 3719TIP3   OH232571   6.610   2.565   5.025 -0.1758 -0.4134  0.2080
 3719TIP3    H132572   6.578   2.603   4.943  2.0760 -1.8495 -1.4487
 3719TIP3    H232573   6.674   2.629   5.057 -0.4442 -0.2475  0.4214
 3720TIP3   OH232574   2.671   2.656   2.653 -0.4243 -0.4168  0.0557
 3720TIP3    H132575   2.747   2.628   2.704 -0.2424  0.4123  0.2610
 3720TIP3    H232576   2.613   2.697   2.718 -0.0636  0.9055 -0.4208
 3721TIP3   OH232577   0.482   5.040  11.035 -0.3981  0.0797 -0.1798
 3721TIP3    H132578   0.409   5.068  11.091 -0.3779  1.5081 -0.8158
 3721TIP3    H232579   0.517   5.122  10.999  1.3664 -0.6094 -0.0940
 3722TIP3   OH232580   3.983   2.750   3.024 -0.2212  0.8870  0.1869
 3722TIP3    H132581   3.931   2.777   3.099  0.4178 -0.8440  1.2991
 3722TIP3    H232582   3.919   2.737   2.954 -1.1578 -0.0868  1.1906
 3723TIP3   OH232583   1.634   5.506  16.298  0.3997  0.3028 -0.0904
 3723TIP3    H132584   1.563   5.481  16.239  1.8090 -2.5302 -0.7542
 3723TIP3    H232585   1.682   5.574  16.250 -0.9585  1.2009 -0.2426
 3724TIP3   OH232586   4.152   2.494   5.942  0.1891 -0.1542 -0.1649
 3724TIP3    H132587   4.134   2.537   5.859 -1.6974 -0.3435  0.1068
 3724TIP3    H232588   4.244   2.515   5.960  0.3764  0.6350 -1.8318
 3725TIP3   OH232589   2.855   4.010   6.027 -0.0947 -0.4468  0.4228
 3725TIP3    H132590   2.860   4.006   6.122 -1.1295  1.8654  0.6526
 3725TIP3    H232591   2.843   4.103   6.008 -0.3810 -0.9048 -1.9534
 3726TIP3   OH232592   4.047   2.970   6.114  0.0596  0.4418  0.4821
 3726TIP3    H132593   4.092   3.034   6.170 -0.1010  1.1504 -0.1773
 3726TIP3    H232594   3.956   2.972   6.144 -0.7077  3.0252 -1.6593
 3727TIP3   OH232595   6.687   5.033   5.209  0.2182  0.7340  0.3046
 3727TIP3    H132596   6.644   5.111   5.245  1.3019  0.2188  2.9186
 3727TIP3    H232597   6.770   5.065   5.173  0.2247  0.9185  0.4838
 3728TIP3   OH232598   5.378   0.534  14.767  0.1867 -0.0513  0.3623
 3728TIP3    H132599   5.286   0.559  14.757  0.1045  0.4474  2.0345
 3728TIP3    H232600   5.379   0.439  14.752 -0.6167 -0.0716  0.3978
 3729TIP3   OH232601   5.801   2.141   5.435  0.2520  0.2065 -0.0491
 3729TIP3    H132602   5.732   2.076   5.448  0.1041  0.1113 -1.1697
 3729TIP3    H232603   5.879   2.089   5.414  0.4826  0.3433  0.4576
 3730TIP3   OH232604   5.992   6.473   3.365  0.4866  0.1353 -0.2148
 3730TIP3    H132605   6.053   6.400   3.354  1.0954  0.8439 -1.7785
 3730TIP3    H232606   5.961   6.464   3.456  0.6768 -1.9252 -0.3007
 3731TIP3   OH232607   4.416   5.664   5.160  0.0211 -0.3140 -0.3474
 3731TIP3    H132608   4.343   5.604   5.143  0.5150 -1.0028 -0.0909
 3731TIP3    H232609   4.441   5.646   5.251 -0.1156  0.6174 -0.1086
 3732TIP3   OH232610   0.309   5.804   1.519  0.0703 -0.2426 -0.0867
 3732TIP3    H132611   0.370   5.768   1.583  0.0831 -1.3916 -0.7128
 3732TIP3    H232612   0.272   5.880   1.562  1.3638  0.0325  0.6144
 3733TIP3   OH232613   4.248   4.913   3.424  0.6663  0.2494 -0.4665
 3733TIP3    H132614   4.279   4.987   3.372  1.7489 -1.2690 -2.1197
 3733TIP3    H232615   4.311   4.906   3.496 -1.1385  2.6920  1.5100
 3734TIP3   OH232616   4.613   2.102   6.376  0.3133 -0.1395  0.2056
 3734TIP3    H132617   4.592   2.031   6.437  1.6131  0.0194  0.8616
 3734TIP3    H232618   4.588   2.182   6.423 -2.2520 -0.1483 -0.9797
 3735TIP3   OH232619   6.481   3.385   2.114  0.1530  0.7882  0.1380
 3735TIP3    H132620   6.530   3.401   2.033 -0.8283  1.7571 -0.3098
 3735TIP3    H232621   6.477   3.471   2.156  1.4352  0.1232  1.7145
 3736TIP3   OH232622   6.311   2.659   1.755  0.4360  0.0622  0.6225
 3736TIP3    H132623   6.291   2.736   1.701  1.8603 -1.0416 -1.6666
 3736TIP3    H232624   6.248   2.593   1.725  1.3297 -0.6040  0.1510
 3737TIP3   OH232625   3.696   3.880   0.253 -0.3480  0.2111 -0.2876
 3737TIP3    H132626   3.686   3.841   0.340  0.4789  0.1370 -0.2209
 3737TIP3    H232627   3.715   3.972   0.270  1.2046 -0.0808 -0.3333
 3738TIP3   OH232628   3.608   0.289  16.662 -0.5245  0.2750 -0.6567
 3738TIP3    H132629   3.522   0.324  16.637 -0.7785 -1.4042 -2.3016
 3738TIP3    H232630   3.658   0.366  16.690 -2.0835  1.4801 -1.0390
 3739TIP3   OH232631   6.181   0.824  11.870  0.5942 -0.1067 -0.7140
 3739TIP3    H132632   6.102   0.856  11.826 -0.1959 -1.3236 -0.2425
 3739TIP3    H232633   6.234   0.903  11.885 -0.2577  0.6552 -1.5623
 3740TIP3   OH232634   5.314   1.175  13.471 -0.0019 -0.3973  0.2579
 3740TIP3    H132635   5.306   1.208  13.561  0.6737 -0.0938  0.2135
 3740TIP3    H232636   5.395   1.124  13.472  2.0736  2.5423 -1.0132
 3741TIP3   OH232637   4.062   2.768  14.694 -0.0110  0.3010  0.0825
 3741TIP3    H132638   3.975   2.804  14.672  0.0616  0.8523  0.6636
 3741TIP3    H232639   4.092   2.822  14.767  1.1317  0.5799 -0.5765
 3742TIP3   OH232640   4.938   1.881   4.433  0.0442  0.0517 -0.3393
 3742TIP3    H132641   4.928   1.798   4.481 -1.2606  0.6434  0.4694
 3742TIP3    H232642   4.871   1.938   4.470  0.7202  1.3845 -1.1021
 3743TIP3   OH232643   2.717   4.462  16.109 -0.1644  0.2129  0.7258
 3743TIP3    H132644   2.700   4.396  16.175  2.2008  0.6185  1.8295
 3743TIP3    H232645   2.701   4.418  16.026 -2.1191 -0.6290  1.5021
 3744TIP3   OH232646   2.599   3.753  12.202 -0.2774 -0.2068  0.0812
 3744TIP3    H132647   2.676   3.762  12.258 -0.2007  0.1953 -0.0810
 3744TIP3    H232648   2.524   3.764  12.261 -0.1989  1.8776 -0.1132
 3745TIP3   OH232649   6.087   4.562   2.994  0.0905 -0.0973 -0.1246
 3745TIP3    H132650   6.163   4.565   3.052  0.3789  0.0298 -0.5051
 3745TIP3    H232651   6.119   4.596   2.911  0.5182 -3.2003 -1.3513
 3746TIP3   OH232652   0.159   2.194  12.257 -0.1162  0.0071  0.3640
 3746TIP3    H132653   0.143   2.279  12.216 -1.3591 -0.2242  0.3324
 3746TIP3    H232654   0.229   2.154  12.204  0.2539  0.8691  0.1962
 3747TIP3   OH232655   5.835   4.419  13.051  0.7777 -0.5909  0.4772
 3747TIP3    H132656   5.804   4.469  12.975 -2.1268  0.3057  2.0995
 3747TIP3    H232657   5.906   4.365  13.017  0.1081  0.3309 -2.6791
 3748TIP3   OH232658   1.429   1.101   2.443  0.7383  0.3021 -0.3065
 3748TIP3    H132659   1.446   1.048   2.521 -0.1479  0.9922  0.3808
 3748TIP3    H232660   1.513   1.104   2.397  1.5268  0.6452  1.1000
 3749TIP3   OH232661   0.458   3.161   4.192  0.0248 -0.1420 -0.1925
 3749TIP3    H132662   0.408   3.156   4.274 -0.9844 -2.5446 -0.8599
 3749TIP3    H232663   0.437   3.247   4.157 -1.6322 -0.0710  0.8358
 3750TIP3   OH232664   5.697   4.699  11.764 -0.8080 -0.0668  0.1006
 3750TIP3    H132665   5.764   4.690  11.832  0.1321 -0.2224 -0.8273
 3750TIP3    H232666   5.746   4.700  11.682 -1.9473 -0.1383 -0.5968
 3751TIP3   OH232667   0.690   4.059   0.574 -0.4398 -0.4717 -0.5291
 3751TIP3    H132668   0.605   4.098   0.556 -1.8328 -2.4865  1.2350
 3751TIP3    H232669   0.693   3.980   0.520 -0.6103 -1.4863  0.8852
 3752TIP3   OH232670   4.067   1.005  16.133  0.2374 -0.0762  0.0044
 3752TIP3    H132671   4.158   1.005  16.103 -0.2573 -0.4340 -1.5509
 3752TIP3    H232672   4.020   1.057  16.068 -0.3600  1.9353  1.9170
 3753TIP3   OH232673   5.751   5.444  11.116  0.0835  0.5260  0.1001
 3753TIP3    H132674   5.684   5.423  11.180  0.1907  1.2426  0.4608
 3753TIP3    H232675   5.704   5.445  11.032 -0.5666  1.8808  0.4466
 3754TIP3   OH232676   0.156   4.208   0.090  0.5788 -0.0351  0.0010
 3754TIP3    H132677   0.213   4.176   0.021  1.2996 -0.2382  0.6729
 3754TIP3    H232678   0.207   4.197   0.170 -0.0980  0.5356  0.5233
 3755TIP3   OH232679   0.545   3.681   3.975 -0.1788 -0.1525 -0.5476
 3755TIP3    H132680   0.523   3.596   4.014  3.3392 -0.2031  1.7481
 3755TIP3    H232681   0.554   3.662   3.881 -2.6695 -1.4863 -0.5982
 3756TIP3   OH232682   4.292   3.337  12.886  0.2213  0.3929 -0.3293
 3756TIP3    H132683   4.298   3.246  12.917 -0.6973  0.7319  0.9334
 3756TIP3    H232684   4.236   3.332  12.809 -0.6145 -0.0052  0.2854
 3757TIP3   OH232685   5.091   2.080   2.926 -0.3946  0.2594  0.4579
 3757TIP3    H132686   5.125   2.000   2.967 -1.4702 -1.4326 -1.7217
 3757TIP3    H232687   4.996   2.073   2.933 -0.5161  2.4179  2.0006
 3758TIP3   OH232688   0.024   2.552  13.732  0.1161 -0.4457  0.0912
 3758TIP3    H132689   0.068   2.586  13.654  0.1173 -1.9335 -0.5888
 3758TIP3    H232690  -0.061   2.595  13.733  0.0773 -0.4823 -0.8073
 3759TIP3   OH232691   5.084   5.643  11.058 -0.5433  0.0384 -0.0287
 3759TIP3    H132692   5.106   5.621  11.148 -0.2586 -1.8447 -0.5212
 3759TIP3    H232693   5.076   5.559  11.013 -0.8558  0.9168 -1.7298
 3760TIP3   OH232694   5.098   2.898   0.892  1.2048 -0.0073  0.0812
 3760TIP3    H132695   5.060   2.984   0.911  0.6643  0.3196 -2.1559
 3760TIP3    H232696   5.100   2.894   0.797  2.5299 -1.9310  0.1446
 3761TIP3   OH232697   4.938   6.718  11.486  0.5218 -0.4944  0.1239
 3761TIP3    H132698   5.014   6.664  11.508  1.4317  0.2066 -1.1777
 3761TIP3    H232699   4.943   6.730  11.392  0.9637  2.6732  0.4363
 3762TIP3   OH232700   6.081   2.466  12.212 -0.1237  0.0366 -0.1648
 3762TIP3    H132701   6.098   2.540  12.155 -1.7504 -0.3911 -1.2859
 3762TIP3    H232702   6.094   2.499  12.300  2.8604  0.6173 -0.7117
 3763TIP3   OH232703   1.982   2.282  14.217 -0.1573  0.2063  0.0034
 3763TIP3    H132704   2.003   2.269  14.310  0.8091 -0.0571 -0.2362
 3763TIP3    H232705   1.907   2.340  14.217 -1.7019 -1.6604  1.0120
 3764TIP3   OH232706   5.488   1.816   1.695  0.1406  0.2407  0.3758
 3764TIP3    H132707   5.510   1.779   1.609 -1.4785 -0.5261  0.2382
 3764TIP3    H232708   5.491   1.741   1.755  1.5005  0.8171  1.0683
 3765TIP3   OH232709   0.867   4.272  10.194  0.3407  0.2805  0.0861
 3765TIP3    H132710   0.938   4.222  10.234  0.3537 -1.0367 -1.5166
 3765TIP3    H232711   0.891   4.280  10.102 -1.2869  0.3302 -0.3697
 3766TIP3   OH232712   2.095   5.809  12.659  0.2369 -0.2226 -0.3503
 3766TIP3    H132713   2.057   5.824  12.572 -0.0704 -0.2431 -0.2189
 3766TIP3    H232714   2.037   5.856  12.719  1.0123  0.6349 -0.2549
 3767TIP3   OH232715   3.665   3.510  15.746  0.0762 -0.2856  0.3317
 3767TIP3    H132716   3.741   3.453  15.761  0.0039 -0.1430  1.2895
 3767TIP3    H232717   3.603   3.454  15.698 -0.1420 -1.1587  1.5803
 3768TIP3   OH232718   4.330   6.020   0.631  0.5796 -0.0929 -0.8168
 3768TIP3    H132719   4.301   6.046   0.543 -0.9562 -0.0106 -0.3205
 3768TIP3    H232720   4.334   6.101   0.680 -2.2602 -0.4533  0.1831
 3769TIP3   OH232721   1.142   3.926   4.708  0.4199  0.2915  0.0909
 3769TIP3    H132722   1.075   3.935   4.775  0.6604 -0.3037  0.4170
 3769TIP3    H232723   1.225   3.922   4.756  0.5565 -0.6676 -0.1903
 3770TIP3   OH232724   3.854   2.151   4.089  0.0522 -0.3369  0.0033
 3770TIP3    H132725   3.940   2.192   4.082  0.1724 -0.6522 -0.3997
 3770TIP3    H232726   3.860   2.094   4.165  1.0351 -2.3144 -1.4617
 3771TIP3   OH232727   2.826   1.843  11.370  0.0819 -0.4716  0.0574
 3771TIP3    H132728   2.834   1.771  11.307 -0.7840 -0.6932  0.1956
 3771TIP3    H232729   2.840   1.801  11.455 -0.6569 -0.5327  0.1567
 3772TIP3   OH232730   0.404   5.883   0.839  0.0178  0.2620  0.4141
 3772TIP3    H132731   0.454   5.808   0.871  0.8523  1.0319  0.9682
 3772TIP3    H232732   0.339   5.845   0.780  0.6483 -0.8625  0.4109
 3773TIP3   OH232733   6.492   5.272  13.871  0.2927 -0.1416 -0.2218
 3773TIP3    H132734   6.422   5.261  13.806 -0.7262 -0.1324  0.8509
 3773TIP3    H232735   6.447   5.292  13.952  1.5352 -0.5749  0.6007
 3774TIP3   OH232736   5.510   0.347  15.159 -0.2385 -0.6455 -0.3959
 3774TIP3    H132737   5.567   0.325  15.233 -0.1007 -2.2837 -0.9365
 3774TIP3    H232738   5.460   0.423  15.189 -0.0236 -1.1264  1.3056
 3775TIP3   OH232739   2.438   5.615  10.955 -0.0659 -0.0185  0.1515
 3775TIP3    H132740   2.415   5.545  10.895 -0.6244 -0.7047  1.1274
 3775TIP3    H232741   2.533   5.616  10.957 -0.0501 -0.9591  0.3414
 3776TIP3   OH232742   2.385   0.298  14.904 -0.6794  0.2754 -0.1270
 3776TIP3    H132743   2.450   0.286  14.974 -1.1699  1.2162  0.5197
 3776TIP3    H232744   2.397   0.389  14.876 -1.4073  0.3160 -0.3304
 3777TIP3   OH232745   4.957   1.518   0.731  0.4831  0.1595  0.3846
 3777TIP3    H132746   4.983   1.503   0.822 -0.2378  1.0884  0.7671
 3777TIP3    H232747   4.955   1.431   0.692  0.7429 -0.2603  1.2803
 3778TIP3   OH232748   6.721   3.621   4.870 -0.0306  0.3170 -0.4402
 3778TIP3    H132749   6.772   3.673   4.932  0.4715 -1.0669  0.3598
 3778TIP3    H232750   6.785   3.559   4.833 -0.9402 -0.9072 -0.0316
 3779TIP3   OH232751   5.992   4.297   3.267 -0.2435 -0.6055  0.3016
 3779TIP3    H132752   6.067   4.238   3.264  0.7055  0.5881 -0.5166
 3779TIP3    H232753   5.918   4.243   3.237  0.3109 -1.7257  0.8695
 3780TIP3   OH232754   4.103   5.475   0.035 -0.1772 -0.3207 -0.1132
 3780TIP3    H132755   4.103   5.409   0.104  1.1818  0.4361  0.6462
 3780TIP3    H232756   4.175   5.451  -0.023 -0.2081  0.0179 -0.2976
 3781TIP3   OH232757   1.197   4.488  13.121  0.6505 -0.4496 -0.1881
 3781TIP3    H132758   1.138   4.440  13.063 -0.6241  0.1247  0.6098
 3781TIP3    H232759   1.284   4.471  13.085  0.0373 -1.5154 -1.2382
 3782TIP3   OH232760   1.919   5.296   0.636  0.6214  0.2935  0.1393
 3782TIP3    H132761   1.948   5.386   0.648 -0.1739  0.6158 -0.2980
 3782TIP3    H232762   1.983   5.257   0.576  2.5976 -0.2941  2.4518
 3783TIP3   OH232763   3.666   1.614  10.734 -0.0455 -0.5230 -0.4403
 3783TIP3    H132764   3.680   1.603  10.640 -0.7067 -1.6190 -0.4137
 3783TIP3    H232765   3.602   1.547  10.758  1.3917 -1.4188  1.1156
 3784TIP3   OH232766   2.125   3.240   1.058 -0.3774 -0.2122 -0.3987
 3784TIP3    H132767   2.164   3.221   0.973 -2.4225 -0.6390 -1.3010
 3784TIP3    H232768   2.184   3.304   1.098  1.5118 -1.2713 -1.4025
 3785TIP3   OH232769   5.512   4.436  11.576 -0.1836  0.6309 -0.2705
 3785TIP3    H132770   5.474   4.401  11.657 -0.0275  0.3075 -0.3377
 3785TIP3    H232771   5.468   4.520  11.564 -0.6289  0.4172 -0.1584
 3786TIP3   OH232772   4.794   6.248   5.193 -0.5028  0.0002 -0.1034
 3786TIP3    H132773   4.704   6.255   5.224  0.1712  1.4858  1.6576
 3786TIP3    H232774   4.847   6.282   5.264  1.4921 -0.8920 -1.0806
 3787TIP3   OH232775   0.086   2.993   2.073  0.6551  0.3440 -0.1489
 3787TIP3    H132776   0.111   2.912   2.117  1.0274  0.5416  0.0088
 3787TIP3    H232777  -0.002   2.976   2.040 -0.2284  0.6587  1.8871
 3788TIP3   OH232778   1.812   4.957   4.283  0.0929  0.3466 -0.1494
 3788TIP3    H132779   1.767   5.039   4.303  0.1306  0.0255  1.3496
 3788TIP3    H232780   1.745   4.902   4.243 -0.4387  0.4408  0.5877
 3789TIP3   OH232781   3.408   1.578  10.398 -0.3716 -0.0983  0.0173
 3789TIP3    H132782   3.379   1.654  10.450 -0.2400 -0.0134 -0.0322
 3789TIP3    H232783   3.501   1.569  10.420 -0.7993 -1.4133  1.4819
 3790TIP3   OH232784   1.791   5.456  11.741  0.1342  0.1369  0.7594
 3790TIP3    H132785   1.696   5.444  11.742  0.2237 -0.5948  0.7715
 3790TIP3    H232786   1.815   5.451  11.648  0.2973 -0.8380  0.8450
 3791TIP3   OH232787   2.902   2.915  16.070  0.2807 -0.1550 -0.3437
 3791TIP3    H132788   2.932   2.998  16.108 -0.6446 -0.6492  1.6115
 3791TIP3    H232789   2.878   2.937  15.980 -3.1258  2.6070  0.9832
 3792TIP3   OH232790   2.757   3.699   0.901 -0.3009  0.2150  0.0472
 3792TIP3    H132791   2.694   3.757   0.943 -0.4098  0.5634 -0.5820
 3792TIP3    H232792   2.713   3.669   0.821  0.3307  0.4757 -0.4096
 3793TIP3   OH232793   1.999   3.769  16.521  0.2124 -0.2622 -0.5800
 3793TIP3    H132794   2.052   3.806  16.591  0.6142  0.3040 -1.1725
 3793TIP3    H232795   2.041   3.685  16.501 -0.1470 -0.6165  0.1281
 3794TIP3   OH232796   4.281   4.677   6.327  0.4565  0.2669 -0.0514
 3794TIP3    H132797   4.366   4.643   6.354 -0.3228 -2.3383 -0.6027
 3794TIP3    H232798   4.220   4.604   6.341 -1.5554  1.7767 -0.4271
 3795TIP3   OH232799   3.628   1.525  13.226 -0.5106  0.1695 -0.3255
 3795TIP3    H132800   3.653   1.558  13.139 -1.3175 -0.2556 -0.7357
 3795TIP3    H232801   3.632   1.430  13.218  0.0318  0.1299  0.3063
 3796TIP3   OH232802   1.996   3.426  15.617 -0.2452 -0.3093 -0.3461
 3796TIP3    H132803   1.993   3.337  15.650  0.2249  0.0438  0.6781
 3796TIP3    H232804   2.075   3.464  15.655 -0.6991  0.6995 -0.3650
 3797TIP3   OH232805   0.533   2.189  12.242 -0.1003  0.3421 -0.1316
 3797TIP3    H132806   0.528   2.155  12.332 -1.1812  0.1614 -0.2443
 3797TIP3    H232807   0.594   2.262  12.248  0.3806 -0.1020  0.6108
 3798TIP3   OH232808   5.438   5.954   1.271 -0.0679 -0.2743 -0.0615
 3798TIP3    H132809   5.513   6.008   1.296 -0.7099  0.8829 -0.5691
 3798TIP3    H232810   5.450   5.872   1.320  2.1516 -0.5951 -1.0226
 3799TIP3   OH232811   3.421   1.640   6.412  0.1264 -0.4734  0.3991
 3799TIP3    H132812   3.496   1.595   6.452  0.5963 -1.4626 -1.4631
 3799TIP3    H232813   3.460   1.696   6.345 -0.7380 -0.2945  0.0367
 3800TIP3   OH232814   0.436   0.645  16.926  0.0123 -0.6056 -0.6248
 3800TIP3    H132815   0.417   0.715  16.988  0.5860 -0.8871 -0.1155
 3800TIP3    H232816   0.489   0.687  16.858 -2.1739  0.1312 -1.9436
 3801TIP3   OH232817   0.472   5.475  15.041 -0.3354 -0.1136  0.0054
 3801TIP3    H132818   0.383   5.491  15.072 -0.1385  2.0020 -0.3624
 3801TIP3    H232819   0.462   5.437  14.954 -0.8974  0.1570 -0.0499
 3802TIP3   OH232820   2.679   2.583  11.006  0.3716 -0.5417  0.2995
 3802TIP3    H132821   2.710   2.499  10.971 -0.7334 -1.9571  2.4870
 3802TIP3    H232822   2.595   2.598  10.962  1.0088 -0.0814 -0.7824
 3803TIP3   OH232823   0.279   6.196   3.909 -0.5720 -0.4314 -0.3801
 3803TIP3    H132824   0.274   6.276   3.857 -0.3002 -0.1546  0.0126
 3803TIP3    H232825   0.371   6.168   3.900 -0.2157  0.2637  0.8891
 3804TIP3   OH232826   5.117   0.561  14.761  0.3139  0.0210 -0.0010
 3804TIP3    H132827   5.135   0.528  14.849 -0.1952 -0.5808 -0.1197
 3804TIP3    H232828   5.023   0.551  14.750  0.5907 -1.4865 -1.2422
 3805TIP3   OH232829   2.418   6.279   1.572 -0.4310  0.3736  0.7526
 3805TIP3    H132830   2.342   6.319   1.529 -0.9077  0.3371  1.5497
 3805TIP3    H232831   2.486   6.346   1.567 -0.7455  0.6922  0.6915
 3806TIP3   OH232832   3.281   2.840   0.940  0.2611 -0.6234 -0.5588
 3806TIP3    H132833   3.235   2.897   0.879 -0.3212 -0.8705 -0.3551
 3806TIP3    H232834   3.266   2.880   1.026  3.1135  1.1440 -0.7341
 3807TIP3   OH232835   6.766   3.414  14.117  0.5480 -0.1149  0.2861
 3807TIP3    H132836   6.682   3.444  14.083  1.1105  0.1435 -0.9365
 3807TIP3    H232837   6.744   3.338  14.171 -0.3745 -0.7513 -0.9264
 3808TIP3   OH232838   0.379   3.564  14.362  0.4283  0.3657  0.3513
 3808TIP3    H132839   0.329   3.639  14.330 -1.3969 -1.1380 -0.5031
 3808TIP3    H232840   0.313   3.498  14.382  2.0495 -2.1891 -2.0365
 3809TIP3   OH232841   0.331   0.350   2.971 -0.0668  0.0236  0.1205
 3809TIP3    H132842   0.391   0.335   2.898  0.9587  0.7349  0.7804
 3809TIP3    H232843   0.313   0.444   2.967 -1.0839 -0.1666 -0.0123
 3810TIP3   OH232844   3.788   2.938   1.393  0.0082  0.2755  0.1471
 3810TIP3    H132845   3.711   2.934   1.450 -0.5367  0.1264 -0.5887
 3810TIP3    H232846   3.844   2.866   1.422  0.9259  1.7093  2.1565
 3811TIP3   OH232847   3.983   4.488  12.478 -0.5457  0.0679 -0.3201
 3811TIP3    H132848   3.987   4.477  12.572  2.9336  0.4955 -0.2891
 3811TIP3    H232849   4.016   4.406  12.442  0.3753  0.7142 -1.0234
 3812TIP3   OH232850   1.592   1.935   1.169  0.3100  0.3358 -0.0372
 3812TIP3    H132851   1.619   1.986   1.093 -0.9630  0.6922 -0.2840
 3812TIP3    H232852   1.506   1.971   1.192  0.7493  0.3484  1.6758
 3813TIP3   OH232853   0.279   1.768  13.813 -0.2551  0.1137 -0.6909
 3813TIP3    H132854   0.300   1.685  13.770  1.8705  0.2601 -0.0419
 3813TIP3    H232855   0.241   1.742  13.897  0.9733 -0.2328 -0.2272
 3814TIP3   OH232856   2.424   2.070   4.595 -0.7633  0.4161  0.1051
 3814TIP3    H132857   2.376   2.098   4.517 -2.2848 -0.3429  0.7383
 3814TIP3    H232858   2.409   1.976   4.600  0.3923  0.2416  0.6159
 3815TIP3   OH232859   0.274   4.634   2.076 -0.8699 -0.1811 -0.8951
 3815TIP3    H132860   0.306   4.560   2.127 -0.3030 -0.0464 -1.0491
 3815TIP3    H232861   0.291   4.711   2.131  1.2184  0.1410 -1.9166
 3816TIP3   OH232862   5.844   2.610   0.385 -0.7870 -0.0911  0.5568
 3816TIP3    H132863   5.884   2.593   0.470 -0.6183  1.5550  0.8432
 3816TIP3    H232864   5.852   2.527   0.337 -3.0746 -1.8632  2.9685
 3817TIP3   OH232865   1.930   2.074  12.193  0.1805 -0.1650  0.0315
 3817TIP3    H132866   1.921   1.981  12.216  0.0414  0.1867  1.5257
 3817TIP3    H232867   1.854   2.116  12.234  0.8392  0.7575  0.3460
 3818TIP3   OH232868   5.697   2.429   0.881  0.3232  0.2349  0.1037
 3818TIP3    H132869   5.655   2.511   0.907 -0.5494  0.0715 -0.7215
 3818TIP3    H232870   5.671   2.417   0.790  2.6049  0.3734 -0.6164
 3819TIP3   OH232871   2.583   1.598   5.385  0.3101 -0.2871 -0.4198
 3819TIP3    H132872   2.668   1.555   5.371  0.7661  0.6225 -0.4917
 3819TIP3    H232873   2.526   1.528   5.417  1.3216 -0.7272  0.4787
 3820TIP3   OH232874   1.812   2.224  14.604  0.1900  0.8253  0.3560
 3820TIP3    H132875   1.803   2.295  14.540  1.3023  2.2147  1.6458
 3820TIP3    H232876   1.736   2.232  14.661  0.4367  1.1505  0.6435
 3821TIP3   OH232877   2.862   0.134   3.528 -0.1310  0.0634  0.3350
 3821TIP3    H132878   2.804   0.058   3.528 -0.6581  0.4581  1.2472
 3821TIP3    H232879   2.872   0.157   3.620 -0.7389  1.6726  0.0214
 3822TIP3   OH232880   0.761   4.073  14.126 -0.3419  0.1765 -0.3789
 3822TIP3    H132881   0.857   4.072  14.130 -0.3017  1.6932 -0.2253
 3822TIP3    H232882   0.741   4.115  14.042 -0.8425  0.7653  0.0185
 3823TIP3   OH232883   6.174   0.988  12.297  0.2328  0.4967 -0.5607
 3823TIP3    H132884   6.168   1.012  12.204  0.0167  4.9759  0.3950
 3823TIP3    H232885   6.260   1.019  12.324  0.3880 -0.9701  0.7486
 3824TIP3   OH232886   4.207   1.636   3.788  0.0559 -0.0129 -0.7837
 3824TIP3    H132887   4.225   1.722   3.826  1.9066 -0.4206 -0.6413
 3824TIP3    H232888   4.267   1.630   3.714 -1.7668 -0.2395 -2.3197
 3825TIP3   OH232889   1.288   2.910  13.842  0.3955 -0.7009 -0.3883
 3825TIP3    H132890   1.216   2.968  13.816  0.7935 -0.4653 -0.9948
 3825TIP3    H232891   1.249   2.823  13.844 -0.3264 -0.3807  0.9862
 3826TIP3   OH232892   2.225   1.264  13.356 -0.0358 -0.4529  0.3346
 3826TIP3    H132893   2.310   1.228  13.380  0.0217 -2.0248 -1.9446
 3826TIP3    H232894   2.240   1.313  13.276 -1.2528 -0.7530 -0.1084
 3827TIP3   OH232895   5.441   5.072   6.493 -0.6623 -0.2284 -0.1702
 3827TIP3    H132896   5.488   5.052   6.574  0.7498  1.2423 -0.5584
 3827TIP3    H232897   5.510   5.096   6.431 -1.7767 -0.5271 -1.5744
 3828TIP3   OH232898   2.854   1.529  12.159 -0.1250 -0.3561  0.1920
 3828TIP3    H132899   2.899   1.605  12.198  1.0741 -1.0070  0.1334
 3828TIP3    H232900   2.867   1.459  12.223 -0.5890 -0.7059 -0.0913
 3829TIP3   OH232901   0.763   5.486  14.250  0.4854 -0.1193  0.0501
 3829TIP3    H132902   0.820   5.556  14.282  2.3603 -1.5506 -0.0449
 3829TIP3    H232903   0.769   5.417  14.316  1.4792 -1.5969 -1.5112
 3830TIP3   OH232904   2.071   4.486  14.480 -0.1555  0.1787  0.2453
 3830TIP3    H132905   2.015   4.468  14.404  1.8946  0.5143 -1.4353
 3830TIP3    H232906   2.129   4.411  14.487  0.7944  0.8972  0.4028
 3831TIP3   OH232907   1.284   1.246  11.875  0.1874 -0.2568  0.3352
 3831TIP3    H132908   1.200   1.264  11.833 -0.7609 -3.0659  0.8175
 3831TIP3    H232909   1.338   1.322  11.854 -2.1860  1.2729 -0.6805
 3832TIP3   OH232910   4.619   3.024   2.908  0.6109 -0.4734 -0.1549
 3832TIP3    H132911   4.650   3.110   2.879 -0.8534  0.1609  0.1052
 3832TIP3    H232912   4.547   3.003   2.849 -0.1330 -0.7454  0.8278
 3833TIP3   OH232913   2.929   2.882   0.196  0.1222 -0.0796  0.6660
 3833TIP3    H132914   2.949   2.856   0.286  1.6459  1.8607  0.9485
 3833TIP3    H232915   2.860   2.948   0.205 -0.1928 -0.3600  0.3452
 3834TIP3   OH232916   0.534   2.337   2.825 -0.3359  0.5409  0.0408
 3834TIP3    H132917   0.628   2.323   2.836 -0.4653 -1.0337 -0.5919
 3834TIP3    H232918   0.495   2.251   2.839 -1.3505  0.4023 -2.9930
 3835TIP3   OH232919   5.795   1.856  11.663 -0.2041  0.3723 -0.8808
 3835TIP3    H132920   5.781   1.947  11.637 -1.8825  0.7094  0.9718
 3835TIP3    H232921   5.708   1.822  11.681  0.5696 -0.7698  1.0394
 3836TIP3   OH232922   1.084   1.594   5.669  0.3921 -0.5367 -0.9202
 3836TIP3    H132923   1.005   1.539   5.665 -0.0998  0.2076 -3.3414
 3836TIP3    H232924   1.096   1.612   5.762 -1.3239 -2.0494 -0.3403
 3837TIP3   OH232925   5.152   1.605  15.995  0.4636  0.1737 -0.0753
 3837TIP3    H132926   5.203   1.527  15.973  1.8141  1.4858 -1.9152
 3837TIP3    H232927   5.148   1.655  15.914 -1.6817  1.3399  0.6552
 3838TIP3   OH232928   6.802   3.207  12.426  0.0273 -1.1869  0.3376
 3838TIP3    H132929   6.730   3.190  12.366  0.9548  0.3849 -1.3011
 3838TIP3    H232930   6.877   3.158  12.390  0.3317 -1.1002  0.8317
 3839TIP3   OH232931   2.224   0.247   0.442  0.2842  0.3007 -0.1433
 3839TIP3    H132932   2.258   0.330   0.475  0.7943  0.2697 -0.5651
 3839TIP3    H232933   2.130   0.260   0.436  0.0850  0.0931  1.9107
 3840TIP3   OH232934   3.978   0.559   3.119 -0.5534  0.0174 -0.3881
 3840TIP3    H132935   3.991   0.604   3.036 -2.7377 -0.8013 -1.2515
 3840TIP3    H232936   3.896   0.596   3.154 -0.3803 -0.6114  0.7394
 3841TIP3   OH232937   6.622   4.187  13.350 -0.6766 -0.7718  0.6970
 3841TIP3    H132938   6.654   4.188  13.441 -0.0568  0.0050  0.4822
 3841TIP3    H232939   6.543   4.241  13.353  0.5339  1.1346  0.3951
 3842TIP3   OH232940   2.060   2.170  15.990  0.1484  0.2331 -0.0849
 3842TIP3    H132941   2.036   2.078  15.996 -1.2054  0.2397 -3.3403
 3842TIP3    H232942   1.976   2.216  15.993  0.4145  0.9999 -2.4324
 3843TIP3   OH232943   3.400   6.284  12.941  0.2693 -0.1474  0.3464
 3843TIP3    H132944   3.443   6.341  13.006  1.4977  0.9816 -1.3621
 3843TIP3    H232945   3.455   6.205  12.939 -0.0401 -0.3848  0.9910
 3844TIP3   OH232946   4.708   0.082  11.199  0.1048  0.2347  0.5829
 3844TIP3    H132947   4.770   0.147  11.165 -2.4216  1.7165 -1.6170
 3844TIP3    H232948   4.632   0.133  11.228 -1.2209 -1.6075  0.5819
 3845TIP3   OH232949   2.588   2.774  12.103 -0.1856  0.1035  0.3719
 3845TIP3    H132950   2.663   2.770  12.045  0.9543  2.9932  1.4472
 3845TIP3    H232951   2.622   2.748  12.189 -0.4679  1.1005  0.7999
 3846TIP3   OH232952   5.307   6.086  13.309  0.1306 -0.0690 -0.0059
 3846TIP3    H132953   5.362   6.031  13.365 -0.8658 -0.0369  1.0482
 3846TIP3    H232954   5.336   6.067  13.220  1.9869  0.1115  0.5227
 3847TIP3   OH232955   3.646   0.584  11.729 -0.3758  0.3277  0.0685
 3847TIP3    H132956   3.673   0.494  11.711  1.5400  0.8334  0.2048
 3847TIP3    H232957   3.611   0.616  11.646  0.4765 -0.0328 -0.4403
 3848TIP3   OH232958   6.189   1.222  15.903  0.0419  0.2055  0.1911
 3848TIP3    H132959   6.231   1.299  15.941 -0.9010  0.8218  0.0175
 3848TIP3    H232960   6.230   1.148  15.947  2.0675  0.7066 -0.7111
 3849TIP3   OH232961   2.827   4.913  15.322 -0.2303 -0.0625 -0.1827
 3849TIP3    H132962   2.762   4.847  15.349 -0.8291 -0.0509 -1.5084
 3849TIP3    H232963   2.910   4.865  15.319 -0.3775 -0.3647  0.3754
 3850TIP3   OH232964   3.228   6.806  13.232 -0.2775 -0.4222  0.7289
 3850TIP3    H132965   3.208   6.712  13.232  1.3746 -0.8239  1.2955
 3850TIP3    H232966   3.192   6.839  13.150 -0.4585 -1.6665  0.2856
 3851TIP3   OH232967   6.201   6.474   0.750 -0.2170 -0.0215  0.1276
 3851TIP3    H132968   6.151   6.512   0.678 -0.4569 -1.0473 -0.2751
 3851TIP3    H232969   6.153   6.498   0.829 -0.3748  0.4822 -0.1214
 3852TIP3   OH232970   5.849   4.481   4.329  0.2156  0.1033  0.3136
 3852TIP3    H132971   5.810   4.550   4.384  1.5830 -0.5209  2.1772
 3852TIP3    H232972   5.939   4.510   4.314  1.2488 -1.7914  2.2592
 3853TIP3   OH232973   6.176   5.983  14.298  0.1338 -0.0799  0.3574
 3853TIP3    H132974   6.207   5.955  14.385 -0.4835 -0.3209  0.5014
 3853TIP3    H232975   6.256   5.990  14.246  0.7013  1.6470  1.3742
 3854TIP3   OH232976   3.003   4.571  16.344  0.5135  0.7101 -0.3819
 3854TIP3    H132977   3.048   4.620  16.275  1.4338  0.4394  0.0046
 3854TIP3    H232978   3.064   4.501  16.367 -0.5987 -0.3609 -0.6193
 3855TIP3   OH232979   5.113   4.370   2.290 -0.0294  0.5064  0.1824
 3855TIP3    H132980   5.067   4.287   2.300  2.3840 -1.0889 -0.8106
 3855TIP3    H232981   5.046   4.432   2.261 -1.7187 -1.3710 -0.1651
 3856TIP3   OH232982   5.506   0.435   3.610  0.0382 -0.0864  0.0884
 3856TIP3    H132983   5.490   0.412   3.518  0.0394 -0.8363  0.2745
 3856TIP3    H232984   5.427   0.408   3.656 -0.0692  0.5322  0.2741
 3857TIP3   OH232985   5.230   3.102   5.222  0.2934  0.1555 -0.1269
 3857TIP3    H132986   5.257   3.167   5.287  1.3970 -1.0006  0.6027
 3857TIP3    H232987   5.183   3.035   5.272 -1.6960  0.8010 -1.0099
 3858TIP3   OH232988   1.687   4.571   1.140  0.0029 -0.3047 -0.2217
 3858TIP3    H132989   1.646   4.485   1.134  1.6465 -1.1451 -0.1584
 3858TIP3    H232990   1.731   4.583   1.056  1.8551 -0.6930  0.6302
 3859TIP3   OH232991   3.523   3.121   5.777  0.0614 -0.0202  0.6632
 3859TIP3    H132992   3.559   3.067   5.707 -0.4203 -2.6845  2.2933
 3859TIP3    H232993   3.598   3.140   5.834 -0.0873 -0.7252  1.1129
 3860TIP3   OH232994   3.174   5.489   0.744  0.7431  0.5815  0.6467
 3860TIP3    H132995   3.180   5.457   0.654  2.0277 -1.3177  1.3265
 3860TIP3    H232996   3.203   5.580   0.740 -0.8842  1.0715 -1.0800
 3861TIP3   OH232997   6.047   4.481  16.810  0.9337 -0.2596 -0.5143
 3861TIP3    H132998   6.074   4.447  16.725 -1.6817 -0.8182 -1.2093
 3861TIP3    H232999   5.979   4.546  16.790  2.1017  1.5596  1.0666
 3862TIP3   OH233000   4.282   4.252  14.473  0.0930  0.1757  0.3162
 3862TIP3    H133001   4.354   4.314  14.484 -0.4149  0.7336  0.5563
 3862TIP3    H233002   4.267   4.216  14.561  0.4650 -0.3811  0.1560
 3863TIP3   OH233003   1.472   5.043  10.368 -0.0771 -0.4442  0.5419
 3863TIP3    H133004   1.386   5.051  10.326  0.1346 -0.7221  0.0465
 3863TIP3    H233005   1.494   5.132  10.395 -1.8907 -0.7709  3.4647
 3864TIP3   OH233006   1.408   4.458  12.960 -0.3423  0.0391  0.2463
 3864TIP3    H133007   1.500   4.448  12.986 -1.0336 -1.8647  2.2670
 3864TIP3    H233008   1.380   4.370  12.935 -1.3120  0.8230 -1.6593
 3865TIP3   OH233009   5.342   0.708   4.200  0.9260  0.2127  0.2848
 3865TIP3    H133010   5.410   0.640   4.196  0.9083  0.2674 -1.2659
 3865TIP3    H233011   5.286   0.681   4.273  2.0165 -0.3853  0.9291
 3866TIP3   OH233012   1.446   6.030  14.578 -0.1669  0.2713  0.0551
 3866TIP3    H133013   1.376   6.095  14.578 -0.5854 -0.1518  1.1504
 3866TIP3    H233014   1.480   6.031  14.489 -0.0185  2.1371  0.1037
 3867TIP3   OH233015   0.532   3.825   3.554 -0.1674 -0.3964  0.1879
 3867TIP3    H133016   0.468   3.885   3.593  1.8086  0.6728  2.0354
 3867TIP3    H233017   0.608   3.880   3.535  0.6632 -1.8238 -0.8214
 3868TIP3   OH233018   2.915   6.498  16.345  0.0807 -0.0277  0.2030
 3868TIP3    H133019   2.842   6.437  16.335  0.9471 -0.8379 -1.5741
 3868TIP3    H233020   2.880   6.582  16.316 -0.7270  0.0715  1.3818
 3869TIP3   OH233021   6.682   6.454  13.108  0.6258  0.1027 -0.2290
 3869TIP3    H133022   6.716   6.376  13.065  3.5327  0.5715  0.9928
 3869TIP3    H233023   6.636   6.502  13.039  0.5865 -1.6383 -1.4797
 3870TIP3   OH233024   5.063   6.478  11.268 -0.2396 -0.0445  0.8440
 3870TIP3    H133025   5.089   6.420  11.196 -0.2780 -0.6255  1.2917
 3870TIP3    H233026   5.013   6.548  11.225  1.3079  0.6535  0.0652
 3871TIP3   OH233027   6.462   6.367  11.439 -0.1391 -0.5323 -0.0154
 3871TIP3    H133028   6.424   6.287  11.475  0.3446 -1.5676 -1.6710
 3871TIP3    H233029   6.534   6.336  11.384  0.8759  1.1472  0.3184
 3872TIP3   OH233030   3.614   0.873  13.923 -0.3457 -0.4211 -0.3416
 3872TIP3    H133031   3.594   0.957  13.964 -0.8482 -0.0329 -1.3488
 3872TIP3    H233032   3.595   0.808  13.991  1.9155  0.3326  1.1328
 3873TIP3   OH233033   5.747   6.393   5.200 -0.2549 -0.0952 -0.2720
 3873TIP3    H133034   5.766   6.301   5.182 -0.1907  0.0069 -0.7336
 3873TIP3    H233035   5.677   6.390   5.266 -0.4056 -0.4751 -0.4433
 3874TIP3   OH233036   2.626   3.390   4.619  0.1031 -0.4211  0.8080
 3874TIP3    H133037   2.644   3.336   4.542  1.8502 -1.4557  1.8685
 3874TIP3    H233038   2.546   3.353   4.657 -0.7731  0.0994 -0.4558
 3875TIP3   OH233039   2.308   5.843   0.364 -0.5889 -0.1621 -0.4351
 3875TIP3    H133040   2.341   5.861   0.276 -2.3361  0.4701 -1.0189
 3875TIP3    H233041   2.376   5.876   0.423  0.0776  0.5267 -1.5530
 3876TIP3   OH233042   0.952   5.473   6.132  0.5750 -0.2337 -0.5799
 3876TIP3    H133043   0.922   5.383   6.123  0.4219 -0.4396  1.4755
 3876TIP3    H233044   0.884   5.526   6.091 -0.6043 -0.9261  0.4453
 3877TIP3   OH233045   2.650   4.710   5.298  0.3655 -0.1657 -0.1880
 3877TIP3    H133046   2.634   4.675   5.386  1.1478  0.9033  0.4093
 3877TIP3    H233047   2.563   4.738   5.268  0.3407  1.3120  1.1014
 3878TIP3   OH233048   5.324   5.480  12.718  0.0180  0.4103  0.3620
 3878TIP3    H133049   5.279   5.410  12.669 -0.7771  1.9420 -1.1966
 3878TIP3    H233050   5.282   5.478  12.804 -0.6586 -0.4011  0.0362
 3879TIP3   OH233051   5.268   6.787  16.734  0.1237 -0.3439  0.0475
 3879TIP3    H133052   5.318   6.861  16.699  0.0980 -0.8551 -1.1175
 3879TIP3    H233053   5.330   6.713  16.731 -0.9398 -1.2378 -2.4276
 3880TIP3   OH233054   5.940   0.893   2.252  0.0992  0.2120 -0.5027
 3880TIP3    H133055   5.952   0.938   2.168 -0.6396  0.5793 -0.4127
 3880TIP3    H233056   5.920   0.803   2.228  1.6248 -0.1151 -0.6844
 3881TIP3   OH233057   2.222   4.042  11.866  0.2738  0.3730  0.2303
 3881TIP3    H133058   2.272   3.961  11.855  1.3514  0.4627  3.3764
 3881TIP3    H233059   2.134   4.014  11.890  0.9313  0.0395  2.4206
 3882TIP3   OH233060   0.721   3.878   3.771 -0.2077 -0.2514 -0.3179
 3882TIP3    H133061   0.656   3.928   3.821  1.1358  0.1050  1.1654
 3882TIP3    H233062   0.678   3.795   3.751 -0.6815 -0.6044  1.8917
 3883TIP3   OH233063   3.801   6.630   3.962  0.0425  1.0180 -0.5253
 3883TIP3    H133064   3.887   6.647   4.001 -0.0106  1.5307 -0.6238
 3883TIP3    H233065   3.739   6.638   4.035  0.2759 -1.6451  0.0457
 3884TIP3   OH233066   0.726   0.669   5.272 -0.6843 -0.6112 -0.1394
 3884TIP3    H133067   0.634   0.694   5.279 -0.6159  0.0900 -1.3600
 3884TIP3    H233068   0.740   0.607   5.343 -1.9502 -0.2912  0.4193
 3885TIP3   OH233069   2.150   1.611   3.235 -0.7168  0.5233 -0.1828
 3885TIP3    H133070   2.055   1.618   3.238 -0.7401  0.6357 -0.9815
 3885TIP3    H233071   2.168   1.518   3.220 -0.6576  0.3012  1.1474
 3886TIP3   OH233072   1.875   0.791   3.087  0.2599  0.5326  0.0376
 3886TIP3    H133073   1.883   0.812   2.994  1.1929  1.2819  0.2673
 3886TIP3    H233074   1.831   0.867   3.125  0.8691  0.7276  0.3769
 3887TIP3   OH233075   3.187   0.661  15.291 -0.9280 -0.2572 -0.1905
 3887TIP3    H133076   3.115   0.651  15.353 -1.4860 -0.7586 -0.9007
 3887TIP3    H233077   3.213   0.753  15.299 -2.4458  0.2513 -0.7793
 3888TIP3   OH233078   4.458   0.637   0.693 -0.4160  0.1837 -0.1910
 3888TIP3    H133079   4.548   0.616   0.718 -0.4334 -1.3782 -1.2767
 3888TIP3    H233080   4.413   0.653   0.776  0.5957 -0.1056  0.4354
 3889TIP3   OH233081   4.121   2.911   4.767 -0.6502  0.0550  0.1860
 3889TIP3    H133082   4.070   2.975   4.718 -1.7825  0.4449  1.7801
 3889TIP3    H233083   4.166   2.963   4.834 -0.0187 -0.5779  0.2624
 3890TIP3   OH233084   1.094   6.334  11.010  0.2026 -0.1460 -0.7578
 3890TIP3    H133085   1.068   6.424  11.030 -2.0365 -1.1062  1.1457
 3890TIP3    H233086   1.031   6.306  10.943 -0.2629 -0.8215 -0.0483
 3891TIP3   OH233087   1.041   0.490   0.559  0.2012  0.0336  0.8740
 3891TIP3    H133088   0.960   0.509   0.511  1.0827 -1.2450 -1.2704
 3891TIP3    H233089   1.041   0.395   0.568  0.6888  0.1611  2.3441
 3892TIP3   OH233090   3.307   5.729   2.985 -0.8657 -0.5803  0.1881
 3892TIP3    H133091   3.223   5.702   3.023 -1.5348 -0.6780 -1.2944
 3892TIP3    H233092   3.326   5.662   2.920 -0.6281  0.4816 -0.8725
 3893TIP3   OH233093   2.358   0.309  12.617 -0.2614 -0.0099  0.0502
 3893TIP3    H133094   2.391   0.305  12.707 -0.8800  0.9044  0.3453
 3893TIP3    H233095   2.408   0.380  12.577 -1.5738  1.1604  0.4031
 3894TIP3   OH233096   3.866   2.119   5.740 -0.0416  0.1079 -0.1852
 3894TIP3    H133097   3.806   2.082   5.806 -0.0086 -0.6102 -0.5473
 3894TIP3    H233098   3.953   2.108   5.779 -0.0137 -0.4107 -0.3880
 3895TIP3   OH233099   1.107   1.439  16.497  0.1182  0.5796  0.7151
 3895TIP3    H133100   1.052   1.380  16.549  0.0622  1.0343  1.1904
 3895TIP3    H233101   1.166   1.479  16.561  0.0675  1.1262  0.4294
 3896TIP3   OH233102   1.528   2.583   4.313  0.7295  0.2028  0.3309
 3896TIP3    H133103   1.496   2.653   4.256  1.3226 -0.3263 -0.6909
 3896TIP3    H233104   1.498   2.502   4.270 -0.4785 -0.1837  1.8094
 3897TIP3   OH233105   0.982   4.971  17.063  0.1993 -0.0116  0.4757
 3897TIP3    H133106   0.900   4.956  17.110 -0.8430  0.2033 -1.1788
 3897TIP3    H233107   1.006   5.062  17.083 -0.6498  0.3280 -0.0097
 3898TIP3   OH233108   1.416   6.675   1.171  0.2038  0.0266 -0.4578
 3898TIP3    H133109   1.386   6.611   1.106 -1.1647 -2.1559  2.0916
 3898TIP3    H233110   1.341   6.732   1.186  0.4427  0.3915 -0.6349
 3899TIP3   OH233111   6.127   1.957  12.302  0.0213 -0.1069 -0.0395
 3899TIP3    H133112   6.071   2.026  12.338 -1.2574 -0.7869 -0.6667
 3899TIP3    H233113   6.116   1.964  12.207  3.6592  1.9359 -0.4995
 3900TIP3   OH233114   1.770   2.508   4.447 -0.3120  0.0099  0.0075
 3900TIP3    H133115   1.777   2.413   4.460  2.6179 -0.4205 -3.1034
 3900TIP3    H233116   1.696   2.518   4.387  1.0199 -0.7518 -1.8701
 3901TIP3   OH233117   0.944   0.912  13.625 -0.3539 -0.0124  0.7265
 3901TIP3    H133118   0.891   0.854  13.570 -0.6148  0.3688  0.5710
 3901TIP3    H233119   1.030   0.910  13.584 -0.5176  0.1764  0.3724
 3902TIP3   OH233120   2.308   1.678  12.482 -0.0990 -0.3733  0.0493
 3902TIP3    H133121   2.388   1.679  12.534 -0.6042  1.6308  0.9078
 3902TIP3    H233122   2.254   1.610  12.521  1.0881 -1.6332 -0.4385
 3903TIP3   OH233123   4.313   3.099  13.045  0.1551  0.9501 -0.5208
 3903TIP3    H133124   4.329   3.113  13.138 -0.4612  0.8651 -0.3998
 3903TIP3    H233125   4.357   3.016  13.025 -2.4515 -0.7743  0.4457
 3904TIP3   OH233126   4.440   3.822   0.230  0.7372 -0.5435  0.2578
 3904TIP3    H133127   4.427   3.883   0.157  0.2404 -0.8772  0.0653
 3904TIP3    H233128   4.461   3.738   0.187 -4.3264 -2.0704  0.2077
 3905TIP3   OH233129   0.979   6.473  14.776  0.1523  0.4605  0.3668
 3905TIP3    H133130   0.940   6.519  14.850 -2.2205  0.7072 -0.9420
 3905TIP3    H233131   0.955   6.526  14.700  2.4525  0.1766 -0.6457
 3906TIP3   OH233132   3.783   6.707  15.265  0.0163  0.2533 -0.2610
 3906TIP3    H133133   3.827   6.770  15.322  2.0571  0.1703 -1.6467
 3906TIP3    H233134   3.747   6.760  15.194 -0.0178  0.0807 -0.3736
 3907TIP3   OH233135   3.738   6.045   4.327 -0.5522  0.6438  0.0540
 3907TIP3    H133136   3.724   5.951   4.333  0.8456  0.3785 -0.4897
 3907TIP3    H233137   3.817   6.061   4.378  0.4112  1.1883 -1.5285
 3908TIP3   OH233138   5.987   3.347  15.777 -0.2517  0.1128  0.2631
 3908TIP3    H133139   6.056   3.303  15.827  0.6341 -0.4213 -1.3693
 3908TIP3    H233140   6.029   3.426  15.742 -1.0348  0.7943  0.8113
 3909TIP3   OH233141   0.963   2.061  12.462 -0.1380 -0.4811  0.0021
 3909TIP3    H133142   1.050   2.060  12.503 -0.1308 -0.7019 -0.0125
 3909TIP3    H233143   0.969   1.994  12.393 -0.8022 -1.6157  1.0135
 3910TIP3   OH233144   2.808   5.205  13.386 -0.2404 -0.1220  0.1114
 3910TIP3    H133145   2.819   5.298  13.409  1.1441 -0.2903  0.2336
 3910TIP3    H233146   2.860   5.159  13.452 -0.3828 -0.9515 -0.3521
 3911TIP3   OH233147   4.264   1.998   6.174 -0.3039  1.1090  0.3477
 3911TIP3    H133148   4.231   1.909   6.161 -0.6555  0.9756  1.9619
 3911TIP3    H233149   4.187   2.054   6.159  0.1357  1.2757 -1.6706
 3912TIP3   OH233150   1.843   0.773   1.142  0.0794 -0.2304 -0.5033
 3912TIP3    H133151   1.894   0.844   1.102  0.1208  0.0776  0.0806
 3912TIP3    H233152   1.837   0.798   1.234  1.9441 -2.0420  0.1688
 3913TIP3   OH233153   0.344   4.911  15.036  0.5184  0.0319  0.0547
 3913TIP3    H133154   0.251   4.894  15.051  0.2397  1.3282 -0.1198
 3913TIP3    H233155   0.345   4.979  14.969  1.5862  0.3539  0.3857
 3914TIP3   OH233156   5.302   4.799   4.425 -0.3047 -0.2677 -0.3513
 3914TIP3    H133157   5.275   4.761   4.342 -1.0183  0.9371 -0.6913
 3914TIP3    H233158   5.339   4.884   4.402 -1.0050  0.3107  0.6138
 3915TIP3   OH233159   4.370   0.790   5.049  0.0244 -0.4019 -0.1563
 3915TIP3    H133160   4.390   0.823   5.136 -0.3507  0.3111 -0.3308
 3915TIP3    H233161   4.386   0.865   4.991 -0.0189 -0.7803 -0.6648
 3916TIP3   OH233162   0.814   5.878   1.574  0.0102  0.0418  0.4112
 3916TIP3    H133163   0.847   5.882   1.484  0.3243  0.1801  0.5281
 3916TIP3    H233164   0.883   5.921   1.626  0.2284 -0.7828  0.8246
 3917TIP3   OH233165   1.284   5.611   5.108  0.0304 -0.1927 -0.4613
 3917TIP3    H133166   1.354   5.672   5.085  0.7667 -1.0924 -0.6573
 3917TIP3    H233167   1.329   5.536   5.147 -0.9542 -0.0497  1.0618
 3918TIP3   OH233168   6.082   4.407   1.636 -0.6964 -0.3535  0.2857
 3918TIP3    H133169   6.107   4.483   1.584  0.5752 -0.9880 -0.0922
 3918TIP3    H233170   6.166   4.368   1.662 -1.2499 -2.5106 -0.9048
 3919TIP3   OH233171   5.228   4.057  14.557 -0.2346  0.1866  0.7210
 3919TIP3    H133172   5.240   4.026  14.467  0.0644 -0.7758  1.0810
 3919TIP3    H233173   5.180   4.140  14.547  0.5672  0.5546 -0.3659
 3920TIP3   OH233174   0.431   2.424  15.001  0.3122 -0.5930  0.1332
 3920TIP3    H133175   0.508   2.446  15.052  1.7185 -0.1839 -2.0335
 3920TIP3    H233176   0.425   2.493  14.934 -1.8291 -0.7224  0.1107
 3921TIP3   OH233177   5.899   3.355  11.536 -0.0452 -0.5168 -0.1384
 3921TIP3    H133178   5.886   3.311  11.620 -0.2664  0.5289  0.3951
 3921TIP3    H233179   5.842   3.432  11.540  1.1516  0.4374 -0.5683
 3922TIP3   OH233180   1.658   3.740   1.686  0.7209  0.1272 -0.4227
 3922TIP3    H133181   1.636   3.733   1.593 -1.6964  0.2872  0.0793
 3922TIP3    H233182   1.726   3.808   1.689 -0.2759  1.2695 -1.9418
 3923TIP3   OH233183   5.426   0.603  15.301 -0.5235 -0.6554 -0.3007
 3923TIP3    H133184   5.370   0.559  15.365  0.1027  0.9286  1.4595
 3923TIP3    H233185   5.514   0.599  15.340 -0.2644  1.0895 -0.6257
 3924TIP3   OH233186   5.574   2.609   2.012 -0.7207 -0.0452  0.1776
 3924TIP3    H133187   5.575   2.659   2.094 -0.2108  1.8633 -0.9171
 3924TIP3    H233188   5.487   2.571   2.007 -1.0444  0.5336  1.2039
 3925TIP3   OH233189   4.979   5.403  11.877 -0.0535 -0.3308 -0.3190
 3925TIP3    H133190   4.955   5.495  11.867 -0.2169 -0.3157  0.1794
 3925TIP3    H233191   5.072   5.406  11.900 -0.5887 -0.1386  2.0654
 3926TIP3   OH233192   2.090   0.488   5.031  0.2969 -0.5458 -0.1695
 3926TIP3    H133193   2.075   0.409   4.978 -0.0320 -0.8980  0.4318
 3926TIP3    H233194   2.050   0.467   5.116  0.8477 -0.0084  0.2292
 3927TIP3   OH233195   1.931   1.650  10.176  0.1459 -0.7717 -0.3413
 3927TIP3    H133196   1.987   1.728  10.177  1.2234 -1.5117 -0.5557
 3927TIP3    H233197   1.986   1.582  10.137 -0.7018 -1.6927  0.0280
 3928TIP3   OH233198   4.014   3.330  15.384  0.2314 -0.2341 -0.3537
 3928TIP3    H133199   3.997   3.294  15.471 -0.1036  0.1054 -0.2767
 3928TIP3    H233200   4.102   3.299  15.362  0.7927  0.5889  0.5848
 3929TIP3   OH233201   0.831   1.518   2.630  0.2299 -0.3190  0.2139
 3929TIP3    H133202   0.772   1.514   2.706 -1.1306 -0.4895 -0.8067
 3929TIP3    H233203   0.802   1.445   2.575  1.1223 -0.1193 -0.5226
 3930TIP3   OH233204   2.999   3.362  16.340  0.0216 -0.0685  0.0285
 3930TIP3    H133205   3.045   3.440  16.371 -1.6485  0.4820  1.2736
 3930TIP3    H233206   2.917   3.394  16.304 -1.7855 -1.2966  2.6735
 3931TIP3   OH233207   4.208   2.706  16.606  0.1293  0.1003 -0.2993
 3931TIP3    H133208   4.155   2.730  16.682  0.0041 -2.7587  0.6454
 3931TIP3    H233209   4.144   2.686  16.538  0.1298  0.1972 -0.3281
 3932TIP3   OH233210   1.036   6.384   2.616  0.2990 -0.0442 -0.0794
 3932TIP3    H133211   1.091   6.455   2.581 -1.9040  0.6314 -2.5386
 3932TIP3    H233212   0.971   6.429   2.670  1.7672 -0.7926  2.4500
 3933TIP3   OH233213   5.083   1.484   0.971 -0.5192 -0.2704 -0.6852
 3933TIP3    H133214   5.070   1.559   1.029  2.9622 -1.6043  2.2178
 3933TIP3    H233215   5.027   1.415   1.007  0.0986 -0.4958 -0.1345
 3934TIP3   OH233216   0.245   3.390   3.298  0.0153 -0.4889  0.1737
 3934TIP3    H133217   0.204   3.369   3.382 -1.9002  0.3123 -0.4917
 3934TIP3    H233218   0.278   3.306   3.265  1.7815 -0.6397  2.1765
 3935TIP3   OH233219   0.396   2.741  16.065  0.0420  0.3696 -0.1550
 3935TIP3    H133220   0.349   2.734  16.148  0.6445  0.5765  0.2078
 3935TIP3    H233221   0.455   2.665  16.064 -0.3418  0.0714 -0.6391
 3936TIP3   OH233222   5.280   0.818   2.021  0.1769 -0.4873 -0.2197
 3936TIP3    H133223   5.317   0.743   2.068 -0.7291 -1.6152 -1.2265
 3936TIP3    H233224   5.191   0.827   2.055  0.3927  0.3822  0.1503
 3937TIP3   OH233225   2.414   0.962   3.448 -0.1988  0.5196  0.2803
 3937TIP3    H133226   2.494   1.006   3.479  0.0967 -1.1109  2.0477
 3937TIP3    H233227   2.392   0.901   3.518 -1.3759 -1.1332 -1.4297
 3938TIP3   OH233228   4.402   3.035   5.939  0.2101  0.3954  0.2742
 3938TIP3    H133229   4.404   3.115   5.991  2.4564 -0.7265  2.1395
 3938TIP3    H233230   4.470   3.048   5.873  0.3822  0.1403  0.4005
 3939TIP3   OH233231   2.582   6.502   2.284 -0.1231  0.2887 -0.5545
 3939TIP3    H133232   2.605   6.469   2.371 -0.6487  0.2855 -0.4140
 3939TIP3    H233233   2.655   6.560   2.260 -0.6280  1.4009  0.4934
 3940TIP3   OH233234   1.742   5.960  16.512 -0.3550  0.3280 -0.0438
 3940TIP3    H133235   1.776   5.875  16.541 -0.2093  0.5311  0.3798
 3940TIP3    H233236   1.787   6.024  16.567  0.1260  0.7409 -0.8865
 3941TIP3   OH233237   1.440   3.778   3.669 -0.3249  0.1563  0.6321
 3941TIP3    H133238   1.449   3.683   3.676 -1.5964  0.0756  1.6388
 3941TIP3    H233239   1.502   3.804   3.601 -0.1333 -1.4227  0.1802
 3942TIP3   OH233240   3.110   0.252  16.521 -0.1596  0.1222  0.2606
 3942TIP3    H133241   3.039   0.305  16.485  0.4621  1.3666  0.8232
 3942TIP3    H233242   3.069   0.204  16.593 -0.5887  0.2888  0.1348
 3943TIP3   OH233243   0.190   0.389   5.261  0.4481  0.3494  0.0139
 3943TIP3    H133244   0.122   0.427   5.206  1.6012  0.7420 -1.2019
 3943TIP3    H233245   0.203   0.453   5.331 -0.2332  0.3942  0.1086
 3944TIP3   OH233246   2.068   1.663  13.293  0.0650  0.6651  0.6708
 3944TIP3    H133247   2.106   1.640  13.208  0.1681 -0.1259  0.9257
 3944TIP3    H233248   2.041   1.580  13.331  0.5358  0.9520  1.6643
 3945TIP3   OH233249   6.676   3.471   1.928  0.1800 -0.1370 -0.2269
 3945TIP3    H133250   6.691   3.531   1.856  1.7608  3.0699  2.4786
 3945TIP3    H233251   6.727   3.508   2.001 -3.0100 -1.8108  3.1785
 3946TIP3   OH233252   4.336   1.663  11.072 -0.2007  0.4682  0.3511
 3946TIP3    H133253   4.252   1.630  11.038  0.0972  1.1524 -1.1414
 3946TIP3    H233254   4.314   1.747  11.112 -0.3967  0.1299  0.9604
 3947TIP3   OH233255   3.822   3.498   6.206  0.0829 -0.1032  0.6235
 3947TIP3    H133256   3.746   3.505   6.263  0.8290  1.2698  1.4872
 3947TIP3    H233257   3.875   3.428   6.245  0.0443  0.0439  0.9354
 3948TIP3   OH233258   3.506   3.471  14.518 -0.0937  0.2127 -0.5237
 3948TIP3    H133259   3.558   3.547  14.545  0.9008 -0.8238  0.6234
 3948TIP3    H233260   3.475   3.493  14.430  0.8884  1.5688 -0.5680
 3949TIP3   OH233261   5.539   3.749  11.753 -0.1520  0.4533  0.1277
 3949TIP3    H133262   5.484   3.672  11.767  0.6774  0.0741  1.5660
 3949TIP3    H233263   5.496   3.818  11.804 -0.1833  0.5964 -0.0920
 3950TIP3   OH233264   6.564   6.512  10.961 -0.2818 -0.1868  0.0895
 3950TIP3    H133265   6.606   6.479  10.882  0.0613  0.3361  0.0473
 3950TIP3    H233266   6.542   6.434  11.011  0.9041 -0.4734  0.1905
 3951TIP3   OH233267   1.244   0.767   0.070  0.4914 -0.0073  0.0911
 3951TIP3    H133268   1.158   0.808   0.078  0.5231 -0.0589  0.7617
 3951TIP3    H233269   1.297   0.810   0.138  0.6153 -0.9354  0.5973
 3952TIP3   OH233270   4.705   4.380   1.379 -0.1858 -0.4707  0.1395
 3952TIP3    H133271   4.779   4.343   1.331  0.5235  0.1883  0.7038
 3952TIP3    H233272   4.733   4.380   1.470 -0.7834  0.0398  0.3275
 3953TIP3   OH233273   2.426   1.213  11.725 -0.5507 -0.2663  0.1003
 3953TIP3    H133274   2.413   1.119  11.710  0.1184 -0.2080 -0.9314
 3953TIP3    H233275   2.370   1.256  11.660  0.5547  0.0266 -0.6702
 3954TIP3   OH233276   4.429   3.268  15.732  0.3055 -1.0249  0.7613
 3954TIP3    H133277   4.505   3.308  15.773  2.1305  1.7014 -4.3797
 3954TIP3    H233278   4.462   3.188  15.690 -0.9886 -2.5720  2.5009
 3955TIP3   OH233279   6.631   4.534  14.393 -0.0249 -0.3706 -0.7619
 3955TIP3    H133280   6.646   4.452  14.439  0.8562  1.0261  1.6471
 3955TIP3    H233281   6.536   4.536  14.376  0.0693 -2.2215 -1.6706
 3956TIP3   OH233282   6.281   6.374  13.070  0.6452 -0.3227  0.1203
 3956TIP3    H133283   6.344   6.401  13.004  0.9150  0.0832  0.5410
 3956TIP3    H233284   6.221   6.316  13.024  1.5112 -0.9694 -0.2184
 3957TIP3   OH233285   5.540   0.189   1.229 -0.0375 -0.4590 -0.5438
 3957TIP3    H133286   5.602   0.260   1.248  2.5289 -2.4813 -0.7419
 3957TIP3    H233287   5.508   0.161   1.315 -0.4503  0.4088 -0.4106
 3958TIP3   OH233288   3.683   2.921  13.066 -0.9109 -0.3143 -0.4510
 3958TIP3    H133289   3.760   2.976  13.080 -0.8130 -0.8320  1.3442
 3958TIP3    H233290   3.717   2.831  13.070 -1.2620 -0.5462 -2.0587
 3959TIP3   OH233291   0.403   3.531   2.396  0.5613 -0.2874 -0.4721
 3959TIP3    H133292   0.498   3.528   2.405  0.4650 -2.3023  0.2161
 3959TIP3    H233293   0.371   3.552   2.484  0.3127 -1.9309 -0.1408
 3960TIP3   OH233294   3.818   0.409   3.542  0.5118 -0.1065 -0.1704
 3960TIP3    H133295   3.826   0.497   3.505  2.0529  0.6697  1.8188
 3960TIP3    H233296   3.739   0.413   3.596  0.6167  0.0842 -0.0298
 3961TIP3   OH233297   3.805   1.141  12.471  0.3518 -0.1458  0.0049
 3961TIP3    H133298   3.840   1.136  12.560 -0.6146 -1.8261  0.3522
 3961TIP3    H233299   3.805   1.050  12.441  2.2450  0.5599 -2.4061
 3962TIP3   OH233300   4.503   3.260  11.789 -0.7857 -0.0737  0.2810
 3962TIP3    H133301   4.422   3.247  11.839 -0.6196  0.9744  0.8614
 3962TIP3    H233302   4.483   3.334  11.731 -0.0901  0.5595  0.8180
 3963TIP3   OH233303   1.027   1.764  11.707  0.7054 -0.2652 -0.5883
 3963TIP3    H133304   0.962   1.823  11.745 -0.7123 -1.6798 -0.7171
 3963TIP3    H233305   0.990   1.676  11.720  0.4464 -0.9272 -4.5123
 3964TIP3   OH233306   3.618   3.206   4.943  0.4434  0.3161  0.2500
 3964TIP3    H133307   3.528   3.174   4.941  1.1252 -1.7243 -0.7666
 3964TIP3    H233308   3.613   3.292   4.901 -1.0067  0.1614  0.0478
 3965TIP3   OH233309   4.613   0.710  17.052 -0.1413 -0.9213  0.1971
 3965TIP3    H133310   4.604   0.755  17.137  1.6191 -0.1386  0.0187
 3965TIP3    H233311   4.573   0.770  16.989  0.7659 -0.3129  0.1749
 3966TIP3   OH233312   0.567   0.033  17.028  0.2359  0.0982  0.1800
 3966TIP3    H133313   0.567   0.018  16.934  0.4772 -1.6251  0.4185
 3966TIP3    H233314   0.660   0.031  17.053  0.2263  1.3127  0.3628
 3967TIP3   OH233315   0.648   1.400   2.811 -0.0215 -0.6245  0.5931
 3967TIP3    H133316   0.625   1.307   2.814 -0.4736 -0.4965  1.1404
 3967TIP3    H233317   0.667   1.423   2.902  0.7352 -0.3381  0.3690
 3968TIP3   OH233318   6.572   0.763  11.496 -0.1913 -0.4171 -0.0204
 3968TIP3    H133319   6.510   0.834  11.481 -0.1000 -0.2424  0.4460
 3968TIP3    H233320   6.653   0.793  11.454 -0.7154 -1.1293 -1.6566
 3969TIP3   OH233321   4.495   5.654  14.243 -0.1005 -0.4404  0.3306
 3969TIP3    H133322   4.489   5.651  14.147 -1.8470  1.2752  0.3342
 3969TIP3    H233323   4.565   5.592  14.264 -0.4516 -1.7550 -1.9685
 3970TIP3   OH233324   0.920   1.360  13.016  0.1571  0.0356 -0.0215
 3970TIP3    H133325   0.933   1.279  13.064  0.9166  0.5359  0.6382
 3970TIP3    H233326   0.864   1.413  13.073  1.0210  0.6116  0.3127
 3971TIP3   OH233327   5.810   2.301   2.669  0.0308  0.3153  0.1479
 3971TIP3    H133328   5.893   2.267   2.703 -0.7173 -2.3493 -0.4314
 3971TIP3    H233329   5.766   2.338   2.745  0.2234 -1.5935  1.2517
 3972TIP3   OH233330   0.765   1.008   6.132  0.5217  0.0365 -0.3857
 3972TIP3    H133331   0.771   0.913   6.126  0.2170  0.0926 -1.9540
 3972TIP3    H233332   0.746   1.025   6.224  2.1562 -1.3215  0.2573
 3973TIP3   OH233333   4.481   4.999  13.868  0.1250  0.7790 -0.5621
 3973TIP3    H133334   4.453   5.022  13.957  0.1439  0.8763 -0.5823
 3973TIP3    H233335   4.422   4.928  13.843  2.5084 -2.0216  1.0311
 3974TIP3   OH233336   6.450   2.878   1.078  0.6682  0.6386  0.1699
 3974TIP3    H133337   6.411   2.818   1.015 -1.6149  0.6797  1.4546
 3974TIP3    H233338   6.486   2.949   1.024 -0.0921  0.0448 -1.1531
 3975TIP3   OH233339   5.269   6.278  11.543  0.4010 -0.0472  0.3845
 3975TIP3    H133340   5.300   6.290  11.633  0.2489  0.1026  0.4165
 3975TIP3    H233341   5.350   6.276  11.491  0.4869 -0.0737  0.5166
 3976TIP3   OH233342   5.106   5.564   5.432  0.3494  0.1423  0.0180
 3976TIP3    H133343   5.039   5.508   5.473 -0.8344  0.3350 -1.5463
 3976TIP3    H233344   5.189   5.521   5.452 -0.4216 -1.3773  0.0920
 3977TIP3   OH233345   0.805   3.360   3.809  0.6416 -0.4028  0.1399
 3977TIP3    H133346   0.857   3.437   3.787 -0.4167  0.1104 -0.5985
 3977TIP3    H233347   0.784   3.371   3.902  1.4630 -0.3905  0.3300
 3978TIP3   OH233348   6.717   4.433  12.761  0.0966  0.0220  0.2768
 3978TIP3    H133349   6.690   4.501  12.822 -0.8585 -1.6825  1.8848
 3978TIP3    H233350   6.653   4.363  12.774  0.6790 -0.9651 -1.7297
 3979TIP3   OH233351   4.432   1.129  10.359  0.9760  0.3287  0.2475
 3979TIP3    H133352   4.400   1.051  10.315 -0.6197  0.8048  0.5242
 3979TIP3    H233353   4.391   1.127  10.445  0.1298  1.9401 -0.0654
 3980TIP3   OH233354   1.493   5.094   4.977 -0.8737 -0.0351 -0.2929
 3980TIP3    H133355   1.535   5.152   5.041 -0.4057 -0.4539 -0.2189
 3980TIP3    H233356   1.536   5.114   4.894 -0.7722 -0.2104 -0.2834
 3981TIP3   OH233357   5.825   0.869  12.307 -0.1152 -0.2075 -0.0548
 3981TIP3    H133358   5.858   0.915  12.230  1.7467  0.5371  1.1273
 3981TIP3    H233359   5.825   0.776  12.281 -1.6232  0.1751 -1.6377
 3982TIP3   OH233360   3.449   3.965   3.087  0.4375 -0.1676  0.1931
 3982TIP3    H133361   3.476   4.055   3.071  0.5097 -0.3484 -0.7505
 3982TIP3    H233362   3.399   3.940   3.009 -1.0399 -0.4004  1.1600
 3983TIP3   OH233363   4.676   5.774   1.564 -0.0142  0.1323  0.5348
 3983TIP3    H133364   4.747   5.828   1.529  1.8871 -1.7923  1.1956
 3983TIP3    H233365   4.668   5.802   1.656  0.4421 -0.1554  0.6668
 3984TIP3   OH233366   0.019   5.953   0.737 -0.1454  0.1604  0.0359
 3984TIP3    H133367   0.102   5.992   0.710 -0.6304  2.2299  1.3363
 3984TIP3    H233368   0.001   5.887   0.670  2.0059  0.3918 -0.8485
 3985TIP3   OH233369   3.615   5.427  11.363 -0.0286  0.4592  0.0386
 3985TIP3    H133370   3.700   5.457  11.394 -0.4781  0.4927  1.3039
 3985TIP3    H233371   3.620   5.433  11.268  1.6071 -0.1713  0.0643
 3986TIP3   OH233372   1.722   1.959  15.061 -0.0264 -0.2989 -0.1281
 3986TIP3    H133373   1.643   2.012  15.067  0.4644  0.6341 -1.4524
 3986TIP3    H233374   1.690   1.869  15.054 -0.8741 -0.1791  1.7414
 3987TIP3   OH233375   6.157   1.132  16.369 -0.2900  0.1681  0.5273
 3987TIP3    H133376   6.104   1.136  16.289  0.8291  1.2759 -0.2064
 3987TIP3    H233377   6.155   1.040  16.396 -2.2648  0.1209  0.3351
 3988TIP3   OH233378   2.993   0.865  13.173 -0.4717  0.0058  0.1632
 3988TIP3    H133379   2.960   0.854  13.083 -0.5628  1.5805 -0.0209
 3988TIP3    H233380   3.027   0.955  13.175 -1.5921  0.4378  2.0583
 3989TIP3   OH233381   2.610   3.800   2.039  0.1279  0.0512  0.4630
 3989TIP3    H133382   2.573   3.729   2.092 -0.6519  0.6630  0.7628
 3989TIP3    H233383   2.679   3.838   2.093  0.8577 -0.7521  0.1203
 3990TIP3   OH233384   6.521   1.809   2.473 -0.0771 -0.3642 -0.5618
 3990TIP3    H133385   6.555   1.874   2.411  0.3819 -1.4468 -1.4820
 3990TIP3    H233386   6.434   1.789   2.440 -0.3944  0.1054 -0.0170
 3991TIP3   OH233387   5.287   4.112   2.716  0.1225  0.7864  0.1928
 3991TIP3    H133388   5.372   4.153   2.697  1.2491 -0.9741  1.1285
 3991TIP3    H233389   5.275   4.049   2.645  0.4737 -0.1924  0.9802
 3992TIP3   OH233390   3.076   5.575   2.588  0.1283  0.2076  0.5479
 3992TIP3    H133391   3.044   5.664   2.571 -1.0320 -0.6137 -2.1154
 3992TIP3    H233392   3.039   5.551   2.673 -0.1822  1.9684  0.9453
 3993TIP3   OH233393   0.135   5.075   5.153  0.1631 -0.0941  0.1994
 3993TIP3    H133394   0.170   4.991   5.123 -0.2761 -0.1053 -0.2841
 3993TIP3    H233395   0.196   5.140   5.118  0.6735 -0.2182  0.8225
 3994TIP3   OH233396   3.058   3.093  17.107  0.2118  0.0252  0.0841
 3994TIP3    H133397   3.033   3.184  17.090 -2.3435 -0.5301  0.3425
 3994TIP3    H233398   3.014   3.072  17.190  0.9344 -1.3992  0.1406
 3995TIP3   OH233399   3.306   3.611   0.396 -0.1877  0.3279 -0.4744
 3995TIP3    H133400   3.382   3.613   0.455  0.8793 -1.3503 -1.6833
 3995TIP3    H233401   3.344   3.598   0.309 -1.8627 -0.7428 -1.0985
 3996TIP3   OH233402   3.706   3.299   6.791  0.1585  0.4831 -0.0463
 3996TIP3    H133403   3.627   3.272   6.745 -0.2179  1.0171  0.2742
 3996TIP3    H233404   3.745   3.365   6.734 -0.5067  1.4208  0.5476
 3997TIP3   OH233405   5.048   6.693  16.879  0.8095  0.5689  0.0865
 3997TIP3    H133406   5.062   6.619  16.939  1.2224  0.7525  0.2245
 3997TIP3    H233407   5.136   6.713  16.846  0.6405  0.7371 -0.2610
 3998TIP3   OH233408   1.633   1.213   4.397 -0.3710 -0.2504 -0.4558
 3998TIP3    H133409   1.674   1.257   4.322 -0.9313  0.6737 -0.2402
 3998TIP3    H233410   1.557   1.268   4.418 -0.9437 -1.1955 -0.0049
 3999TIP3   OH233411   0.056   6.691  15.226 -0.1062  0.3836 -0.4284
 3999TIP3    H133412   0.093   6.625  15.284 -1.1594 -1.1902 -1.4389
 3999TIP3    H233413  -0.039   6.679  15.234 -0.2967  1.2920 -1.1759
 4000TIP3   OH233414   4.684   3.610  13.167  0.2316 -0.3279 -0.2585
 4000TIP3    H133415   4.598   3.575  13.191  0.6160 -3.1732 -2.3649
 4000TIP3    H233416   4.665   3.680  13.106 -0.6535 -1.3054 -1.1558
 4001TIP3   OH233417   4.546   5.057  12.626  0.1739  0.0413 -0.5578
 4001TIP3    H133418   4.457   5.088  12.645  0.6612  0.8481  0.5645
 4001TIP3    H233419   4.541   5.020  12.538 -1.4256 -0.5606 -0.2431
 4002TIP3   OH233420   2.235   6.203  14.120 -0.2471  0.1907  0.1717
 4002TIP3    H133421   2.240   6.108  14.111 -0.8890 -0.0036  1.5761
 4002TIP3    H233422   2.318   6.227  14.162 -0.2658  0.2070  0.1986
 4003TIP3   OH233423   2.891   5.869  15.674  0.1346  0.1360  0.0637
 4003TIP3    H133424   2.949   5.937  15.708 -2.0189  1.0997  2.1060
 4003TIP3    H233425   2.898   5.876  15.579  2.8512  0.5773  0.2429
 4004TIP3   OH233426   3.205   2.129   2.182 -0.4021 -0.2607  0.2105
 4004TIP3    H133427   3.226   2.186   2.256  0.5960 -1.7936  1.1805
 4004TIP3    H233428   3.254   2.165   2.109 -0.2524  0.4525  0.6559
 4005TIP3   OH233429   0.883   6.523  16.926 -0.0042  0.6037  0.7617
 4005TIP3    H133430   0.813   6.513  16.991 -0.6660  1.7684  0.2632
 4005TIP3    H233431   0.892   6.436  16.888 -0.7265  0.2796  1.2974
 4006TIP3   OH233432   3.853   4.699  13.457  0.4270 -0.0814 -0.5910
 4006TIP3    H133433   3.783   4.671  13.516 -0.2362 -0.7158 -1.6529
 4006TIP3    H233434   3.808   4.731  13.379  1.3042 -0.7701 -1.4178
 4007TIP3   OH233435   3.691   4.625  14.172 -0.0077 -0.1541  0.2083
 4007TIP3    H133436   3.683   4.548  14.116  0.6051 -1.3042  1.6477
 4007TIP3    H233437   3.611   4.624  14.225  0.2150 -0.0563  0.5468
 4008TIP3   OH233438   5.054   4.685   3.518  0.2276  0.1345 -0.4210
 4008TIP3    H133439   4.984   4.749   3.516 -0.0982 -0.2198 -0.5172
 4008TIP3    H233440   5.052   4.645   3.431  1.4396  1.0670 -0.9141
 4009TIP3   OH233441   4.262   1.928  13.377 -0.5154  0.1980 -0.6419
 4009TIP3    H133442   4.339   1.978  13.403 -0.5900  0.3794 -0.7685
 4009TIP3    H233443   4.241   1.874  13.453  0.0486 -0.2350 -0.7845
 4010TIP3   OH233444   5.903   6.455  13.505  0.0546 -0.2231  0.2386
 4010TIP3    H133445   5.899   6.495  13.418 -2.7517 -0.1483  0.3081
 4010TIP3    H233446   5.940   6.368  13.489  0.7443  0.2343 -0.8124
 4011TIP3   OH233447   6.761   3.797  14.096 -0.0705  0.3140  0.3246
 4011TIP3    H133448   6.729   3.762  14.179 -0.8823 -0.0821 -0.1359
 4011TIP3    H233449   6.720   3.741  14.030  1.1978  0.1089 -0.3263
 4012TIP3   OH233450   4.576   1.299  11.005  0.3653 -0.3997  0.3369
 4012TIP3    H133451   4.577   1.233  10.936  0.0949 -0.2421  0.1810
 4012TIP3    H233452   4.489   1.338  10.999 -0.2447 -1.4610  1.8059
 4013TIP3   OH233453   1.936   1.783   1.282 -0.4839  0.1616 -0.4039
 4013TIP3    H133454   2.023   1.746   1.267 -1.1342 -1.0721 -1.3471
 4013TIP3    H233455   1.945   1.876   1.260  0.6806  0.1269 -0.1128
 4014TIP3   OH233456   3.385   0.466   3.465 -0.4624  0.3702  0.0250
 4014TIP3    H133457   3.434   0.410   3.526 -1.0409 -0.5410 -0.3159
 4014TIP3    H233458   3.452   0.516   3.419 -0.0160  1.2113  1.5161
 4015TIP3   OH233459   5.570   3.765  14.081  0.4391  0.6931 -0.5728
 4015TIP3    H133460   5.486   3.756  14.037 -0.2449 -0.6463  0.9174
 4015TIP3    H233461   5.624   3.694  14.045  0.5573  0.8680 -0.7384
 4016TIP3   OH233462   4.332   3.721  15.644 -0.2738  0.3371 -0.0485
 4016TIP3    H133463   4.371   3.799  15.604 -0.7184  0.4669 -0.2308
 4016TIP3    H233464   4.367   3.720  15.733  0.7713  0.0151 -0.4393
 4017TIP3   OH233465   3.435   2.810   5.601  0.1792 -0.1831 -0.1358
 4017TIP3    H133466   3.522   2.849   5.593 -0.0973  1.5390  3.2384
 4017TIP3    H233467   3.449   2.729   5.650  0.0698 -1.1409 -1.6334
 4018TIP3   OH233468   2.779   2.455  11.347 -0.5945 -0.0610  0.2340
 4018TIP3    H133469   2.872   2.440  11.328 -0.5392 -2.5160  2.0201
 4018TIP3    H233470   2.774   2.550  11.364  1.6712  0.0859  0.5176
 4019TIP3   OH233471   3.326   2.611  11.116 -0.2923 -0.8031 -0.9386
 4019TIP3    H133472   3.270   2.554  11.062  1.8189 -1.2176 -2.8079
 4019TIP3    H233473   3.356   2.554  11.187 -0.5978 -1.1480 -1.0816
 4020TIP3   OH233474   4.596   0.646  13.169  0.4386 -0.0032 -0.2347
 4020TIP3    H133475   4.632   0.558  13.161  0.0882 -0.6622  3.5995
 4020TIP3    H233476   4.503   0.633  13.184 -0.4886  1.3816 -3.7434
 4021TIP3   OH233477   3.732   4.118  16.673 -0.1146  0.9966  0.3059
 4021TIP3    H133478   3.818   4.111  16.633 -0.2766 -0.5022  0.1549
 4021TIP3    H233479   3.732   4.051  16.742 -1.0225  1.2271  0.5457
 4022TIP3   OH233480   3.548   5.370  12.146  0.2547  0.2540 -0.3774
 4022TIP3    H133481   3.592   5.314  12.210  0.9812  0.7528 -0.4304
 4022TIP3    H233482   3.524   5.449  12.195  0.1422  0.3222 -0.5412
 4023TIP3   OH233483   1.107   4.355   0.210  0.2582  0.1463 -0.3215
 4023TIP3    H133484   1.167   4.385   0.278  1.3043  0.8879 -1.5289
 4023TIP3    H233485   1.021   4.382   0.241  0.8014  1.2115  0.3190
 4024TIP3   OH233486   5.374   4.198  16.105  0.1247  0.5565 -0.1703
 4024TIP3    H133487   5.396   4.275  16.053 -0.6651  0.6691 -0.3580
 4024TIP3    H233488   5.282   4.180  16.084  0.0522  0.0668  0.5085
 4025TIP3   OH233489   4.044   2.362  15.548 -0.1137  0.1329  0.0100
 4025TIP3    H133490   4.012   2.273  15.561 -0.3135  0.0585 -0.9484
 4025TIP3    H233491   4.100   2.378  15.624  0.5085 -1.0764 -0.1637
 4026TIP3   OH233492   2.432   3.933  16.710  0.1592 -0.4051  0.5476
 4026TIP3    H133493   2.523   3.923  16.739  0.2774 -0.0575  0.3056
 4026TIP3    H233494   2.404   4.015  16.750 -0.6641 -1.4344  2.1906
 4027TIP3   OH233495   1.762   0.668  15.625 -0.5670 -0.1366 -0.3979
 4027TIP3    H133496   1.781   0.619  15.705 -1.4327  0.7782  0.3772
 4027TIP3    H233497   1.748   0.600  15.559 -1.4874 -0.9514  0.5995
 4028TIP3   OH233498   2.748   6.023  12.740  0.7119 -0.1968  0.2201
 4028TIP3    H133499   2.713   6.082  12.807 -0.8723 -0.9248  0.0624
 4028TIP3    H233500   2.736   5.935  12.777  0.7741 -0.5519 -0.5897
 4029TIP3   OH233501   0.228   1.283   3.163 -0.3755  0.0799 -0.1030
 4029TIP3    H133502   0.133   1.296   3.158 -0.6573 -1.6711  0.0882
 4029TIP3    H233503   0.248   1.224   3.090  0.4250 -0.2985  0.4132
 4030TIP3   OH233504   6.283   2.435   5.723  0.0701 -0.2687  0.7940
 4030TIP3    H133505   6.371   2.450   5.758  0.1924 -1.9915  1.3089
 4030TIP3    H233506   6.297   2.374   5.650 -0.6886 -0.4183  0.7664
 4031TIP3   OH233507   6.319   2.253   2.055  0.2449 -0.1864  0.0042
 4031TIP3    H133508   6.390   2.204   2.012 -0.3785 -0.2200 -1.0023
 4031TIP3    H233509   6.336   2.241   2.148  0.2261 -2.1600 -0.2115
 4032TIP3   OH233510   4.727   0.077  15.421 -1.0899 -0.2856  0.3046
 4032TIP3    H133511   4.634   0.065  15.440 -0.5863 -2.4517  1.8123
 4032TIP3    H233512   4.751   0.001  15.368  0.2853 -1.1133  2.0211
 4033TIP3   OH233513   4.585   6.594  14.371  0.2880  0.4315  0.4081
 4033TIP3    H133514   4.612   6.513  14.415  0.2052  0.8415  1.2347
 4033TIP3    H233515   4.609   6.580  14.279  0.6374 -0.3716  0.6088
 4034TIP3   OH233516   3.499   6.449  14.340  0.3571 -0.0877  0.1779
 4034TIP3    H133517   3.533   6.538  14.335  2.1092 -0.7510 -0.7809
 4034TIP3    H233518   3.527   6.408  14.259 -2.2462 -0.9506 -0.3741
 4035TIP3   OH233519   4.075   3.517   2.325 -0.4087 -0.1576  0.2789
 4035TIP3    H133520   4.169   3.513   2.308 -0.3238 -1.1752  0.8839
 4035TIP3    H233521   4.034   3.491   2.242 -0.1742  0.7409 -0.1221
 4036TIP3   OH233522   5.463   2.573   5.599 -0.0862 -0.3380 -0.2944
 4036TIP3    H133523   5.401   2.616   5.658  0.6820 -0.3364  0.5295
 4036TIP3    H233524   5.471   2.632   5.525 -0.8181 -0.1858 -0.2566
 4037TIP3   OH233525   6.793   5.359   4.637  0.3913 -0.3682 -0.1462
 4037TIP3    H133526   6.708   5.396   4.663 -0.5122 -1.8907 -0.7560
 4037TIP3    H233527   6.820   5.307   4.714  0.2454 -0.7217 -0.3301
 4038TIP3   OH233528   1.608   0.626  13.694 -0.3161 -0.1125 -0.3696
 4038TIP3    H133529   1.703   0.622  13.684 -0.4531 -2.5848 -1.4129
 4038TIP3    H233530   1.593   0.604  13.786  0.1120 -3.8562 -1.0047
 4039TIP3   OH233531   3.486   5.591  15.511  0.7145 -0.0707  0.2664
 4039TIP3    H133532   3.490   5.666  15.452  0.1798  0.8396  1.3639
 4039TIP3    H233533   3.393   5.581  15.531  0.9617  0.2083  1.6501
 4040TIP3   OH233534   5.625   3.336   0.071 -0.4675  0.6270  0.3607
 4040TIP3    H133535   5.599   3.390   0.146 -0.4175 -1.5020  1.9969
 4040TIP3    H233536   5.720   3.350   0.063 -0.7143  2.1387 -0.4454
 4041TIP3   OH233537   0.429   0.800  12.706  0.1219  0.1137  0.2306
 4041TIP3    H133538   0.391   0.886  12.685  1.6106  0.7926  0.1532
 4041TIP3    H233539   0.369   0.737  12.665 -0.2418  1.1769 -0.9498
 4042TIP3   OH233540   2.326   5.419  11.165 -0.0005  0.1434  0.4295
 4042TIP3    H133541   2.383   5.369  11.107 -3.4959 -1.6362 -1.7591
 4042TIP3    H233542   2.320   5.506  11.125  3.4842  1.5258  2.4646
 4043TIP3   OH233543   3.467   1.904  12.635  0.5348  0.0593  0.1900
 4043TIP3    H133544   3.512   1.893  12.719  1.2300  0.6784 -0.0913
 4043TIP3    H233545   3.529   1.950  12.580  0.0411 -0.2447 -0.6430
 4044TIP3   OH233546   3.957   5.255   2.178  0.1698  0.6980  0.2258
 4044TIP3    H133547   3.988   5.198   2.107  1.6547 -0.7581  1.9511
 4044TIP3    H233548   3.887   5.205   2.220  0.3615  0.8728  0.7493
 4045TIP3   OH233549   1.314   5.858  14.802  0.1420 -0.1976  0.1993
 4045TIP3    H133550   1.336   5.901  14.719  0.5095 -1.0951 -0.1787
 4045TIP3    H233551   1.275   5.775  14.776  2.4876 -1.6059  0.9061
 4046TIP3   OH233552   1.187   1.225   2.919  0.2860  0.2063  0.2038
 4046TIP3    H133553   1.193   1.320   2.920  1.1545  0.1622  1.0639
 4046TIP3    H233554   1.240   1.199   2.843  2.5142  0.3162  1.6323
 4047TIP3   OH233555   4.689   0.886  14.109  0.5361 -0.4235  0.0906
 4047TIP3    H133556   4.617   0.932  14.152  2.1143 -0.3336  2.9010
 4047TIP3    H233557   4.670   0.793  14.122  0.0200 -0.4619 -0.8541
 4048TIP3   OH233558   6.568   1.948   3.944  0.1913  0.0723  0.1650
 4048TIP3    H133559   6.519   1.886   3.891  1.6275 -1.0455  0.0840
 4048TIP3    H233560   6.546   1.926   4.035  0.7439 -0.5996  0.1371
 4049TIP3   OH233561   0.593   1.890   0.894  0.2029 -0.6103 -0.3341
 4049TIP3    H133562   0.683   1.863   0.876  0.6244  0.3261  0.2940
 4049TIP3    H233563   0.557   1.915   0.808  1.2697  1.1292 -0.3056
 4050TIP3   OH233564   5.945   5.479   2.496  0.5057  0.6143 -0.3846
 4050TIP3    H133565   5.893   5.447   2.423  0.6164  2.4294 -1.3150
 4050TIP3    H233566   5.881   5.510   2.560  0.4298  0.4767 -0.3937
 4051TIP3   OH233567   2.919   3.002  10.712 -0.4773 -0.0284  0.0146
 4051TIP3    H133568   2.921   3.043  10.626 -0.6863  1.2774  0.6098
 4051TIP3    H233569   2.979   3.054  10.765 -2.8593  1.3547  1.5361
 4052TIP3   OH233570   3.161   5.905   2.790  0.3341 -0.8701  0.0330
 4052TIP3    H133571   3.210   5.978   2.752 -0.5390 -0.6429 -0.6980
 4052TIP3    H233572   3.227   5.853   2.836  0.8405  0.8629  1.3588
 4053TIP3   OH233573   4.556   0.363  14.497  0.0241  0.0173 -0.1534
 4053TIP3    H133574   4.507   0.430  14.546 -1.4871 -1.8202  0.9854
 4053TIP3    H233575   4.488   0.309  14.456  1.2027 -0.7778 -1.1299
 4054TIP3   OH233576   2.471   1.181  16.499 -0.1569 -0.5267 -0.4057
 4054TIP3    H133577   2.560   1.174  16.535  0.2522 -0.3056 -1.3276
 4054TIP3    H233578   2.466   1.271  16.467 -0.8207 -0.4543 -0.1221
 4055TIP3   OH233579   2.170   5.157  12.653  0.0794 -0.0419  0.1886
 4055TIP3    H133580   2.225   5.079  12.645 -1.1576 -0.9155  0.0761
 4055TIP3    H233581   2.083   5.124  12.672 -0.9269  1.1847 -1.9478
 4056TIP3   OH233582   3.840   2.475   1.231 -0.1837  0.5266 -0.0360
 4056TIP3    H133583   3.750   2.484   1.200 -0.1170  0.7055 -0.1806
 4056TIP3    H233584   3.834   2.414   1.305 -0.5833  1.3536  0.6325
 4057TIP3   OH233585   3.507   4.664   0.364 -0.3711 -0.7800  0.3105
 4057TIP3    H133586   3.473   4.630   0.280 -0.4003 -0.6275  0.2606
 4057TIP3    H233587   3.429   4.675   0.418 -0.4183 -0.3121  0.1538
 4058TIP3   OH233588   1.459   2.970   3.143  0.5438 -0.5781  0.4426
 4058TIP3    H133589   1.437   2.982   3.236  2.2845 -0.2085  0.8521
 4058TIP3    H233590   1.465   2.876   3.131 -1.2864 -0.6996  0.2734
 4059TIP3   OH233591   1.300   3.633  15.877 -0.4422  0.1487  0.2524
 4059TIP3    H133592   1.387   3.619  15.913 -1.1998 -2.2772  1.4026
 4059TIP3    H233593   1.241   3.624  15.952 -1.7748  0.3817 -0.7126
 4060TIP3   OH233594   0.301   3.191   2.308 -0.1837  0.3659  0.6878
 4060TIP3    H133595   0.349   3.204   2.226 -0.9527 -1.6134 -0.1320
 4060TIP3    H233596   0.368   3.196   2.375  0.4626  2.0687 -0.0113
 4061TIP3   OH233597   4.286   1.102   1.330 -0.0517 -0.0558  0.1007
 4061TIP3    H133598   4.292   1.174   1.267  0.9771 -0.6383 -0.5034
 4061TIP3    H233599   4.201   1.061   1.313 -1.3376  1.8887  1.4691
 4062TIP3   OH233600   2.510   3.514  14.693 -0.3424  0.3197  0.0785
 4062TIP3    H133601   2.523   3.471  14.609 -0.3913  0.1062  0.1778
 4062TIP3    H233602   2.432   3.568  14.682 -1.4437 -1.1276  0.5256
 4063TIP3   OH233603   3.787   2.435  14.430 -0.2318 -0.1690 -0.0584
 4063TIP3    H133604   3.826   2.493  14.365 -0.8862 -0.2564 -0.5339
 4063TIP3    H233605   3.714   2.393  14.385 -1.6079  0.8248  1.1353
 4064TIP3   OH233606   1.421   0.571  17.110 -0.4058  0.4167  0.1169
 4064TIP3    H133607   1.492   0.628  17.083  0.9726 -1.0235  0.5385
 4064TIP3    H233608   1.354   0.630  17.144  0.3652  1.8447 -0.7517
 4065TIP3   OH233609   0.605   1.262  10.425 -0.0731 -0.1826 -0.5526
 4065TIP3    H133610   0.618   1.189  10.486 -0.5463  0.3744  0.2335
 4065TIP3    H233611   0.510   1.264  10.411 -0.5713  2.4330  2.2228
 4066TIP3   OH233612   2.052   5.335   2.145  0.2233  0.3228 -0.2172
 4066TIP3    H133613   2.037   5.319   2.238  1.1917 -0.5065 -0.1792
 4066TIP3    H233614   1.977   5.387   2.117 -0.2051  0.3809  0.9693
 4067TIP3   OH233615   4.610   5.945   3.010  0.1780  0.0747  0.1322
 4067TIP3    H133616   4.703   5.924   3.000 -0.0978 -0.4770 -1.4890
 4067TIP3    H233617   4.569   5.861   3.034 -0.2808 -0.3381 -1.9409
 4068TIP3   OH233618   1.318   4.696  12.932  0.4608 -0.0949 -0.1446
 4068TIP3    H133619   1.358   4.609  12.940  0.8639 -0.1658 -2.3141
 4068TIP3    H233620   1.253   4.699  13.003  0.7590 -1.9810  0.2682
 4069TIP3   OH233621   0.275   3.772   3.405 -0.2717 -0.4971 -0.0938
 4069TIP3    H133622   0.249   3.744   3.493  2.9018  0.3305  1.2570
 4069TIP3    H233623   0.360   3.814   3.418 -0.3154  0.8851 -3.4132
 4070TIP3   OH233624   3.504   3.880  12.568 -0.1796 -0.3523 -0.6429
 4070TIP3    H133625   3.586   3.912  12.530 -0.7336  1.1031 -0.6628
 4070TIP3    H233626   3.491   3.934  12.646 -1.0932 -0.6125 -0.6044
 4071TIP3   OH233627   2.547   3.511  17.116  0.0928  0.5004 -0.8631
 4071TIP3    H133628   2.453   3.526  17.118 -0.3348 -1.8221  0.8644
 4071TIP3    H233629   2.568   3.477  17.203  2.4937  0.6949 -1.2888
 4072TIP3   OH233630   3.802   3.659  15.146  0.2259  0.2900 -0.2961
 4072TIP3    H133631   3.845   3.745  15.153  0.9470 -0.1185  0.4463
 4072TIP3    H233632   3.753   3.664  15.064  1.4848  0.8680 -1.0463
 4073TIP3   OH233633   1.971   1.090   4.936  0.7601  0.1749  0.9334
 4073TIP3    H133634   1.891   1.142   4.937  0.7598  0.2772 -1.2638
 4073TIP3    H233635   2.014   1.113   5.019 -0.0640  2.3509  0.8367
 4074TIP3   OH233636   2.001   4.350   1.995  0.6602 -0.2764 -0.2985
 4074TIP3    H133637   1.948   4.332   1.918 -0.2732  1.9562 -0.2504
 4074TIP3    H233638   2.076   4.292   1.987  0.4751 -0.2629 -2.7730
 4075TIP3   OH233639   4.160   4.338  16.554  1.0636 -0.1357  0.0254
 4075TIP3    H133640   4.136   4.431  16.560  1.6379 -0.0510  1.2146
 4075TIP3    H233641   4.233   4.336  16.493  0.3674  0.0517 -0.8323
 4076TIP3   OH233642   2.450   3.974   5.765  0.4934  0.6898  0.2271
 4076TIP3    H133643   2.402   3.994   5.845  1.1322  0.3989  0.6888
 4076TIP3    H233644   2.383   3.972   5.696 -0.5275 -1.9357  1.1755
 4077TIP3   OH233645   1.627   5.742  13.864 -0.0727  0.6007 -0.1705
 4077TIP3    H133646   1.602   5.681  13.795  0.2481  0.6080 -0.2976
 4077TIP3    H233647   1.648   5.823  13.817 -1.5293  1.1471  0.0847
 4078TIP3   OH233648   4.906   6.401  10.717  0.4282 -0.2161 -0.8311
 4078TIP3    H133649   4.878   6.408  10.625 -3.0720  0.8322  0.1793
 4078TIP3    H233650   4.944   6.486  10.737  0.0809 -0.0243 -0.9810
 4079TIP3   OH233651   3.797   2.919   1.956  0.8214  0.2691  0.1294
 4079TIP3    H133652   3.816   3.011   1.974 -0.6283  0.7134 -0.4200
 4079TIP3    H233653   3.856   2.870   2.014  1.3827  1.5402  0.6690
 4080TIP3   OH233654   2.592   6.030  11.759  0.1666  0.5042  0.0760
 4080TIP3    H133655   2.576   6.066  11.671 -1.8975  0.7621  0.5170
 4080TIP3    H233656   2.676   6.068  11.784  0.5938  0.7718 -1.6059
 4081TIP3   OH233657   1.151   3.083  14.397 -0.5807 -0.3679  0.4001
 4081TIP3    H133658   1.124   3.063  14.486 -1.5703  3.3158  1.0934
 4081TIP3    H233659   1.096   3.026  14.342 -2.9111  0.1365  2.0622
 4082TIP3   OH233660   2.941   1.942   5.726 -0.2073 -0.3426  0.0370
 4082TIP3    H133661   2.906   1.935   5.638 -0.5236  1.3877 -0.0184
 4082TIP3    H233662   2.867   1.923   5.784 -0.0768 -1.1716 -0.0670
 4083TIP3   OH233663   2.158   0.363  11.917  0.8964  0.0029 -0.1661
 4083TIP3    H133664   2.077   0.371  11.866  0.0671 -0.2452  1.0747
 4083TIP3    H233665   2.129   0.354  12.008  2.3698  2.7168  0.6921
 4084TIP3   OH233666   3.589   5.694  12.765  0.1099 -0.9209  0.0100
 4084TIP3    H133667   3.665   5.714  12.710  0.6019  0.7478  1.2144
 4084TIP3    H233668   3.514   5.722  12.713  0.6518  2.3566  0.7341
 4085TIP3   OH233669   1.243   2.453   1.878  0.1065 -0.2806  0.1157
 4085TIP3    H133670   1.225   2.359   1.883 -0.3787 -0.2179 -0.3375
 4085TIP3    H233671   1.232   2.485   1.967 -0.8091 -0.4733  0.0847
 4086TIP3   OH233672   3.082   1.044  11.616 -0.2677 -0.4935 -0.2095
 4086TIP3    H133673   3.146   0.989  11.572 -0.8218 -0.8787 -0.5517
 4086TIP3    H233674   3.024   1.075  11.546  0.7288  1.5375 -0.2140
 4087TIP3   OH233675   1.636   5.452  12.721  0.0656 -0.3499 -0.0655
 4087TIP3    H133676   1.722   5.421  12.694  0.5244  1.0707 -0.3011
 4087TIP3    H233677   1.638   5.452  12.817 -0.3275 -2.0205 -0.0245
 4088TIP3   OH233678   4.661   4.045   0.202 -0.2300  0.0247  0.4544
 4088TIP3    H133679   4.586   4.017   0.151  0.3560  1.6367 -1.4064
 4088TIP3    H233680   4.696   4.121   0.155  1.8671  0.0487  1.8834
 4089TIP3   OH233681   0.714   4.144   4.434 -0.5680 -0.3985 -0.2204
 4089TIP3    H133682   0.793   4.095   4.457 -1.4913 -1.8490 -0.0237
 4089TIP3    H233683   0.711   4.216   4.496  0.3461 -0.6097  0.0789
 4090TIP3   OH233684   3.746   0.087  10.747  0.3399  0.0560  1.0061
 4090TIP3    H133685   3.651   0.102  10.740  0.1196 -0.7533  1.9879
 4090TIP3    H233686   3.785   0.173  10.734 -0.5267  0.3867  0.5133
 4091TIP3   OH233687   3.990   4.195   0.070 -0.5597  0.0541  0.0416
 4091TIP3    H133688   3.959   4.110   0.102 -1.5784 -0.3234 -1.8230
 4091TIP3    H233689   3.936   4.213  -0.006  0.8340  1.5627 -0.6477
 4092TIP3   OH233690   3.505   5.414  10.465 -0.2075 -0.1648  0.3446
 4092TIP3    H133691   3.457   5.425  10.382  0.0759  0.7320  0.3013
 4092TIP3    H233692   3.488   5.323  10.489 -0.8577 -0.2399 -0.3495
 4093TIP3   OH233693   1.637   5.473   4.974 -0.4449  0.1625 -0.5277
 4093TIP3    H133694   1.612   5.434   5.058 -0.5207  1.9027  0.2890
 4093TIP3    H233695   1.610   5.564   4.981  0.8576  0.6859 -1.9080
 4094TIP3   OH233696   2.020   4.228  12.610 -0.1794 -0.2134 -0.3103
 4094TIP3    H133697   2.078   4.152  12.607 -2.3417 -1.9748  0.3967
 4094TIP3    H233698   2.080   4.303  12.610  2.0745 -1.9007  0.1366
 4095TIP3   OH233699   4.503   5.529  15.158 -0.5170 -0.0844  0.2034
 4095TIP3    H133700   4.567   5.505  15.225 -0.4488  0.8134  0.4684
 4095TIP3    H233701   4.510   5.624  15.150  0.8522 -0.3177 -2.4502
 4096TIP3   OH233702   0.165   4.862   3.188  0.0493  0.4046 -0.3374
 4096TIP3    H133703   0.208   4.826   3.265 -0.5414 -0.6351 -0.4773
 4096TIP3    H233704   0.225   4.929   3.155  0.6557  0.3179  0.5775
 4097TIP3   OH233705   0.450   5.803  13.865 -0.6254 -0.2300  0.6034
 4097TIP3    H133706   0.437   5.717  13.906 -1.8415  0.2804  1.3166
 4097TIP3    H233707   0.423   5.866  13.932  0.4191  0.7291  0.1510
 4098TIP3   OH233708   3.912   4.890  12.547 -0.0427 -0.5523 -0.3314
 4098TIP3    H133709   3.852   4.894  12.622  0.2379  0.8161 -0.1491
 4098TIP3    H233710   3.856   4.871  12.472 -0.7964  1.1376 -0.2328
 4099TIP3   OH233711   4.679   3.656  15.523 -0.7540 -0.1706  0.4296
 4099TIP3    H133712   4.681   3.564  15.498 -2.3642 -0.7723  2.3276
 4099TIP3    H233713   4.761   3.670  15.570 -1.1881 -1.0726  1.4913
 4100TIP3   OH233714   4.106   6.747   3.749  0.3860 -0.4244 -0.4397
 4100TIP3    H133715   4.139   6.657   3.751  1.0986 -0.2002  2.4194
 4100TIP3    H233716   4.130   6.780   3.663  0.5792 -2.7747 -1.3657
 4101TIP3   OH233717   0.579   4.994  16.551 -0.3679 -0.4301  0.0967
 4101TIP3    H133718   0.560   4.935  16.624 -1.0746  0.4070  0.6010
 4101TIP3    H233719   0.494   5.013  16.512 -0.1529  0.2948 -0.0341
 4102TIP3   OH233720   1.356   6.727   2.778 -0.2737  0.1657 -0.0892
 4102TIP3    H133721   1.402   6.646   2.803  0.1865 -0.0628 -1.5717
 4102TIP3    H233722   1.268   6.698   2.756 -0.3917  0.2200  0.3039
 4103TIP3   OH233723   6.295   1.995  15.438  0.4138  0.0801  1.0251
 4103TIP3    H133724   6.371   2.048  15.418 -0.1635  0.9826  1.1757
 4103TIP3    H233725   6.331   1.914  15.475  1.2932  0.4280  0.9468
 4104TIP3   OH233726   1.278   0.811  14.034  0.2654 -0.2377 -0.6002
 4104TIP3    H133727   1.264   0.745  13.967  0.2456  1.0745 -1.9321
 4104TIP3    H233728   1.250   0.893  13.994 -0.1164  0.5377  1.1543
 4105TIP3   OH233729   1.774   4.874  16.988 -0.6714 -0.1234  0.2216
 4105TIP3    H133730   1.821   4.940  17.039  0.2114  0.0011 -0.7451
 4105TIP3    H233731   1.808   4.790  17.020  0.2338 -0.0338 -0.4921
 4106TIP3   OH233732   1.095   3.020   2.349  0.0693  0.0460 -0.1865
 4106TIP3    H133733   1.102   3.113   2.331 -0.6820  0.3033  0.7387
 4106TIP3    H233734   1.128   2.977   2.270 -0.9758  1.0792 -1.2297
 4107TIP3   OH233735   0.321   4.631   0.984 -0.4417  0.4183 -0.6399
 4107TIP3    H133736   0.264   4.681   1.043  0.8274  1.1361  0.0128
 4107TIP3    H233737   0.311   4.540   1.013 -1.0977  0.5557 -0.4078
 4108TIP3   OH233738   0.863   5.106  14.031  0.1529  0.1560  0.4986
 4108TIP3    H133739   0.823   5.027  13.994 -1.2040  0.7301  0.6633
 4108TIP3    H233740   0.940   5.123  13.977 -0.1922 -0.6309 -0.2498
 4109TIP3   OH233741   5.972   3.158   0.819  0.7101  0.1580 -0.0020
 4109TIP3    H133742   5.947   3.182   0.908  1.6549 -1.0617  0.6276
 4109TIP3    H233743   6.035   3.086   0.830  0.7358 -0.1215 -1.6561
 4110TIP3   OH233744   1.115   3.390  12.090 -0.4149 -0.3419 -0.2716
 4110TIP3    H133745   1.126   3.415  12.182 -0.0997  0.6948 -0.5699
 4110TIP3    H233746   1.056   3.315  12.093  0.2462 -0.8458  0.8267
 4111TIP3   OH233747   1.469   0.434  15.703  0.3264 -0.0403 -0.4955
 4111TIP3    H133748   1.474   0.511  15.760  0.3405 -0.2065 -0.2739
 4111TIP3    H233749   1.375   0.417  15.693  0.3364 -0.3171 -0.1140
 4112TIP3   OH233750   1.258   4.386  14.662 -0.3495 -0.2654  0.4493
 4112TIP3    H133751   1.285   4.447  14.593  0.6277 -1.1788  0.0173
 4112TIP3    H233752   1.308   4.413  14.739 -0.3167 -0.1969  0.4040
 4113TIP3   OH233753   4.066   4.911  13.257 -0.6852 -0.6556 -0.8197
 4113TIP3    H133754   4.004   4.968  13.211 -1.8747  0.1844  1.6497
 4113TIP3    H233755   4.018   4.830  13.272 -0.6865 -0.5437 -0.1923
 4114TIP3   OH233756   5.281   4.014   4.317  0.3450 -0.3332  0.3305
 4114TIP3    H133757   5.282   3.969   4.233  0.0641  1.6934 -0.8330
 4114TIP3    H233758   5.293   4.107   4.294  0.4298  0.2489  2.5402
 4115TIP3   OH233759   4.015   3.123  15.574 -0.3918  0.3319  0.1998
 4115TIP3    H133760   4.044   3.132  15.664 -0.0609 -1.7306  0.3615
 4115TIP3    H233761   4.092   3.092  15.527 -1.4797 -2.5343  0.0865
 4116TIP3   OH233762   2.626   6.169   5.372 -0.1108 -0.0879 -0.4795
 4116TIP3    H133763   2.684   6.121   5.312  0.2800 -0.5102  0.2227
 4116TIP3    H233764   2.685   6.220   5.427 -0.5503  2.2960 -2.0548
 4117TIP3   OH233765   3.513   1.303  13.728  0.5363 -0.0037 -0.0646
 4117TIP3    H133766   3.590   1.314  13.784  1.8162  0.5947 -1.8453
 4117TIP3    H233767   3.530   1.360  13.653 -1.8868  0.5159 -0.2999
 4118TIP3   OH233768   3.465   3.079  12.485 -0.2949 -0.0501 -0.2611
 4118TIP3    H133769   3.395   3.014  12.489  0.6508 -1.1407 -1.0152
 4118TIP3    H233770   3.546   3.028  12.496  0.3904  1.2082  0.8488
 4119TIP3   OH233771   3.205   4.855   6.260 -0.0633  0.1015  0.3638
 4119TIP3    H133772   3.239   4.774   6.298 -0.4223 -0.4130 -0.3772
 4119TIP3    H233773   3.124   4.871   6.308 -2.2140 -2.2654 -2.1248
 4120TIP3   OH233774   5.435   1.025  15.328 -0.2476  0.7425 -0.3192
 4120TIP3    H133775   5.379   0.948  15.315 -1.7746  1.9973 -1.5502
 4120TIP3    H233776   5.513   1.007  15.277 -0.3885 -0.1777 -0.2242
 4121TIP3   OH233777   2.175   3.771  16.717 -0.3642 -0.0987  0.0840
 4121TIP3    H133778   2.265   3.770  16.685 -0.0055  1.0625  0.9941
 4121TIP3    H233779   2.175   3.708  16.790 -0.1735  0.2460  0.3802
 4122TIP3   OH233780   4.103   2.520   2.657 -0.0281 -0.8509  0.4135
 4122TIP3    H133781   4.090   2.490   2.747  0.7136  0.3710  0.9536
 4122TIP3    H233782   4.082   2.613   2.660 -0.4011 -0.8803 -0.7866
 4123TIP3   OH233783   2.801   0.692   5.919 -0.1979  0.6989 -0.1729
 4123TIP3    H133784   2.780   0.607   5.959  2.0677 -0.0129 -0.3493
 4123TIP3    H233785   2.750   0.693   5.838 -0.0994 -0.5990 -0.2713
 4124TIP3   OH233786   1.564   5.409   0.342  0.9474 -0.6800 -0.2677
 4124TIP3    H133787   1.586   5.394   0.250 -0.2615 -1.3308 -0.4715
 4124TIP3    H233788   1.597   5.331   0.387  0.3891 -0.9696 -0.3530
 4125TIP3   OH233789   0.758   2.736   2.381 -0.7017  0.1315 -0.3044
 4125TIP3    H133790   0.774   2.764   2.471 -0.9614  0.5840 -0.3945
 4125TIP3    H233791   0.711   2.653   2.390 -2.5608  1.1496  0.0345
 4126TIP3   OH233792   4.822   3.795  15.036 -0.1108 -0.4220  0.1133
 4126TIP3    H133793   4.756   3.836  14.980 -0.2455  1.9113  1.8075
 4126TIP3    H233794   4.896   3.778  14.978 -1.6373 -1.8466 -1.5436
 4127TIP3   OH233795   2.795   0.910   6.424 -0.1916 -0.0240 -0.3819
 4127TIP3    H133796   2.754   0.951   6.500 -0.4262 -0.8871 -0.0227
 4127TIP3    H233797   2.749   0.826   6.416  1.4896 -1.0196  0.0309
 4128TIP3   OH233798   0.709   4.397   4.553 -0.0698 -0.4591 -0.4712
 4128TIP3    H133799   0.745   4.455   4.487  0.9603 -0.6586 -0.1056
 4128TIP3    H233800   0.655   4.454   4.608 -1.4083 -0.4018 -1.7953
 4129TIP3   OH233801   4.418   5.051   4.041 -0.5306 -0.4664 -0.4447
 4129TIP3    H133802   4.400   4.979   3.980 -2.3885 -0.5196  0.0959
 4129TIP3    H233803   4.484   5.015   4.101 -1.7089 -1.8987  0.0591
 4130TIP3   OH233804   5.021   2.258   0.644  0.0449 -0.7315  0.0572
 4130TIP3    H133805   4.928   2.257   0.620  0.3055 -0.5586 -0.9930
 4130TIP3    H233806   5.055   2.339   0.605  0.3362 -0.0427  1.6483
 4131TIP3   OH233807   6.647   0.970   2.113 -0.0991  0.0303  0.5955
 4131TIP3    H133808   6.713   1.010   2.169  1.3731  0.4624 -1.3232
 4131TIP3    H233809   6.587   1.042   2.091 -1.1658 -0.3245  2.2037
 4132TIP3   OH233810   0.743   5.705   5.313 -0.1597 -0.0356  0.2488
 4132TIP3    H133811   0.665   5.756   5.337 -1.3566 -1.4314 -0.5190
 4132TIP3    H233812   0.815   5.749   5.357 -1.5300  0.7002  1.8614
 4133TIP3   OH233813   4.237   4.968   3.798  0.3384 -0.3148  0.1077
 4133TIP3    H133814   4.262   4.926   3.716  1.0046  1.1595 -0.4878
 4133TIP3    H233815   4.157   5.016   3.777  1.3448  1.3268 -0.1483
 4134TIP3   OH233816   5.099   6.279   1.145 -0.5175 -0.1309  0.7203
 4134TIP3    H133817   5.066   6.223   1.074 -0.6294  0.3844  0.3656
 4134TIP3    H233818   5.033   6.347   1.153  0.2614  0.6899  0.2745
 4135TIP3   OH233819   6.767   1.498   3.376  0.5957 -0.3872  0.0436
 4135TIP3    H133820   6.822   1.514   3.299  1.0706 -1.3793  0.1505
 4135TIP3    H233821   6.688   1.457   3.341  0.3895  0.0475 -0.0046
 4136TIP3   OH233822   2.041   5.050   1.781 -0.4082  0.2358 -0.0448
 4136TIP3    H133823   1.984   5.042   1.858 -2.3086 -0.2421 -1.4100
 4136TIP3    H233824   2.112   5.106   1.810  0.0148 -1.4767  2.6206
 4137TIP3   OH233825   4.960   5.324   0.482 -0.3827 -0.1076  0.8477
 4137TIP3    H133826   4.906   5.392   0.522 -1.0091  0.4945 -0.9247
 4137TIP3    H233827   5.048   5.341   0.516 -0.4135  1.9651  0.0202
 4138TIP3   OH233828   5.029   4.448   1.515 -0.8854 -0.2661 -0.4657
 4138TIP3    H133829   5.112   4.488   1.489 -0.5558 -1.3099 -1.0830
 4138TIP3    H233830   4.970   4.467   1.442 -0.4263 -1.7830 -1.2635
 4139TIP3   OH233831   0.551   0.269   0.033 -0.2478  0.1154 -0.0807
 4139TIP3    H133832   0.479   0.250   0.093 -1.2552 -0.7873 -1.5122
 4139TIP3    H233833   0.560   0.189  -0.020  1.4688  0.3988 -0.2930
 4140TIP3   OH233834   5.465   4.702   0.725  0.1027 -0.2763  0.2222
 4140TIP3    H133835   5.471   4.606   0.730  0.9136 -0.2130  0.5287
 4140TIP3    H233836   5.554   4.733   0.741 -0.4009  0.5894  1.5980
 4141TIP3   OH233837   4.938   3.475   0.078 -0.7880  0.0500 -0.2887
 4141TIP3    H133838   4.858   3.503   0.033 -0.8530 -1.1755 -0.9906
 4141TIP3    H233839   4.988   3.429   0.011 -0.1518 -0.4329  0.5038
 4142TIP3   OH233840   0.992   2.914   3.554 -0.0637  0.2317 -0.6837
 4142TIP3    H133841   1.001   3.005   3.526  1.1163  0.5073  0.4962
 4142TIP3    H233842   1.063   2.901   3.617 -0.1138 -1.5578 -0.9437
 4143TIP3   OH233843   5.731   6.772   2.275  0.1488  0.6749  0.0296
 4143TIP3    H133844   5.758   6.753   2.365 -0.1996  0.9062  0.1888
 4143TIP3    H233845   5.639   6.745   2.273 -0.2423  1.9360  0.1423
 4144TIP3   OH233846   4.724   5.878  14.118 -0.2447  0.3089 -0.1530
 4144TIP3    H133847   4.721   5.782  14.126 -0.6343  0.2414 -1.0766
 4144TIP3    H233848   4.817   5.899  14.122 -0.2144  0.1756  2.9470
 4145TIP3   OH233849   2.793   4.814  12.152 -0.0767  0.7521  0.0600
 4145TIP3    H133850   2.885   4.800  12.177  0.0490  0.3276 -0.6014
 4145TIP3    H233851   2.765   4.889  12.205  0.2633  0.0999  1.2082
 4146TIP3   OH233852   1.499   6.357  11.841  0.2661  0.6534 -0.2290
 4146TIP3    H133853   1.430   6.388  11.782 -0.4417  0.2786  0.3784
 4146TIP3    H233854   1.479   6.264  11.854 -0.2085  0.9557  1.4089
 4147TIP3   OH233855   5.184   1.293  11.329 -0.1395  0.6487  0.2200
 4147TIP3    H133856   5.243   1.368  11.337  0.4020  0.2115  0.4477
 4147TIP3    H233857   5.226   1.238  11.262 -1.4977  1.4219 -1.3352
 4148TIP3   OH233858   5.432   4.454   4.502  0.0427 -0.0491 -0.4937
 4148TIP3    H133859   5.468   4.389   4.562 -1.6673 -0.0131  0.6595
 4148TIP3    H233860   5.376   4.509   4.557  0.1699  1.3978 -1.7392
 4149TIP3   OH233861   2.036   6.533   3.811 -0.4005  0.2919 -0.2069
 4149TIP3    H133862   1.965   6.525   3.748 -0.1209  2.1013 -0.8051
 4149TIP3    H233863   2.089   6.454   3.798 -1.1701 -0.0901 -1.1646
 4150TIP3   OH233864   2.976   3.390  15.565  0.0416  0.7731 -0.4183
 4150TIP3    H133865   2.999   3.334  15.491  0.8569  2.0474 -1.1663
 4150TIP3    H233866   2.908   3.448  15.532 -2.0042 -0.7602  0.8209
 4151TIP3   OH233867   4.916   5.343   5.417 -0.1264 -0.1309  0.1000
 4151TIP3    H133868   4.926   5.260   5.465  2.0024  0.3772  0.6530
 4151TIP3    H233869   4.963   5.329   5.335  0.6926  0.6734  0.4193
 4152TIP3   OH233870   0.538   5.028   4.940  0.8555  0.4450 -0.6121
 4152TIP3    H133871   0.542   5.044   5.034  0.6694 -0.8971 -0.3537
 4152TIP3    H233872   0.447   5.047   4.916  1.0358  1.3177 -0.6402
 4153TIP3   OH233873   2.994   0.141   2.049 -0.4506 -0.1927 -0.1264
 4153TIP3    H133874   2.937   0.143   2.127 -1.0158  0.3751 -0.5389
 4153TIP3    H233875   3.029   0.052   2.047  1.6908  0.4729  2.2693
 4154TIP3   OH233876   4.953   0.091  10.696 -0.5889  0.0180 -0.1693
 4154TIP3    H133877   5.004   0.137  10.763 -0.7696  1.9513 -1.3155
 4154TIP3    H233878   4.981  -0.001  10.705  1.2167  0.6136  0.8992
 4155TIP3   OH233879   5.251   6.666   3.146  0.2632  0.1525  0.1463
 4155TIP3    H133880   5.301   6.745   3.126 -0.6389  0.5770 -0.4445
 4155TIP3    H233881   5.266   6.652   3.239  1.3174  0.3836  0.0308
 4156TIP3   OH233882   3.628   6.664  14.227 -0.2517 -0.3718 -0.3746
 4156TIP3    H133883   3.607   6.677  14.135  1.8545 -0.9165 -0.9860
 4156TIP3    H233884   3.612   6.749  14.268 -2.5861 -0.5016 -0.9161
 4157TIP3   OH233885   2.212   1.373   3.089  0.0442 -0.7263 -0.5527
 4157TIP3    H133886   2.247   1.420   3.014  0.3627 -1.3843 -0.8172
 4157TIP3    H233887   2.249   1.286   3.083  0.4042 -0.6737  0.5951
 4158TIP3   OH233888   0.151   3.386  11.479  0.6041  0.3760  0.0096
 4158TIP3    H133889   0.062   3.420  11.466  0.6564  0.8193  0.7435
 4158TIP3    H233890   0.171   3.340  11.397 -1.5790 -2.7322  1.0398
 4159TIP3   OH233891   3.225   5.049  16.419 -0.4855  0.2854  0.0107
 4159TIP3    H133892   3.286   4.988  16.460  0.5843  0.1690 -1.6268
 4159TIP3    H233893   3.233   5.129  16.470 -0.8312 -0.4853  1.3150
 4160TIP3   OH233894   0.127   5.805  10.776 -0.7594  0.0310 -0.1677
 4160TIP3    H133895   0.101   5.846  10.859 -0.5002 -0.7023  0.2929
 4160TIP3    H233896   0.179   5.871  10.731  0.4438 -0.1030  0.9756
 4161TIP3   OH233897   2.824   4.965  12.870  0.0082 -0.0331 -0.2594
 4161TIP3    H133898   2.805   4.955  12.963  0.1331 -0.8384 -0.3157
 4161TIP3    H233899   2.757   5.027  12.839  0.9208  1.4713  0.6609
 4162TIP3   OH233900   1.343   6.585   4.799 -0.5195 -0.0941 -0.0819
 4162TIP3    H133901   1.395   6.600   4.877  0.1901  0.6470 -0.6713
 4162TIP3    H233902   1.307   6.672   4.777  1.4662  0.3390 -2.0566
 4163TIP3   OH233903   2.046   2.651  15.200 -0.4102  0.0183  0.2484
 4163TIP3    H133904   2.107   2.702  15.146 -1.3028  2.1685  1.1434
 4163TIP3    H233905   2.044   2.565  15.159 -0.4212  1.2901 -2.6927
 4164TIP3   OH233906   0.337   2.722   5.283 -0.3819  0.4431 -0.1455
 4164TIP3    H133907   0.362   2.770   5.362 -0.2886 -0.5409  0.4333
 4164TIP3    H233908   0.386   2.765   5.213  2.0227 -0.6342  0.7704
 4165TIP3   OH233909   5.360   0.211   4.374  0.2084 -0.8322  0.4821
 4165TIP3    H133910   5.287   0.215   4.435  0.3176 -1.9161  0.7066
 4165TIP3    H233911   5.319   0.220   4.287 -0.0894 -0.6232  0.6412
 4166TIP3   OH233912   5.101   2.380  11.981  0.5272  0.6359  0.5581
 4166TIP3    H133913   5.195   2.378  11.998  0.6165 -1.0680  0.0889
 4166TIP3    H233914   5.063   2.421  12.059  1.5232 -0.2552  1.5561
 4167TIP3   OH233915   4.111   4.119   4.408  0.6755  0.7325 -0.0163
 4167TIP3    H133916   4.179   4.107   4.475 -0.7986  0.8252  1.5639
 4167TIP3    H233917   4.069   4.201   4.432  1.0118  1.5085 -1.9377
 4168TIP3   OH233918   2.442   0.801  17.074 -0.1270 -0.2221  0.3319
 4168TIP3    H133919   2.398   0.768  16.995 -2.1189  1.0745  0.8156
 4168TIP3    H233920   2.444   0.725  17.133  0.9364 -1.0684 -0.7348
 4169TIP3   OH233921   5.867   3.886  13.359  0.4095  0.7097 -0.4159
 4169TIP3    H133922   5.926   3.812  13.371 -0.0707  0.5630  1.3514
 4169TIP3    H233923   5.924   3.961  13.343  1.0876  0.5249  1.0212
 4170TIP3   OH233924   4.568   0.476   1.037  0.7314  0.3802  0.4347
 4170TIP3    H133925   4.535   0.562   1.013 -1.1254 -0.4334 -0.1005
 4170TIP3    H233926   4.565   0.475   1.133 -0.2565  0.5498  0.4133
 4171TIP3   OH233927   6.288   3.498  12.939  0.0467  0.3204 -0.8088
 4171TIP3    H133928   6.221   3.515  13.006 -0.1433 -1.0287 -0.6270
 4171TIP3    H233929   6.271   3.408  12.910  1.9132 -0.1363 -0.6054
 4172TIP3   OH233930   1.728   1.809  12.883  0.3030 -0.6848  0.4030
 4172TIP3    H133931   1.786   1.860  12.827 -1.2680  1.4866  0.6095
 4172TIP3    H233932   1.654   1.785  12.827 -0.1079 -0.6537  0.9153
 4173TIP3   OH233933   6.551   2.148   0.527 -0.3598 -0.3305  0.1759
 4173TIP3    H133934   6.592   2.188   0.450 -0.5337  1.4534  0.9473
 4173TIP3    H233935   6.463   2.125   0.499 -0.5431  0.6436 -0.0796
 4174TIP3   OH233936   1.867   5.975   4.908  0.5244 -0.0137 -0.4112
 4174TIP3    H133937   1.860   6.066   4.881 -0.8093  0.0910  0.2320
 4174TIP3    H233938   1.836   5.925   4.833  2.2658 -0.0328 -1.1771
 4175TIP3   OH233939   5.441   0.074  14.666 -0.9904  0.2081 -0.0955
 4175TIP3    H133940   5.431   0.166  14.693 -1.6469  0.0994  0.0301
 4175TIP3    H233941   5.450   0.079  14.571  1.7410  0.6300  0.0911
 4176TIP3   OH233942   5.200   2.941  14.249  0.1312  0.4623 -0.1477
 4176TIP3    H133943   5.110   2.957  14.279  0.9983  3.6565  1.2341
 4176TIP3    H233944   5.231   2.869  14.303 -1.0015  0.6256  0.7554
 4177TIP3   OH233945   2.868   5.623   5.634 -0.1654 -0.0543 -0.5384
 4177TIP3    H133946   2.949   5.673   5.623 -0.8826  1.3063  0.1267
 4177TIP3    H233947   2.854   5.620   5.729 -0.4505 -1.0205 -0.6035
 4178TIP3   OH233948   1.420   5.036   3.056  0.0508 -0.1876  0.1543
 4178TIP3    H133949   1.465   5.116   3.031 -3.0480  1.4881 -0.5436
 4178TIP3    H233950   1.489   4.970   3.060  2.5402  2.1925 -0.5215
 4179TIP3   OH233951   2.392   0.056  13.310  0.1492  0.1313  0.3427
 4179TIP3    H133952   2.451   0.092  13.244 -0.3940 -0.3718 -0.4326
 4179TIP3    H233953   2.450   0.010  13.371  0.7678  1.5436  0.8753
 4180TIP3   OH233954   2.354   3.501   3.481 -0.3703  0.2591  0.1007
 4180TIP3    H133955   2.444   3.479   3.506 -0.5770  1.2143  1.8402
 4180TIP3    H233956   2.363   3.558   3.405  0.4161 -0.6925 -0.5414
 4181TIP3   OH233957   2.716   0.439  16.579  0.3454 -0.1155  0.3564
 4181TIP3    H133958   2.645   0.379  16.601 -1.6699  2.1753  0.5481
 4181TIP3    H233959   2.772   0.390  16.519 -3.2917 -1.0107 -2.6700
 4182TIP3   OH233960   4.228   4.916   2.617  0.3704 -0.5048  0.5974
 4182TIP3    H133961   4.207   4.876   2.533  2.5806 -4.2809  1.6216
 4182TIP3    H233962   4.144   4.933   2.658 -0.7487  0.9022 -2.0231
 4183TIP3   OH233963   1.949   6.416   4.513  0.5450  0.0953 -0.2667
 4183TIP3    H133964   1.878   6.360   4.482  1.0051  0.4236 -1.9728
 4183TIP3    H233965   1.904   6.487   4.560 -0.1495 -0.4973 -0.0116
 4184TIP3   OH233966   3.666   6.041  16.253 -0.1926  0.2696 -0.0045
 4184TIP3    H133967   3.732   5.994  16.303 -0.1244  0.5789  0.2042
 4184TIP3    H233968   3.707   6.056  16.167  0.1021  0.6652  0.2007
 4185TIP3   OH233969   4.150   1.008  12.617 -0.2567  0.0725  0.1954
 4185TIP3    H133970   4.206   1.040  12.687  0.7314  1.1445 -1.0306
 4185TIP3    H233971   4.191   0.926  12.589  0.6956  0.8024 -0.6301
 4186TIP3   OH233972   6.232   0.791   3.226  0.4694 -0.2916 -0.1643
 4186TIP3    H133973   6.242   0.863   3.164  2.8060 -0.9915 -0.7161
 4186TIP3    H233974   6.212   0.715   3.172  2.3007 -0.8628 -0.1024
 4187TIP3   OH233975   3.290   5.379  12.936 -0.8984  0.1085 -0.8301
 4187TIP3    H133976   3.329   5.399  13.021 -2.3024 -0.7567  0.0607
 4187TIP3    H233977   3.232   5.453  12.918  0.8825  1.2805 -2.0429
 4188TIP3   OH233978   6.377   5.664   1.473 -0.7369 -0.0400 -0.2782
 4188TIP3    H133979   6.302   5.675   1.532 -0.7181  0.0650 -0.2743
 4188TIP3    H233980   6.454   5.678   1.529 -0.7154 -0.0903 -0.2949
 4189TIP3   OH233981   1.574   0.661  15.311 -0.1928 -0.4969  0.2226
 4189TIP3    H133982   1.652   0.715  15.311 -0.2861 -0.3556 -0.3255
 4189TIP3    H233983   1.559   0.641  15.219 -1.7955  0.9161  0.1341
 4190TIP3   OH233984   3.241   3.258   3.566 -0.3149  0.2462 -0.0376
 4190TIP3    H133985   3.210   3.332   3.618  1.6390  0.8606  0.3359
 4190TIP3    H233986   3.166   3.200   3.560 -0.6211  0.0290  3.6322
 4191TIP3   OH233987   5.484   5.350   3.131  0.0332  0.5645 -0.3217
 4191TIP3    H133988   5.522   5.262   3.126  0.0823  0.5307  0.4806
 4191TIP3    H233989   5.486   5.371   3.225 -0.4679  1.2047 -0.4533
 4192TIP3   OH233990   6.159   2.817   2.611  0.9180 -0.1259 -0.0863
 4192TIP3    H133991   6.133   2.891   2.556 -0.8966  1.1573  2.3162
 4192TIP3    H233992   6.122   2.740   2.566  0.1551  0.7755 -1.0673
 4193TIP3   OH233993   0.420   1.861   1.970  0.3709 -0.1593  0.1756
 4193TIP3    H133994   0.448   1.860   2.061  2.4229 -2.0388 -0.3807
 4193TIP3    H233995   0.447   1.947   1.937 -0.0195  0.3747  1.1931
 4194TIP3   OH233996   3.922   1.209   5.446 -0.5523 -0.1750 -0.0788
 4194TIP3    H133997   4.000   1.235   5.496 -0.0114  1.6465 -1.7324
 4194TIP3    H233998   3.910   1.117   5.468  1.5181 -0.2741  0.9634
 4195TIP3   OH233999   3.609   3.651   5.629  0.7300 -0.0132  0.1206
 4195TIP3    H134000   3.671   3.715   5.592  0.7081 -0.0816 -0.0376
 4195TIP3    H234001   3.622   3.657   5.723  0.8433  0.1107  0.0980
 4196TIP3   OH234002   6.686   5.240  16.088 -0.6641  0.1257  0.3223
 4196TIP3    H134003   6.613   5.273  16.142 -0.3500  0.0763  0.7839
 4196TIP3    H234004   6.662   5.149  16.071 -2.9559  1.1932 -3.3421
 4197TIP3   OH234005   4.189   5.001  17.030  0.4534  0.3884  0.5230
 4197TIP3    H134006   4.119   5.067  17.031 -0.5287 -0.6120  0.4782
 4197TIP3    H234007   4.210   4.988  17.122 -0.9780 -0.8566  0.7147
 4198TIP3   OH234008   3.913   4.353   3.392 -0.1858  0.3251  0.7127
 4198TIP3    H134009   3.949   4.441   3.379  1.1377 -0.1733  0.8445
 4198TIP3    H234010   3.896   4.347   3.486 -0.9992  0.7026  0.5919
 4199TIP3   OH234011   2.380   2.636   0.877 -0.3893  0.3273  0.0721
 4199TIP3    H134012   2.326   2.596   0.946  0.5058 -0.4648  0.3390
 4199TIP3    H234013   2.409   2.719   0.914  0.7394 -0.4504  0.9942
 4200TIP3   OH234014   1.145   3.006  15.693 -0.3068 -0.0432 -0.2303
 4200TIP3    H134015   1.154   3.047  15.607 -0.7682  0.7012  0.0632
 4200TIP3    H234016   1.191   2.922  15.685 -0.3942 -0.0079 -1.2138
 4201TIP3   OH234017   3.268   1.643   0.472 -0.3009 -0.4269 -0.3559
 4201TIP3    H134018   3.287   1.559   0.513  0.5860  0.5951  1.4963
 4201TIP3    H234019   3.332   1.703   0.510 -0.6199  1.0090 -1.9498
 4202TIP3   OH234020   0.386   1.956   4.265 -0.5736  0.0837 -0.0712
 4202TIP3    H134021   0.363   1.879   4.212 -0.3072 -0.4817  0.6095
 4202TIP3    H234022   0.303   1.983   4.305 -0.2334 -1.7035  2.0599
 4203TIP3   OH234023   1.907   5.033   0.051 -0.0184 -0.0704 -0.5589
 4203TIP3    H134024   1.953   5.114   0.030  1.6427 -0.5071  1.1030
 4203TIP3    H234025   1.851   5.055   0.125 -1.2816  0.0571 -1.5258
 4204TIP3   OH234026   2.798   4.973  16.804 -1.1578  0.0271  0.2805
 4204TIP3    H134027   2.743   4.895  16.800  0.9801 -1.6442  1.2964
 4204TIP3    H234028   2.801   5.005  16.714 -2.6322 -0.6066 -0.0299
 4205TIP3   OH234029   5.757   0.358  12.439  0.6976 -0.1478  0.4023
 4205TIP3    H134030   5.672   0.367  12.396  0.7142 -1.1186  0.1416
 4205TIP3    H234031   5.795   0.279  12.401  2.8712  1.6194 -1.4110
 4206TIP3   OH234032   2.732   4.596  15.706  0.3028 -0.6052  0.2971
 4206TIP3    H134033   2.817   4.634  15.730  0.0899 -0.0766  0.2140
 4206TIP3    H234034   2.749   4.502  15.702  1.4286 -0.3845 -1.7963
 4207TIP3   OH234035   5.951   0.850   0.712 -0.0912  0.3958  0.0097
 4207TIP3    H134036   6.001   0.929   0.693  0.1476  0.6640  1.6461
 4207TIP3    H234037   5.982   0.821   0.798 -1.2192 -0.6436  0.0984
 4208TIP3   OH234038   3.028   5.614   2.874  0.2587  0.2293  0.4411
 4208TIP3    H134039   2.998   5.552   2.940  0.3455 -0.1996  0.0872
 4208TIP3    H234040   2.985   5.697   2.896 -1.5454 -0.4688 -0.3011
 4209TIP3   OH234041   1.756   4.443  13.958  0.4142  0.1602  0.3388
 4209TIP3    H134042   1.673   4.488  13.976  0.3932  0.1224  0.3363
 4209TIP3    H234043   1.758   4.370  14.019  0.1902 -0.1617 -0.0330
 4210TIP3   OH234044   1.704   1.612   2.430 -0.2006 -0.4334 -0.0332
 4210TIP3    H134045   1.780   1.588   2.482  0.5864 -1.0868 -1.4437
 4210TIP3    H234046   1.700   1.547   2.361 -2.6239 -0.9876  0.5317
 4211TIP3   OH234047   3.881   4.183  15.024 -0.1271 -0.4371 -0.4542
 4211TIP3    H134048   3.880   4.241  14.948 -0.7572 -0.8654 -0.7816
 4211TIP3    H234049   3.860   4.240  15.098  2.0122  0.3077 -0.3358
 4212TIP3   OH234050   4.880   5.306  11.497 -0.3360  0.2428  0.7824
 4212TIP3    H134051   4.958   5.278  11.449  0.2284 -1.1378  2.4173
 4212TIP3    H234052   4.874   5.400  11.480 -0.1733 -0.1549 -1.9137
 4213TIP3   OH234053   5.078   5.973   1.609 -0.2666 -0.6763 -0.0802
 4213TIP3    H134054   5.171   5.953   1.596 -0.1204  0.2921 -0.5941
 4213TIP3    H234055   5.078   6.037   1.681 -0.1183  2.6391 -2.7869
 4214TIP3   OH234056   2.939   4.794  13.074  0.2012 -0.3760 -0.4900
 4214TIP3    H134057   2.980   4.770  12.991 -2.5911 -1.7324 -1.6089
 4214TIP3    H234058   2.915   4.710  13.114 -0.2150  0.3210  0.7779
 4215TIP3   OH234059   4.106   4.806   1.624  1.0395 -0.4218 -0.2740
 4215TIP3    H134060   4.014   4.808   1.652  0.2276 -2.9481 -2.2583
 4215TIP3    H234061   4.106   4.852   1.540  1.8236  0.3797  0.1497
 4216TIP3   OH234062   0.502   4.673  16.184 -0.2650 -0.1464  0.3271
 4216TIP3    H134063   0.585   4.630  16.207  0.1020  0.8445  0.9231
 4216TIP3    H234064   0.528   4.745  16.126 -0.6874  0.2375  0.6054
 4217TIP3   OH234065   2.643   4.412   0.657  0.6737 -0.5558 -0.1563
 4217TIP3    H134066   2.613   4.409   0.566 -1.1568 -0.6206  0.4197
 4217TIP3    H234067   2.732   4.376   0.654  0.2379 -1.6061 -1.7578
 4218TIP3   OH234068   3.895   6.746   1.849  0.2151 -0.7934 -0.2770
 4218TIP3    H134069   3.851   6.703   1.776  1.9690  0.0867 -1.9475
 4218TIP3    H234070   3.955   6.680   1.883 -0.3199 -1.0825  0.1010
 4219TIP3   OH234071   6.744   5.210   6.344  0.6262 -0.1006 -0.3595
 4219TIP3    H134072   6.663   5.238   6.302  0.2996 -0.6567 -0.1107
 4219TIP3    H234073   6.772   5.134   6.292  0.1612 -0.8625  0.4783
 4220TIP3   OH234074   4.576   6.308   0.160  0.8484  0.3060  0.1203
 4220TIP3    H134075   4.544   6.289   0.248  0.6620  0.7171  0.1445
 4220TIP3    H234076   4.669   6.286   0.163  0.7554 -0.0757  0.2982
 4221TIP3   OH234077   6.226   6.637  16.437  0.4810  0.3750  0.0502
 4221TIP3    H134078   6.317   6.643  16.410  0.7934  0.8272  1.1393
 4221TIP3    H234079   6.227   6.657  16.531 -0.4249 -1.9086  0.6344
 4222TIP3   OH234080   3.427   1.234  15.754  0.0019  0.1231  0.1380
 4222TIP3    H134081   3.404   1.233  15.847 -1.6836  1.5006 -0.2145
 4222TIP3    H234082   3.499   1.297  15.747  0.9735 -0.8979  0.6456
 4223TIP3   OH234083   1.302   3.845   4.026 -0.0813 -0.2085  0.4576
 4223TIP3    H134084   1.379   3.881   3.981  1.0291 -1.6895  1.1052
 4223TIP3    H234085   1.324   3.850   4.119 -1.0507 -0.0892  0.6969
 4224TIP3   OH234086   5.137   2.329   0.338  0.3064 -0.0531  0.1695
 4224TIP3    H134087   5.105   2.379   0.262 -1.1838  0.9778  1.4130
 4224TIP3    H234088   5.186   2.393   0.389  0.2551 -0.4305  0.6955
 4225TIP3   OH234089   3.124   3.676  14.784 -0.0134 -0.1748 -0.4221
 4225TIP3    H134090   3.154   3.724  14.861  0.6991 -1.1002 -0.1112
 4225TIP3    H234091   3.182   3.704  14.714 -0.5490  0.5324 -0.6000
 4226TIP3   OH234092   2.219   5.197   0.618 -0.0366 -0.2745  0.2851
 4226TIP3    H134093   2.223   5.194   0.714 -0.4179  0.9951  0.3598
 4226TIP3    H234094   2.282   5.265   0.594 -0.4671 -0.0808 -0.3154
 4227TIP3   OH234095   5.031   6.524   0.225 -0.0573 -0.0523 -0.5599
 4227TIP3    H134096   4.980   6.544   0.304  1.3821  2.2752 -0.1323
 4227TIP3    H234097   5.104   6.471   0.258  0.0136  0.0871 -0.4925
 4228TIP3   OH234098   5.409   3.718   3.497  0.1256  0.0939  0.3598
 4228TIP3    H134099   5.447   3.731   3.410 -0.3854  1.8126  0.3687
 4228TIP3    H234100   5.450   3.785   3.552 -1.0689  0.3668  0.9553
 4229TIP3   OH234101   6.060   1.650  13.372  0.2187  0.4860 -0.3944
 4229TIP3    H134102   6.128   1.612  13.428  1.7079  2.2684 -0.9031
 4229TIP3    H234103   6.038   1.733  13.414  0.1444  1.0650 -1.5522
 4230TIP3   OH234104   1.416   4.143  13.580  0.6821 -0.4430 -0.0438
 4230TIP3    H134105   1.399   4.061  13.626  0.6538 -0.1952  0.3971
 4230TIP3    H234106   1.492   4.180  13.626 -0.4378  0.6789  0.9855
 4231TIP3   OH234107   0.313   5.173  11.765 -0.6491 -0.3825  0.3219
 4231TIP3    H134108   0.409   5.181  11.763 -0.6626 -0.2119  0.3886
 4231TIP3    H234109   0.286   5.223  11.841 -1.0177  2.0367 -1.2840
 4232TIP3   OH234110   5.342   5.789   2.850  0.0179 -0.0787 -0.0731
 4232TIP3    H134111   5.389   5.770   2.931  0.5250 -0.9632 -0.5541
 4232TIP3    H234112   5.327   5.703   2.810  0.5510  0.3857 -1.3446
 4233TIP3   OH234113   6.280   0.182  12.402 -0.7260 -0.4185  0.4105
 4233TIP3    H134114   6.343   0.176  12.473 -1.0699  1.3247  0.8871
 4233TIP3    H234115   6.322   0.237  12.336 -1.2283 -0.3143  0.1684
 4234TIP3   OH234116   1.093   5.203   0.612 -0.1780  0.1008  0.2883
 4234TIP3    H134117   1.095   5.175   0.703  2.7465 -2.1324 -0.3282
 4234TIP3    H234118   1.172   5.257   0.602 -0.3481  0.1404 -0.9757
 4235TIP3   OH234119   6.457   4.613   4.052 -0.2097 -0.4141  0.1203
 4235TIP3    H134120   6.477   4.629   4.144  2.7966  0.7799 -0.6194
 4235TIP3    H234121   6.478   4.520   4.039  1.5379 -0.0849  0.2491
 4236TIP3   OH234122   2.539   3.680   2.894  0.0088  0.0168  0.1449
 4236TIP3    H134123   2.611   3.742   2.904 -0.7093  1.0242 -0.6825
 4236TIP3    H234124   2.472   3.729   2.846 -1.5849 -0.6152  1.6350
 4237TIP3   OH234125   2.471   1.994   4.125 -0.2348  0.6523 -0.4322
 4237TIP3    H134126   2.544   1.974   4.067  0.8076  2.2337  0.2387
 4237TIP3    H234127   2.470   2.090   4.129 -0.4938  0.6058  1.8325
 4238TIP3   OH234128   1.772   5.254  15.413 -0.5975 -0.1590 -0.1603
 4238TIP3    H134129   1.846   5.257  15.352  1.5164 -1.3025  2.1601
 4238TIP3    H234130   1.742   5.163  15.410 -1.5622  0.1591 -0.6403
 4239TIP3   OH234131   4.571   1.963   4.766 -0.6160  0.5018  0.4245
 4239TIP3    H134132   4.639   1.988   4.828 -0.5323 -0.8288  0.8851
 4239TIP3    H234133   4.523   1.893   4.809 -0.2715 -0.7777 -1.1936
 4240TIP3   OH234134   2.013   0.657   1.411 -0.2856 -0.1928  0.4325
 4240TIP3    H134135   1.969   0.608   1.343  0.6581 -0.3839 -0.0615
 4240TIP3    H234136   2.103   0.623   1.411 -0.0045  0.5161  1.0707
 4241TIP3   OH234137   6.748   0.421   5.582 -0.6032 -0.7798 -0.4653
 4241TIP3    H134138   6.669   0.401   5.631  0.9716 -0.5022  2.4218
 4241TIP3    H234139   6.755   0.517   5.586  1.0317 -0.9196  1.4275
 4242TIP3   OH234140   3.759   0.559   3.789 -0.0987  0.3390  0.4428
 4242TIP3    H134141   3.837   0.554   3.733  0.6126  2.2109  1.1941
 4242TIP3    H234142   3.692   0.598   3.733  0.8214  2.9028  1.0156
 4243TIP3   OH234143   4.598   2.498  16.141  0.3138 -0.2608 -0.3308
 4243TIP3    H134144   4.647   2.443  16.079 -0.4562  0.1379 -1.3074
 4243TIP3    H234145   4.572   2.437  16.210  0.3799 -0.9127 -0.8658
 4244TIP3   OH234146   5.358   0.714  15.655  0.2404  0.2207 -0.0101
 4244TIP3    H134147   5.319   0.780  15.598 -0.7351 -0.5229 -0.2356
 4244TIP3    H234148   5.351   0.633  15.605 -0.2525 -0.3723  0.9967
 4245TIP3   OH234149   4.155   3.360  14.318 -0.1324  0.5612 -0.2006
 4245TIP3    H134150   4.127   3.451  14.323  0.1022  0.5568  2.5551
 4245TIP3    H234151   4.085   3.311  14.362  0.3929 -0.4255 -0.4319
 4246TIP3   OH234152   1.282   6.599  11.216 -0.8376 -0.2699 -0.4240
 4246TIP3    H134153   1.277   6.652  11.137 -1.4527 -1.3823 -1.1448
 4246TIP3    H234154   1.193   6.566  11.229 -0.5241 -0.9280  0.1407
 4247TIP3   OH234155   3.404   4.275  12.034  0.0884  0.8635 -0.4187
 4247TIP3    H134156   3.350   4.343  12.074 -2.1922 -0.9877 -0.1728
 4247TIP3    H234157   3.419   4.306  11.945 -1.5415  1.3690 -0.5540
 4248TIP3   OH234158   2.643   6.486  11.085 -0.0398 -0.3035  0.4768
 4248TIP3    H134159   2.574   6.436  11.042 -1.1381  0.5028  1.2281
 4248TIP3    H234160   2.599   6.528  11.159  1.4106 -0.2867  1.3707
 4249TIP3   OH234161   2.876   4.560  13.199  0.3324  0.2672  0.1667
 4249TIP3    H134162   2.811   4.490  13.190  0.2749  0.3686 -0.2152
 4249TIP3    H234163   2.888   4.569  13.294 -2.4957  2.3443  0.4584
 4250TIP3   OH234164   2.376   5.831   2.427 -0.1002 -0.0424 -0.3406
 4250TIP3    H134165   2.472   5.826   2.424 -0.1575 -0.9683 -1.9399
 4250TIP3    H234166   2.352   5.871   2.343 -1.0557  2.1326  0.8913
 4251TIP3   OH234167   0.076   0.217  10.035 -0.4139 -0.2746 -0.1596
 4251TIP3    H134168  -0.015   0.243  10.052 -0.4961 -1.5408  1.6386
 4251TIP3    H234169   0.078   0.200   9.941 -1.6624  1.1144 -0.4856
 4252TIP3   OH234170   2.748   3.970   6.277  0.3058 -0.3197  0.2505
 4252TIP3    H134171   2.658   3.983   6.306  0.1560  1.7429 -0.9399
 4252TIP3    H234172   2.775   3.889   6.320 -1.7334 -0.4215  1.5059
 4253TIP3   OH234173   5.406   4.469  13.357  0.2783  0.1068 -0.2062
 4253TIP3    H134174   5.347   4.543  13.344 -1.1794 -0.8351  0.7216
 4253TIP3    H234175   5.460   4.494  13.432 -0.1307  0.2882  0.0316
 4254TIP3   OH234176   4.074   3.032   4.508 -0.1461 -0.1252  0.2131
 4254TIP3    H134177   4.087   2.953   4.456 -1.0706  1.0338 -1.9310
 4254TIP3    H234178   4.144   3.091   4.480 -0.1331  0.2149  0.9439
 4255TIP3   OH234179   0.981   4.222  11.500  0.1810  0.3079  0.2842
 4255TIP3    H134180   1.018   4.195  11.415  0.3097  0.4420  0.2964
 4255TIP3    H234181   0.968   4.140  11.547 -0.9505  0.1354 -0.2886
 4256TIP3   OH234182   1.508   0.730   1.563  0.2064 -0.5177 -0.5857
 4256TIP3    H134183   1.538   0.764   1.647  2.0406  1.3404 -1.9067
 4256TIP3    H234184   1.413   0.741   1.565  0.1260 -1.1553  1.4635
 4257TIP3   OH234185   2.444   1.513  15.772  0.1330  0.4253  0.2818
 4257TIP3    H134186   2.489   1.432  15.794 -0.2825  0.0427 -0.2629
 4257TIP3    H234187   2.481   1.578  15.833  1.7769  0.2411 -0.4531
 4258TIP3   OH234188   6.399   1.254   4.718 -0.3998  0.1421 -0.6625
 4258TIP3    H134189   6.459   1.316   4.759 -1.2557  0.1213  0.6612
 4258TIP3    H234190   6.323   1.306   4.694 -0.7902 -0.2465 -0.2753
 4259TIP3   OH234191   1.651   5.608  14.562  0.1400  0.0773  0.1489
 4259TIP3    H134192   1.555   5.611  14.566  0.1243 -1.2088  1.6299
 4259TIP3    H234193   1.674   5.673  14.495 -1.8181 -0.5724 -1.2533
 4260TIP3   OH234194   1.079   2.828   4.829  0.3322 -0.4125  0.0749
 4260TIP3    H134195   1.078   2.803   4.921 -1.6131  0.0558  0.2333
 4260TIP3    H234196   1.171   2.830   4.806  0.8554 -0.8279  1.9333
 4261TIP3   OH234197   5.454   3.131  12.093  0.1106 -0.1550 -0.0552
 4261TIP3    H134198   5.447   3.112  12.187 -1.0404 -0.0678 -0.1081
 4261TIP3    H234199   5.532   3.084  12.065  1.1440  0.7308  1.1628
 4262TIP3   OH234200   5.272   2.744   5.051 -0.4431  0.6837  0.3635
 4262TIP3    H134201   5.262   2.650   5.038 -0.1294  0.5018  1.3284
 4262TIP3    H234202   5.203   2.783   4.997 -0.5236 -0.0901 -0.1083
 4263TIP3   OH234203   2.300   3.912  16.325  0.6945  0.0243 -0.1549
 4263TIP3    H134204   2.298   3.883  16.416  0.8066 -0.1330 -0.2015
 4263TIP3    H234205   2.335   3.836  16.277 -0.6980 -0.4062 -0.5265
 4264TIP3   OH234206   6.255   3.628   1.714  0.7013  0.3948  0.4631
 4264TIP3    H134207   6.205   3.590   1.786  1.1450 -1.7241 -0.2662
 4264TIP3    H234208   6.331   3.570   1.704  1.6790  1.7550 -0.4647
 4265TIP3   OH234209   5.516   3.058  12.351 -0.6482  0.0817  0.5031
 4265TIP3    H134210   5.547   3.085  12.437 -0.4827 -0.0645  0.4894
 4265TIP3    H234211   5.577   2.989  12.324 -0.5466  0.3011  0.1638
 4266TIP3   OH234212   0.502   4.408  15.027 -0.1546  0.3258  0.5537
 4266TIP3    H134213   0.559   4.409  15.104  1.4086 -1.5382 -0.4976
 4266TIP3    H234214   0.492   4.501  15.004  2.1409  0.7597  1.0465
 4267TIP3   OH234215   2.178   2.732  11.990 -0.2025 -0.3394 -0.2686
 4267TIP3    H134216   2.099   2.782  12.009 -0.1457 -0.5866  0.6918
 4267TIP3    H234217   2.179   2.663  12.057  0.2930 -0.9559 -0.8931
 4268TIP3   OH234218   3.859   0.403  13.598  0.0147  0.3913 -0.6487
 4268TIP3    H134219   3.954   0.398  13.613  0.2257  1.0262 -1.6872
 4268TIP3    H234220   3.849   0.475  13.535 -1.0089 -0.6730 -1.7483
 4269TIP3   OH234221   4.642   5.888   1.077 -0.2756  0.0344  0.5998
 4269TIP3    H134222   4.644   5.861   1.169 -0.6642 -1.1818  0.2595
 4269TIP3    H234223   4.725   5.935   1.065  0.5227 -1.1644  1.1732
 4270TIP3   OH234224   2.835   3.104  12.766  0.3172 -0.3609 -0.3793
 4270TIP3    H134225   2.912   3.161  12.758 -0.0024 -0.0681 -1.3964
 4270TIP3    H234226   2.806   3.117  12.857 -0.0000  1.4347 -0.6957
 4271TIP3   OH234227   2.085   4.425   4.736 -0.4596  0.7001 -0.5763
 4271TIP3    H134228   2.024   4.403   4.665 -0.2346 -0.2484 -0.4955
 4271TIP3    H234229   2.157   4.363   4.725 -0.0998  0.9956  0.0753
 4272TIP3   OH234230   3.123   5.472   3.185 -0.0702 -0.0397 -0.1159
 4272TIP3    H134231   3.105   5.429   3.268 -2.1614 -1.9811 -1.4541
 4272TIP3    H234232   3.043   5.521   3.166  1.7852  3.7071  0.7678
 4273TIP3   OH234233   0.059   6.767  11.750  0.5264 -0.1763  0.5289
 4273TIP3    H134234   0.131   6.829  11.735 -0.6433  1.3297  0.8862
 4273TIP3    H234235   0.026   6.748  11.663  2.4652 -2.3380  0.1807
 4274TIP3   OH234236   0.131   5.649   1.079 -0.5620 -0.1909 -0.0429
 4274TIP3    H134237   0.069   5.722   1.078  1.1079  1.3030 -1.0609
 4274TIP3    H234238   0.147   5.633   1.172 -1.5238  0.2053  0.2080
 4275TIP3   OH234239   3.451   6.429  13.469 -0.1131  0.2114 -0.1807
 4275TIP3    H134240   3.373   6.459  13.516  0.3187 -1.7579  1.9494
 4275TIP3    H234241   3.429   6.341  13.439  0.9638 -0.0071 -0.3675
 4276TIP3   OH234242   1.205   3.938  14.244  1.3688 -0.2185  0.3087
 4276TIP3    H134243   1.174   4.000  14.310  1.7804  0.5342 -0.1820
 4276TIP3    H234244   1.243   3.866  14.294  0.7836 -0.1264  0.8940
 4277TIP3   OH234245   2.031   3.619   2.791  0.0063  0.2948  0.2018
 4277TIP3    H134246   1.997   3.538   2.827  1.9818 -0.9970 -0.6398
 4277TIP3    H234247   1.972   3.640   2.719 -0.8582 -0.0607  0.7970
 4278TIP3   OH234248   1.143   6.716  13.806 -0.5588 -0.0399  0.1578
 4278TIP3    H134249   1.217   6.777  13.805 -1.2547  0.8166  0.0669
 4278TIP3    H234250   1.164   6.655  13.877 -0.5162  1.1574  1.2106
 4279TIP3   OH234251   4.444   0.200  15.532  0.2401  0.4389 -0.2280
 4279TIP3    H134252   4.368   0.255  15.552  0.3179  0.1469  0.8894
 4279TIP3    H234253   4.519   0.258  15.541  0.3369  0.1197  1.1328
 4280TIP3   OH234254   5.429   1.649  14.061 -0.3009 -0.0860 -0.3097
 4280TIP3    H134255   5.477   1.726  14.090  0.0791  0.2827 -1.8360
 4280TIP3    H234256   5.413   1.599  14.141  2.5741 -0.2097  0.2852
 4281TIP3   OH234257   3.838   2.886  12.001 -0.0784  0.4535 -0.0829
 4281TIP3    H134258   3.749   2.882  12.035 -1.6782  2.8320 -3.4275
 4281TIP3    H234259   3.838   2.830  11.923  0.9133  1.5023 -0.8826
 4282TIP3   OH234260   4.682   0.063   0.058  0.1834 -0.3563 -0.7200
 4282TIP3    H134261   4.671  -0.001   0.128 -1.4065 -1.2370 -1.7370
 4282TIP3    H234262   4.777   0.068   0.045  0.4395 -1.0102  0.7010
 4283TIP3   OH234263   3.363   0.100   4.862  0.3892 -0.5111 -0.1008
 4283TIP3    H134264   3.280   0.144   4.881  0.8343 -0.4330  1.8396
 4283TIP3    H234265   3.428   0.146   4.915  1.6266 -0.8318 -1.2746
 4284TIP3   OH234266   3.494   3.073  11.340  0.5882 -0.1353 -0.5308
 4284TIP3    H134267   3.440   3.010  11.388 -0.2193  0.8915 -0.0555
 4284TIP3    H234268   3.438   3.149  11.329  2.3672  1.5668  1.2837
 4285TIP3   OH234269   0.835   2.692   4.296  0.1482  0.1070 -0.2163
 4285TIP3    H134270   0.764   2.752   4.273 -0.3651 -0.3180  0.2351
 4285TIP3    H234271   0.820   2.616   4.239  0.8887  0.4583 -0.9012
 4286TIP3   OH234272   0.027   0.417  14.735 -0.0766 -0.1430  0.4669
 4286TIP3    H134273   0.061   0.427  14.646 -0.9126  0.1406  0.1659
 4286TIP3    H234274  -0.013   0.330  14.735  1.3811 -0.8441  1.0830
 4287TIP3   OH234275   0.811   0.669  13.521 -0.1316  0.3519  0.6919
 4287TIP3    H134276   0.771   0.591  13.561  1.1505 -0.2395  0.8655
 4287TIP3    H234277   0.737   0.719  13.487 -1.0760 -0.3265  1.6823
 4288TIP3   OH234278   2.020   3.085  16.710 -0.0672 -0.0722  0.2607
 4288TIP3    H134279   2.014   3.137  16.630  2.5507 -0.1686 -0.0949
 4288TIP3    H234280   2.097   3.028  16.696 -0.7452 -1.5289  2.0437
 4289TIP3   OH234281   0.670   0.150  14.520  0.6819 -0.2385  0.3221
 4289TIP3    H134282   0.727   0.125  14.593  0.8058  0.2147  0.3809
 4289TIP3    H234283   0.613   0.218  14.556  1.2899  0.5808 -0.2209
 4290TIP3   OH234284   0.938   2.410   3.518  0.1854 -0.4086  0.0532
 4290TIP3    H134285   0.904   2.421   3.607  4.6499  2.2384  1.8042
 4290TIP3    H234286   0.969   2.497   3.493  1.0780 -1.5140 -3.2220
 4291TIP3   OH234287   5.332   5.159  15.761  0.2706 -0.0947  0.5871
 4291TIP3    H134288   5.326   5.130  15.670 -0.5491 -0.7974  0.8551
 4291TIP3    H234289   5.242   5.171  15.789  0.5495  1.1015  1.0103
 4292TIP3   OH234290   5.146   6.551  11.518  0.1641  0.3568 -0.0621
 4292TIP3    H134291   5.114   6.523  11.432 -1.6557 -0.9470  0.9787
 4292TIP3    H234292   5.212   6.486  11.542 -0.0139  0.1783 -0.0588
 4293TIP3   OH234293   2.477   0.922   2.954  0.3305  0.2175 -0.6874
 4293TIP3    H134294   2.533   0.998   2.972  0.0064  0.5841 -1.1832
 4293TIP3    H234295   2.497   0.898   2.864 -0.2070  0.2660 -0.8220
 4294TIP3   OH234296   0.764   3.549  13.043  0.5234  0.0147  0.2410
 4294TIP3    H134297   0.799   3.601  12.970  0.0239 -0.8670 -0.6611
 4294TIP3    H234298   0.682   3.592  13.066 -2.3619 -2.6985 -3.5663
 4295TIP3   OH234299   5.556   3.037  15.874  0.4230  0.1782 -0.8678
 4295TIP3    H134300   5.554   2.960  15.816  0.6721 -1.1857  0.8366
 4295TIP3    H234301   5.647   3.043  15.903  0.4256  1.2057 -1.0579
 4296TIP3   OH234302   2.441   3.855  14.115 -0.4692  0.1151  0.2513
 4296TIP3    H134303   2.524   3.896  14.142 -0.0677 -1.9296  2.4798
 4296TIP3    H234304   2.393   3.842  14.197 -1.6705 -1.4624 -0.6478
 4297TIP3   OH234305   1.836   2.707  11.973  0.2703  0.5412 -0.1580
 4297TIP3    H134306   1.886   2.764  12.030  1.7992 -1.9386  1.1869
 4297TIP3    H234307   1.771   2.665  12.030  0.2160 -0.2067 -0.7471
 4298TIP3   OH234308   3.905   6.107  12.363 -0.2137  0.1411  0.3525
 4298TIP3    H134309   3.899   6.201  12.378  0.4498  0.4925 -1.3063
 4298TIP3    H234310   3.821   6.072  12.393 -1.0147  1.4533 -0.2565
 4299TIP3   OH234311   6.222   5.360  14.732 -0.2959 -0.1228 -0.5655
 4299TIP3    H134312   6.127   5.374  14.726 -0.3318 -0.7365 -1.6821
 4299TIP3    H234313   6.237   5.279  14.684  0.8091  0.0119 -0.4587
 4300TIP3   OH234314   3.879   4.443  14.552  0.7639  0.1732 -0.9479
 4300TIP3    H134315   3.903   4.356  14.584  1.3661  0.4331 -0.6885
 4300TIP3    H234316   3.937   4.458  14.478  0.9235  0.5164 -0.7537
 4301TIP3   OH234317   6.312   1.672   4.119 -0.0305  0.3692 -0.2823
 4301TIP3    H134318   6.218   1.655   4.127 -0.0116  0.5704  0.4309
 4301TIP3    H234319   6.353   1.587   4.130 -0.0418  0.5404  1.2562
 4302TIP3   OH234320   5.471   4.690  13.755  0.0112  0.0770  0.1056
 4302TIP3    H134321   5.485   4.710  13.847 -2.3660  1.6420  0.2147
 4302TIP3    H234322   5.435   4.771  13.718  1.0622 -0.4459 -2.2631
 4303TIP3   OH234323   4.479   6.441   1.448 -0.3347  0.3559  0.0627
 4303TIP3    H134324   4.383   6.436   1.457 -0.1305 -2.3934  2.1422
 4303TIP3    H234325   4.494   6.517   1.392 -3.7480  0.5710 -0.7841
 4304TIP3   OH234326   0.000   1.814  10.493  0.1375 -0.0201 -0.1240
 4304TIP3    H134327   0.062   1.798  10.565 -0.1437 -1.0763 -0.0919
 4304TIP3    H234328   0.042   1.774  10.416 -1.3650 -2.6414  0.3048
 4305TIP3   OH234329   4.850   5.769   1.253 -0.3623 -0.1138  0.9246
 4305TIP3    H134330   4.831   5.855   1.291 -0.9131 -0.8971  2.5273
 4305TIP3    H234331   4.930   5.782   1.202 -1.9880  1.9999 -1.3324
 4306TIP3   OH234332   0.587   2.027  16.366  0.3336 -0.4296 -0.5116
 4306TIP3    H134333   0.679   2.001  16.360  0.5960 -0.0051  1.1686
 4306TIP3    H234334   0.570   2.072  16.283  2.0619  0.7424 -0.2848
 4307TIP3   OH234335   1.715   5.953   1.701  0.4717 -0.2210 -0.4433
 4307TIP3    H134336   1.794   5.993   1.735 -0.2880  0.0617  1.0463
 4307TIP3    H234337   1.681   6.016   1.638  0.7615  0.2190 -0.1585
 4308TIP3   OH234338   0.967   4.490  14.193  0.0657  0.1852 -0.6128
 4308TIP3    H134339   1.020   4.435  14.136 -0.8309 -1.2467 -0.1124
 4308TIP3    H234340   0.893   4.517  14.139 -0.6954 -1.0317 -0.2031
 4309TIP3   OH234341   0.282   5.084   0.869 -0.3970 -0.0316 -0.2309
 4309TIP3    H134342   0.322   5.030   0.937 -0.3823  2.2967  1.7489
 4309TIP3    H234343   0.242   5.157   0.917 -0.4082  1.7291 -2.7347
 4310TIP3   OH234344   2.020   6.801  12.406  0.8293 -0.1116  0.1816
 4310TIP3    H134345   2.101   6.766  12.444  0.8334  0.0724  0.3478
 4310TIP3    H234346   1.968   6.724  12.384  0.7860 -0.2225  0.6521
 4311TIP3   OH234347   2.160   3.979  10.865 -0.3227  0.8490  0.0113
 4311TIP3    H134348   2.251   3.972  10.837 -0.2669  0.6369  0.2404
 4311TIP3    H234349   2.147   4.072  10.883  0.6144  0.5780  2.4907
 4312TIP3   OH234350   5.227   4.310   1.346  0.5181  0.0598  0.9987
 4312TIP3    H134351   5.252   4.260   1.424  2.2528 -0.6134  0.0648
 4312TIP3    H234352   5.262   4.259   1.273  2.3146  2.5705 -0.0286
 4313TIP3   OH234353   4.767   5.862   4.675  0.1011 -0.1068  0.1371
 4313TIP3    H134354   4.736   5.884   4.763 -1.8030  2.0808 -0.9935
 4313TIP3    H234355   4.741   5.936   4.621  1.5272 -1.2320 -2.2454
 4314TIP3   OH234356   0.144   4.087  12.937  0.0536  0.0650 -0.0819
 4314TIP3    H134357   0.237   4.063  12.929 -0.0313 -0.3100 -0.0025
 4314TIP3    H234358   0.100   4.003  12.953 -0.3329  0.2054 -0.4023
 4315TIP3   OH234359   4.312   2.429   0.747  0.0148 -0.1950  0.2358
 4315TIP3    H134360   4.252   2.355   0.746  1.2033 -1.2186  1.4081
 4315TIP3    H234361   4.344   2.433   0.837  0.4272  1.3824  0.0514
 4316TIP3   OH234362   4.955   3.942  15.810  0.0668  0.1592  1.2509
 4316TIP3    H134363   5.036   3.892  15.809 -0.2407 -0.3448  1.3033
 4316TIP3    H234364   4.935   3.955  15.903  0.8465  1.5489  1.2594
 4317TIP3   OH234365   6.048   4.647   4.182  0.0132  0.1565  0.3694
 4317TIP3    H134366   6.054   4.733   4.141 -0.4149 -0.0168 -0.0656
 4317TIP3    H234367   6.138   4.628   4.210  0.3282  0.2690 -0.5285
 4318TIP3   OH234368   2.512   1.875  13.881  0.6131 -0.0910  0.0489
 4318TIP3    H134369   2.457   1.949  13.908  1.1597  0.0599  0.7604
 4318TIP3    H234370   2.599   1.895  13.915  0.7474 -1.1084  0.3506
 4319TIP3   OH234371   5.254   6.517  13.998  0.5781  0.7300  0.1369
 4319TIP3    H134372   5.291   6.514  14.086  1.6505 -1.1916 -0.3400
 4319TIP3    H234373   5.300   6.589  13.955  1.0692  0.7659  0.7099
 4320TIP3   OH234374   2.119   6.168   4.588 -0.2678 -0.0469 -0.0509
 4320TIP3    H134375   2.061   6.169   4.664  0.8643  0.8353  0.8266
 4320TIP3    H234376   2.068   6.210   4.518 -0.6827  0.7543  0.7146
 4321TIP3   OH234377   5.718   0.954   2.029  0.0930 -0.6694 -0.0456
 4321TIP3    H134378   5.771   0.927   1.954  0.8465 -2.0952  0.9436
 4321TIP3    H234379   5.691   0.872   2.069 -2.5086  0.0194 -0.2206
 4322TIP3   OH234380   0.615   0.553  12.447  0.1113  0.2542 -0.0304
 4322TIP3    H134381   0.529   0.595  12.457 -0.6664 -1.0360 -1.0318
 4322TIP3    H234382   0.611   0.476  12.503  0.1477 -0.4786 -1.0148
 4323TIP3   OH234383   6.550   6.792   1.130  0.3884  0.0720  0.1788
 4323TIP3    H134384   6.592   6.734   1.066 -0.7063 -1.4138  0.7279
 4323TIP3    H234385   6.529   6.871   1.080  2.3706  0.2420 -0.4785
 4324TIP3   OH234386   0.082   6.161  16.558 -0.3430 -0.5372  0.0078
 4324TIP3    H134387   0.061   6.068  16.556 -0.3578 -0.5246 -0.5292
 4324TIP3    H234388   0.173   6.167  16.529 -0.6463 -0.3093 -0.9582
 4325TIP3   OH234389   1.910   5.373   0.009 -0.3053  0.1934 -0.2374
 4325TIP3    H134390   1.859   5.431   0.065 -0.6954 -0.8686  0.5331
 4325TIP3    H234391   1.991   5.421  -0.008 -0.0565  0.4348  1.4809
 4326TIP3   OH234392   2.009   6.069   1.533 -0.3455 -0.3593  0.5826
 4326TIP3    H134393   1.982   6.035   1.618  0.1729  2.0291  1.7887
 4326TIP3    H234394   2.098   6.038   1.521 -0.4848 -0.8549  0.8117
 4327TIP3   OH234395   2.518   6.739  13.973  0.5419  0.0673 -0.1058
 4327TIP3    H134396   2.578   6.745  13.898 -1.1462  1.9958 -1.4117
 4327TIP3    H234397   2.546   6.810  14.031  1.7089 -1.2891  1.0539
 4328TIP3   OH234398   4.932   2.737  14.415 -0.2438 -0.0081  0.6254
 4328TIP3    H134399   4.922   2.799  14.344  0.1083 -0.5982  0.0474
 4328TIP3    H234400   4.928   2.790  14.495  1.5594  0.9553  0.1093
 4329TIP3   OH234401   1.739   5.165   4.840  0.3103  0.1306  0.5141
 4329TIP3    H134402   1.787   5.094   4.882  0.1313  0.7322  1.7892
 4329TIP3    H234403   1.796   5.241   4.848 -1.4009  1.2540  3.5117
 4330TIP3   OH234404   6.100   0.028  14.523 -0.2320  0.6188 -0.5258
 4330TIP3    H134405   6.071   0.014  14.433 -0.7374 -1.3660 -0.1004
 4330TIP3    H234406   6.189   0.062  14.514  0.5657 -1.5842 -1.8157
 4331TIP3   OH234407   0.386   5.811  17.026  0.0154  0.2274 -0.4778
 4331TIP3    H134408   0.382   5.814  16.930 -1.3635  2.2634 -0.4164
 4331TIP3    H234409   0.350   5.895  17.054  1.3057  0.0780  1.8328
 4332TIP3   OH234410   1.620   1.370   0.008 -0.1205  0.6952 -0.0219
 4332TIP3    H134411   1.643   1.333  -0.077  0.6385 -0.7543  0.7899
 4332TIP3    H234412   1.528   1.392   0.001  0.2492  1.9060 -1.6721
 4333TIP3   OH234413   5.368   6.699   0.583 -0.1846  0.6847  0.1790
 4333TIP3    H134414   5.407   6.613   0.569  0.4083  0.8166  0.9571
 4333TIP3    H234415   5.321   6.691   0.667  0.5518  1.3429  0.6659
 4334TIP3   OH234416   5.518   2.716   0.121  0.3932 -0.6404  0.2465
 4334TIP3    H134417   5.555   2.783   0.178 -0.0427  0.3047 -0.5522
 4334TIP3    H234418   5.496   2.644   0.180 -1.9383  1.0753  1.6408
 4335TIP3   OH234419   0.994   1.092  13.127  0.4498 -0.1160 -0.0299
 4335TIP3    H134420   0.961   1.003  13.111  0.5390  0.2212 -2.6127
 4335TIP3    H234421   1.089   1.083  13.126  0.5140 -0.3620  2.6008
 4336TIP3   OH234422   2.909   0.248   1.561 -0.4052 -0.1801  0.1454
 4336TIP3    H134423   2.937   0.250   1.652 -2.9372  1.9872  0.9793
 4336TIP3    H234424   2.924   0.338   1.529  0.7046 -0.9588 -1.7093
 4337TIP3   OH234425   4.373   2.615  12.941  0.0692  0.1398  0.4063
 4337TIP3    H134426   4.457   2.634  12.900  0.0549  0.4680  0.5256
 4337TIP3    H234427   4.344   2.533  12.901  0.0724  0.4358 -0.2109
 4338TIP3   OH234428   6.406   0.133  12.021  0.1112  0.1076 -0.8872
 4338TIP3    H134429   6.407   0.226  12.045 -2.2404 -0.0368  0.0179
 4338TIP3    H234430   6.356   0.090  12.091  0.9243 -1.8111 -1.4248
 4339TIP3   OH234431   6.461   5.318   3.544  0.2922 -0.2959 -0.1616
 4339TIP3    H134432   6.499   5.405   3.543  0.4680 -0.3643  0.3018
 4339TIP3    H234433   6.368   5.332   3.557  0.1789 -0.1361 -1.0832
 4340TIP3   OH234434   2.657   2.376   3.857  0.0452  0.1694  0.0277
 4340TIP3    H134435   2.700   2.434   3.920 -1.7654 -1.5350  3.0736
 4340TIP3    H234436   2.699   2.291   3.870 -0.6822 -0.3253 -0.7536
 4341TIP3   OH234437   4.550   1.674   2.618  0.1492 -0.4610  0.1471
 4341TIP3    H134438   4.474   1.627   2.653  1.2859 -1.0166  1.9788
 4341TIP3    H234439   4.589   1.613   2.555  0.7886 -1.4633  1.4608
 4342TIP3   OH234440   5.266   2.667  16.273 -0.2634  0.1803 -0.5736
 4342TIP3    H134441   5.321   2.680  16.196 -1.2766  1.0135 -1.1873
 4342TIP3    H234442   5.313   2.710  16.344  0.8161 -0.8329 -0.6424
 4343TIP3   OH234443   1.008   0.350   0.879  0.4179 -0.1011  0.0887
 4343TIP3    H134444   0.997   0.397   0.962  0.6988  0.5698 -0.2491
 4343TIP3    H234445   0.993   0.416   0.812  2.6112 -0.0462 -0.4058
 4344TIP3   OH234446   0.470   4.963  13.915 -0.0515  0.4744  0.0336
 4344TIP3    H134447   0.566   4.967  13.918 -0.0658  3.9097  1.8222
 4344TIP3    H234448   0.448   4.998  13.828  0.3925  2.6286  0.7288
 4345TIP3   OH234449   1.167   0.522   4.050  0.2512  0.2758  0.0103
 4345TIP3    H134450   1.081   0.564   4.040  0.2138 -0.2580 -2.5341
 4345TIP3    H234451   1.166   0.487   4.139 -1.6828  1.3252  0.4604
 4346TIP3   OH234452   1.533   2.785   0.920 -0.9559  0.7087 -0.0254
 4346TIP3    H134453   1.574   2.854   0.869 -1.3301  1.5330  0.7661
 4346TIP3    H234454   1.458   2.827   0.963 -1.6273 -0.3577 -0.1085
 4347TIP3   OH234455   6.270   6.036   2.440  0.4091  0.4681 -0.2544
 4347TIP3    H134456   6.286   6.130   2.430  1.0459  0.4847  0.7639
 4347TIP3    H234457   6.358   5.997   2.444  0.1748 -0.4111 -2.4987
 4348TIP3   OH234458   2.013   4.507  15.761  0.7839  0.0288  0.0924
 4348TIP3    H134459   2.064   4.521  15.681  1.1914  0.3581  0.4041
 4348TIP3    H234460   1.922   4.520  15.734  1.0252  1.9758  0.0509
 4349TIP3   OH234461   5.953   1.782  14.055  0.0359  0.6552 -0.1338
 4349TIP3    H134462   5.882   1.824  14.007  0.3662 -0.7850 -1.9921
 4349TIP3    H234463   6.020   1.850  14.063 -0.6392  1.3618 -0.3561
 4350TIP3   OH234464   3.842   1.726   1.936  0.0052  0.0373  0.7147
 4350TIP3    H134465   3.930   1.688   1.942 -0.0048 -0.2501 -0.5539
 4350TIP3    H234466   3.856   1.815   1.906 -0.1487 -0.1889 -0.0587
 4351TIP3   OH234467   1.087   0.771  14.814  0.6035  0.5300  0.1490
 4351TIP3    H134468   1.075   0.864  14.832  2.9752  0.8137  0.6724
 4351TIP3    H234469   1.061   0.727  14.894  0.7850  0.8706  0.3957
 4352TIP3   OH234470   4.122   1.310   4.211 -0.0629  0.0936 -0.0727
 4352TIP3    H134471   4.099   1.383   4.153 -0.5290 -0.6178 -0.8245
 4352TIP3    H234472   4.216   1.298   4.198 -0.4044 -1.0242 -1.9013
 4353TIP3   OH234473   6.611   1.736   5.416  0.0951 -0.3899 -0.3055
 4353TIP3    H134474   6.547   1.799   5.384  2.0259  2.0565  0.2869
 4353TIP3    H234475   6.626   1.676   5.343  0.6492  1.9443 -2.2214
 4354TIP3   OH234476   4.563   5.736   2.370  0.3834  0.9614 -0.0163
 4354TIP3    H134477   4.490   5.692   2.327  1.9966  0.4092 -2.4026
 4354TIP3    H234478   4.529   5.823   2.391 -1.7723 -0.1717  1.5687
 4355TIP3   OH234479   3.792   3.168  13.909  0.2661  0.3109  0.2570
 4355TIP3    H134480   3.783   3.227  13.984  0.8848  1.1732 -0.3426
 4355TIP3    H234481   3.859   3.105  13.937 -0.5954 -0.3066  1.0059
 4356TIP3   OH234482   1.601   6.015   4.015 -0.2730  0.3381  0.1875
 4356TIP3    H134483   1.646   6.093   4.047 -1.0286  1.0251 -0.3836
 4356TIP3    H234484   1.618   6.015   3.921 -1.1661  0.4249  0.0162
 4357TIP3   OH234485   5.840   4.347   0.402 -0.1771 -0.9435  0.4944
 4357TIP3    H134486   5.764   4.301   0.367 -0.8219  0.1175  0.4852
 4357TIP3    H234487   5.869   4.404   0.331 -0.3183 -0.2109  1.0072
 4358TIP3   OH234488   4.576   0.699   3.619  0.3783  0.1572 -0.8170
 4358TIP3    H134489   4.615   0.612   3.617  1.6072  0.6732 -0.5862
 4358TIP3    H234490   4.607   0.741   3.539 -3.5178 -0.9119 -3.1101
 4359TIP3   OH234491   0.903   1.532  11.853 -0.4875  1.2223 -0.4110
 4359TIP3    H134492   0.974   1.468  11.855  0.0116  1.6733 -1.9835
 4359TIP3    H234493   0.824   1.480  11.837 -0.5688  0.7037  1.4906
 4360TIP3   OH234494   4.025   5.705   1.475  0.5534 -0.5613  0.2975
 4360TIP3    H134495   4.073   5.754   1.542  2.2917  0.3776 -1.5110
 4360TIP3    H234496   3.997   5.772   1.412 -0.5658 -1.4678 -0.2157
 4361TIP3   OH234497   3.737   2.812   2.839 -0.0721 -0.0468  0.0011
 4361TIP3    H134498   3.650   2.844   2.861 -0.8322 -0.0683 -2.6285
 4361TIP3    H234499   3.794   2.888   2.849 -1.2024  1.2252 -2.3980
 4362TIP3   OH234500   2.978   3.419   3.344  0.5754  0.3535  0.3903
 4362TIP3    H134501   2.946   3.335   3.313 -0.3565  0.8800 -0.1266
 4362TIP3    H234502   3.008   3.464   3.264  0.0749  0.9196  0.5119
 4363TIP3   OH234503   0.778   1.773   6.505  0.2178  0.4789 -0.4383
 4363TIP3    H134504   0.805   1.683   6.524  1.0828  1.2151  2.2427
 4363TIP3    H234505   0.712   1.793   6.572 -0.2099  1.7415 -1.2010
 4364TIP3   OH234506   1.396   5.435  11.705  0.2056 -0.3721  0.5347
 4364TIP3    H134507   1.355   5.521  11.717  1.0470  0.1127 -0.0156
 4364TIP3    H234508   1.445   5.421  11.786 -0.8966 -0.8904  1.1365
 4365TIP3   OH234509   4.172   0.430  13.763  0.6152 -0.0286 -0.0786
 4365TIP3    H134510   4.173   0.423  13.668 -0.5602 -1.2676 -0.0245
 4365TIP3    H234511   4.137   0.517  13.780  0.3130 -0.0102 -0.7722
 4366TIP3   OH234512   6.382   1.764   1.693  0.3304  0.3441 -0.0906
 4366TIP3    H134513   6.423   1.772   1.779  0.8452  2.6118 -0.4973
 4366TIP3    H234514   6.452   1.786   1.631 -0.3859  0.0614 -1.0199
 4367TIP3   OH234515   0.063   5.527  14.206  0.0576 -0.3669 -0.0021
 4367TIP3    H134516  -0.027   5.543  14.233 -0.3249 -1.2824 -0.6719
 4367TIP3    H234517   0.101   5.614  14.192 -1.1741 -0.0006 -1.1798
 4368TIP3   OH234518   4.352   5.490  12.091 -0.5210 -0.8296 -0.0074
 4368TIP3    H134519   4.431   5.538  12.067 -0.2154 -1.6057 -0.5992
 4368TIP3    H234520   4.300   5.553  12.141  0.3006 -0.1938  0.0696
 4369TIP3   OH234521   6.683   1.956  14.107  0.3222 -0.2728 -0.0882
 4369TIP3    H134522   6.663   1.985  14.197 -2.9112  0.2444 -0.8213
 4369TIP3    H234523   6.731   2.029  14.069  1.0412 -0.1619  0.9676
 4370TIP3   OH234524   2.340   3.953   4.364  0.2945  0.3133  0.0488
 4370TIP3    H134525   2.374   3.894   4.297  0.3152 -0.4939  0.7496
 4370TIP3    H234526   2.275   3.901   4.411 -0.6527  1.2867 -0.1561
 4371TIP3   OH234527   3.019   3.248   2.969 -0.2378 -0.0306  0.0732
 4371TIP3    H134528   3.077   3.258   2.894 -0.0530  0.9357  0.3298
 4371TIP3    H234529   2.931   3.265   2.935  0.0533  2.8878  0.4867
 4372TIP3   OH234530   0.389   1.602  12.006 -0.2029  0.5178  0.4589
 4372TIP3    H134531   0.454   1.611  12.076 -0.8206 -2.5282  1.5857
 4372TIP3    H234532   0.316   1.556  12.048 -1.4363  0.3716 -1.7337
 4373TIP3   OH234533   2.519   1.005   4.794 -0.0620 -0.6479  0.1877
 4373TIP3    H134534   2.567   0.994   4.712 -0.1572 -1.0614  0.1853
 4373TIP3    H234535   2.581   1.051   4.852 -0.0227 -0.2900 -0.1380
 4374TIP3   OH234536   5.728   6.113  12.735 -0.6129 -0.0542  0.2252
 4374TIP3    H134537   5.790   6.042  12.751 -0.1073  0.3633  0.1222
 4374TIP3    H234538   5.775   6.193  12.760 -1.7324  0.1178  1.8713
 4375TIP3   OH234539   1.298   1.260   5.059  0.0679  0.1532 -0.2132
 4375TIP3    H134540   1.345   1.179   5.043  1.7777  0.8299  1.0514
 4375TIP3    H234541   1.241   1.239   5.133  0.3774  0.0507 -0.0002
 4376TIP3   OH234542   2.229   5.731  14.182 -0.2660  0.3403 -0.3924
 4376TIP3    H134543   2.211   5.705  14.091 -0.8053  0.0350 -0.2016
 4376TIP3    H234544   2.155   5.697  14.232  1.2653 -1.8261  0.5622
 4377TIP3   OH234545   5.234   0.127   3.550 -0.6207  0.6415  1.0592
 4377TIP3    H134546   5.177   0.050   3.562  2.2112 -1.6210  1.0713
 4377TIP3    H234547   5.231   0.172   3.634 -0.6761 -0.6839  1.7975
 4378TIP3   OH234548   4.794   0.959   0.092 -0.4143  0.8001 -0.4302
 4378TIP3    H134549   4.834   0.938   0.008  1.0247 -0.5950  0.5433
 4378TIP3    H234550   4.800   0.878   0.142 -0.5179  1.8008  1.2859
 4379TIP3   OH234551   0.370   5.967  14.067  0.6080  0.4412 -0.3312
 4379TIP3    H134552   0.316   6.047  14.070  0.9463  0.6549  1.5308
 4379TIP3    H234553   0.443   5.986  14.126 -0.3268 -1.8945  1.7719
 4380TIP3   OH234554   3.312   5.980   1.694 -0.3667  0.0527  0.2432
 4380TIP3    H134555   3.235   6.035   1.713 -0.5415 -0.5135  1.2212
 4380TIP3    H234556   3.376   6.004   1.761 -0.9415 -1.8839  1.5488
 4381TIP3   OH234557   2.858   4.931   2.702  0.4844  0.2599  0.3159
 4381TIP3    H134558   2.918   4.921   2.628 -1.4607 -1.5671 -1.1377
 4381TIP3    H234559   2.814   4.846   2.709 -2.0286  1.5301  1.1824
 4382TIP3   OH234560   4.702   4.409  15.883  0.2070  0.1864 -0.3755
 4382TIP3    H134561   4.695   4.398  15.978  2.0776 -1.2554 -0.3496
 4382TIP3    H234562   4.687   4.502  15.868  0.5976  0.5719  1.4236
 4383TIP3   OH234563   2.369   6.103  13.693 -0.2707  0.6005 -0.5147
 4383TIP3    H134564   2.432   6.157  13.645  1.1493 -0.9544 -0.5127
 4383TIP3    H234565   2.421   6.032  13.729 -1.7236  0.3570  1.2648
 4384TIP3   OH234566   0.871   3.223  14.097  0.0889 -0.1408  0.0286
 4384TIP3    H134567   0.854   3.315  14.077 -1.0571 -0.0842  1.1495
 4384TIP3    H234568   0.887   3.183  14.011 -1.0812  0.7631 -0.6434
 4385TIP3   OH234569   3.345   1.565   0.065 -0.5464  0.6563  0.2075
 4385TIP3    H134570   3.331   1.491   0.123  2.1360 -0.6064 -0.6173
 4385TIP3    H234571   3.302   1.540  -0.017 -0.3044  0.3488  0.1738
 4386TIP3   OH234572   5.228   0.547   5.080 -0.4020  0.2882  0.1626
 4386TIP3    H134573   5.288   0.475   5.101  0.2003 -0.9342 -4.6734
 4386TIP3    H234574   5.144   0.521   5.118  0.1690 -2.2756 -0.1973
 4387TIP3   OH234575   3.382   4.133   3.410  0.2633 -0.1289  0.4107
 4387TIP3    H134576   3.398   4.040   3.427  0.5487 -0.0460  0.6091
 4387TIP3    H234577   3.434   4.178   3.476 -0.7414  0.1508  1.0436
 4388TIP3   OH234578   5.205   2.862  15.194 -0.0538 -0.2717 -0.1884
 4388TIP3    H134579   5.133   2.804  15.222  0.1250 -0.6260 -0.4516
 4388TIP3    H234580   5.278   2.803  15.176 -0.3402 -0.1480 -2.0153
 4389TIP3   OH234581   0.229   5.312   5.349  0.6800 -0.2043  0.3668
 4389TIP3    H134582   0.189   5.264   5.276  2.2712 -1.0073 -0.0410
 4389TIP3    H234583   0.301   5.255   5.378  2.7951  1.9716 -0.2801
 4390TIP3   OH234584   2.197   6.216   0.109  0.4125  0.0237 -0.2413
 4390TIP3    H134585   2.107   6.199   0.080 -0.4306  2.1238  0.9405
 4390TIP3    H234586   2.190   6.295   0.161  2.9202 -0.0150  0.2326
 4391TIP3   OH234587   3.405   3.976  12.286 -0.3829  0.3646 -0.0963
 4391TIP3    H134588   3.474   4.022  12.237  1.5127 -1.7033  0.4835
 4391TIP3    H234589   3.341   3.953  12.219  2.0066 -2.1689 -1.7420
 4392TIP3   OH234590   5.147   0.778  17.011 -0.4875 -0.9883  0.8400
 4392TIP3    H134591   5.149   0.732  17.095  1.2869  1.4435  2.2626
 4392TIP3    H234592   5.214   0.845  17.019 -3.3509  2.3591 -0.7564
 4393TIP3   OH234593   3.774   3.704  14.018 -0.6891  0.4736  0.2272
 4393TIP3    H134594   3.819   3.725  13.937 -0.0198  1.9721  0.9554
 4393TIP3    H234595   3.820   3.754  14.085  0.3541 -2.5377  1.9738
 4394TIP3   OH234596   2.195   0.569   3.112  0.3633 -0.1958  0.0525
 4394TIP3    H134597   2.195   0.648   3.059 -1.3903  0.3558  0.7975
 4394TIP3    H234598   2.144   0.506   3.061 -0.1605 -0.1025  0.4518
 4395TIP3   OH234599   0.867   4.873  11.518  0.1456  0.3355  0.3207
 4395TIP3    H134600   0.834   4.960  11.544  0.2608 -0.2420  2.6107
 4395TIP3    H234601   0.837   4.863  11.428 -2.3193  1.6066  0.8747
 4396TIP3   OH234602   3.312   6.295  16.415  0.3978  0.6401  0.2310
 4396TIP3    H134603   3.326   6.262  16.504 -1.4852 -0.6193  0.1167
 4396TIP3    H234604   3.399   6.298  16.376  0.9772 -1.6861  1.1617
 4397TIP3   OH234605   1.611   6.105   1.480 -0.6320  0.2858 -0.0542
 4397TIP3    H134606   1.598   6.083   1.387  0.1025  2.1426 -0.6403
 4397TIP3    H234607   1.676   6.175   1.479  0.6437 -0.7886  2.0042
 4398TIP3   OH234608   5.713   2.223  11.846  0.0839  0.3715  0.0688
 4398TIP3    H134609   5.681   2.133  11.854  2.2366 -0.5855 -1.2222
 4398TIP3    H234610   5.647   2.267  11.794 -0.5453 -0.7320 -0.1056
 4399TIP3   OH234611   2.234   1.237  14.190 -0.6057 -0.6612  0.4031
 4399TIP3    H134612   2.273   1.308  14.242 -0.1304  1.1023 -2.2028
 4399TIP3    H234613   2.145   1.267  14.172 -0.4180 -0.7124 -0.6811
 4400TIP3   OH234614   2.735   2.790   4.083 -0.1693 -0.4444  0.5178
 4400TIP3    H134615   2.798   2.827   4.022 -1.2861  0.7378  0.0415
 4400TIP3    H234616   2.736   2.850   4.158  0.0255 -1.0043  0.9711
 4401TIP3   OH234617   5.998   3.412   1.224 -0.2538 -0.2576 -0.6087
 4401TIP3    H134618   6.045   3.495   1.235 -1.3302  0.3504 -0.4441
 4401TIP3    H234619   6.064   3.352   1.190  0.4978  0.7252 -0.9573
 4402TIP3   OH234620   6.121   2.850   3.268  0.2128 -0.3794  0.5555
 4402TIP3    H134621   6.197   2.845   3.326 -0.1211  2.4122  1.4418
 4402TIP3    H234622   6.061   2.911   3.313  0.0764  2.3019 -2.8016
 4403TIP3   OH234623   6.608   0.032   4.588  0.8641  0.6429  0.5504
 4403TIP3    H134624   6.581  -0.054   4.621 -0.1673  0.4288 -0.7383
 4403TIP3    H234625   6.648   0.075   4.663  0.1468 -0.4427  1.5998
 4404TIP3   OH234626   6.389   3.722   1.975  0.2274  0.3090 -0.5518
 4404TIP3    H134627   6.403   3.680   1.890  2.1605 -0.7443  0.2195
 4404TIP3    H234628   6.299   3.699   1.998  0.5851 -1.7990 -1.0569
 4405TIP3   OH234629   1.654   4.450   3.139  0.5712  0.1372 -0.6699
 4405TIP3    H134630   1.564   4.435   3.110  0.7711 -1.0731 -0.7173
 4405TIP3    H234631   1.684   4.524   3.087 -0.4981  0.7772 -0.4167
 4406TIP3   OH234632   4.184   3.655  13.444  0.0297 -0.2095  0.1916
 4406TIP3    H134633   4.154   3.634  13.532 -0.3267 -3.6998 -0.6203
 4406TIP3    H234634   4.279   3.652  13.449  0.0153 -0.2207  0.4633
 4407TIP3   OH234635   5.416   0.423  13.088 -0.1784 -0.4799  0.2498
 4407TIP3    H134636   5.505   0.454  13.076 -0.6055  0.7783  0.1780
 4407TIP3    H234637   5.415   0.336  13.048  0.6318  0.0840 -1.0529
 4408TIP3   OH234638   4.277   1.193  12.372  0.1764 -0.0258 -0.6966
 4408TIP3    H134639   4.208   1.202  12.438  0.2245  0.2123 -0.6802
 4408TIP3    H234640   4.358   1.195  12.423  0.1679 -1.4067 -0.5938
 4409TIP3   OH234641   5.655   3.486   6.324  0.6357 -0.1724 -0.1830
 4409TIP3    H134642   5.680   3.448   6.239 -1.3510 -0.3453 -0.7412
 4409TIP3    H234643   5.595   3.422   6.362  2.7492 -0.9039  2.1841
 4410TIP3   OH234644   0.830   5.713  16.158 -0.5519 -0.1325 -0.1387
 4410TIP3    H134645   0.892   5.686  16.090 -0.6873 -0.1491 -0.2563
 4410TIP3    H234646   0.800   5.631  16.197  0.6359 -0.0895  0.9556
 4411TIP3   OH234647   5.069   1.236  16.204  0.4849  0.0432  0.0808
 4411TIP3    H134648   5.103   1.150  16.227  1.0887  0.3331  0.2781
 4411TIP3    H234649   5.068   1.285  16.286  0.4290  0.3246 -0.0871
 4412TIP3   OH234650   2.053   5.352   4.041  0.0500  0.2031 -0.1796
 4412TIP3    H134651   2.042   5.310   3.956  0.2497 -1.8443  0.7646
 4412TIP3    H234652   2.053   5.280   4.104  0.0882  1.6547  1.5535
 4413TIP3   OH234653   3.803   3.376  15.148 -0.1502  0.4026  0.0513
 4413TIP3    H134654   3.877   3.354  15.205  2.0931 -0.0103 -2.7967
 4413TIP3    H234655   3.783   3.467  15.170  2.1446  0.9765  0.0089
 4414TIP3   OH234656   0.877   4.184   2.087  0.3317  0.4090 -0.3282
 4414TIP3    H134657   0.918   4.107   2.048 -0.8144 -0.2783 -0.2316
 4414TIP3    H234658   0.928   4.258   2.055 -0.8815 -0.0360 -3.6606
 4415TIP3   OH234659   2.430   1.574   2.048 -0.3007 -0.1963  0.4270
 4415TIP3    H134660   2.439   1.531   2.133  0.6429 -0.4140  0.2296
 4415TIP3    H234661   2.433   1.502   1.984 -0.8279 -0.0180  0.1913
 4416TIP3   OH234662   2.705   0.842  16.468  0.2383  0.2667  0.5812
 4416TIP3    H134663   2.726   0.936  16.462  0.6783  0.0884 -1.4608
 4416TIP3    H234664   2.630   0.838  16.527 -1.4676  2.2220 -1.2609
 4417TIP3   OH234665   1.460   3.506  11.265  0.4398 -0.4216 -0.2883
 4417TIP3    H134666   1.432   3.596  11.282 -1.6268 -1.0830  0.0635
 4417TIP3    H234667   1.461   3.499  11.169 -0.5354 -0.3462 -0.3104
 4418TIP3   OH234668   4.995   0.445  14.358  0.1983 -0.0929 -0.6038
 4418TIP3    H134669   4.983   0.532  14.395  0.8448 -1.2918  2.7980
 4418TIP3    H234670   4.920   0.395  14.389  0.3220 -1.0072 -1.7051
 4419TIP3   OH234671   4.410   4.339  13.162  0.1251  0.4650  0.4291
 4419TIP3    H134672   4.440   4.347  13.253 -0.4754  1.2372  0.5725
 4419TIP3    H234673   4.321   4.304  13.168 -0.2232  1.2689  0.1997
 4420TIP3   OH234674   0.819   2.430  15.575  0.6482  0.0646 -0.0237
 4420TIP3    H134675   0.912   2.450  15.583  0.4263  0.9852  0.3985
 4420TIP3    H234676   0.776   2.515  15.566 -0.0330 -0.4131 -1.7441
 4421TIP3   OH234677   6.684   6.646  11.888 -0.1028 -0.7773  0.2369
 4421TIP3    H134678   6.743   6.698  11.833  1.7998 -1.7973  1.2130
 4421TIP3    H234679   6.704   6.674  11.977 -0.5722 -1.6765  0.6311
 4422TIP3   OH234680   3.080   2.635  10.589  0.2341  0.6953 -0.1435
 4422TIP3    H134681   3.033   2.553  10.579  0.4727  0.6272 -0.7180
 4422TIP3    H234682   3.029   2.684  10.653 -0.0882  0.2343 -0.0428
 4423TIP3   OH234683   5.734   2.836   1.777  0.0349 -0.3502 -0.1708
 4423TIP3    H134684   5.795   2.856   1.706  1.0410 -1.3450  0.3860
 4423TIP3    H234685   5.693   2.754   1.750  1.4093 -1.4575  0.9813
 4424TIP3   OH234686   6.775   3.193   5.392  0.0045 -0.2848  0.0022
 4424TIP3    H134687   6.813   3.212   5.307 -0.0432 -0.3559 -0.0353
 4424TIP3    H234688   6.842   3.219   5.455  0.6907 -1.7038 -0.1002
 4425TIP3   OH234689   6.392   2.840   4.361 -0.1414 -0.3534  0.1759
 4425TIP3    H134690   6.357   2.757   4.329 -0.4405  0.1847 -0.9448
 4425TIP3    H234691   6.366   2.905   4.295  0.5770  0.5383  0.7326
 4426TIP3   OH234692   0.259   2.727  12.685 -0.4775  0.1558  0.3788
 4426TIP3    H134693   0.240   2.820  12.692 -0.4976  0.3316 -1.5199
 4426TIP3    H234694   0.344   2.717  12.727  0.1626  1.3051 -0.5618
 4427TIP3   OH234695   0.405   0.624   4.167 -0.2600  0.7893 -0.5307
 4427TIP3    H134696   0.493   0.645   4.198  0.0423  2.3346 -2.3266
 4427TIP3    H234697   0.347   0.663   4.233  0.3701  0.6141  0.1460
 4428TIP3   OH234698   1.322   4.811  15.504  0.3420 -0.5327  0.1546
 4428TIP3    H134699   1.316   4.823  15.599  0.2348  1.3003 -0.0355
 4428TIP3    H234700   1.410   4.776  15.490  0.6415 -0.1115  0.8989
 4429TIP3   OH234701   0.030   2.669  12.320 -0.3771 -0.4270 -0.6336
 4429TIP3    H134702   0.036   2.666  12.415 -0.0970  0.6653 -0.5982
 4429TIP3    H234703  -0.022   2.748  12.302  1.5723  0.7407 -1.4233
 4430TIP3   OH234704   0.187   0.977   5.157  0.8221  0.0557 -0.1822
 4430TIP3    H134705   0.223   0.889   5.156  0.7770  0.0430 -0.8885
 4430TIP3    H234706   0.261   1.034   5.136  1.4239  0.4263  2.5362
 4431TIP3   OH234707   3.406   4.830   3.227  0.1921  0.6402  0.3476
 4431TIP3    H134708   3.374   4.790   3.146  1.5542  0.9114 -0.3581
 4431TIP3    H234709   3.331   4.880   3.261 -0.7113 -0.3338 -0.1740
 4432TIP3   OH234710   5.158   0.944  16.137  0.0833 -0.3775  0.7339
 4432TIP3    H134711   5.073   0.933  16.180  0.5142 -0.1725  1.6494
 4432TIP3    H234712   5.165   0.867  16.080 -1.2726  0.2319 -0.3282
 4433TIP3   OH234713   2.630   3.768  10.977 -1.2525  0.6914 -0.8788
 4433TIP3    H134714   2.635   3.808  10.890 -0.1753  1.6333 -0.4114
 4433TIP3    H234715   2.698   3.812  11.028 -1.1782 -0.5590  0.1628
 4434TIP3   OH234716   2.297   5.115   0.296  0.7472  0.1128 -0.1485
 4434TIP3    H134717   2.301   5.133   0.202  0.5400 -1.3803 -0.4666
 4434TIP3    H234718   2.284   5.021   0.302  1.5712  0.0656  1.4043
 4435TIP3   OH234719   0.746   5.480  11.917 -0.0795 -0.3044 -0.0161
 4435TIP3    H134720   0.801   5.554  11.890 -1.2216  1.2289  1.6139
 4435TIP3    H234721   0.675   5.479  11.853 -0.8441  1.0004  0.7642
 4436TIP3   OH234722   6.027   6.630  10.246 -0.1071  0.3038  0.2964
 4436TIP3    H134723   6.088   6.620  10.174  0.8513  0.1504  1.1131
 4436TIP3    H234724   6.054   6.711  10.289 -1.0120  0.6867  0.1748
 4437TIP3   OH234725   2.025   5.648  14.333 -0.4054 -0.1086  0.0967
 4437TIP3    H134726   1.966   5.708  14.379 -0.1773 -0.8896  1.4730
 4437TIP3    H234727   1.981   5.563  14.336  0.2452 -0.4565  0.0957
 4438TIP3   OH234728   3.269   6.413   0.388  0.0896  0.3284 -0.2346
 4438TIP3    H134729   3.217   6.344   0.346  1.3366 -0.0367 -1.2414
 4438TIP3    H234730   3.338   6.432   0.325  0.6509  1.4409  0.6926
 4439TIP3   OH234731   3.844   0.333   3.290 -0.0500  0.0057 -0.2533
 4439TIP3    H134732   3.927   0.285   3.289  0.2317  0.4849 -0.4729
 4439TIP3    H234733   3.840   0.371   3.378 -1.4153 -2.3310  0.7794
 4440TIP3   OH234734   5.441   3.935  15.189  0.1235 -0.1019  0.3292
 4440TIP3    H134735   5.380   3.983  15.245  1.4335  0.7633  1.0808
 4440TIP3    H234736   5.514   3.914  15.247  0.9301 -0.3316 -0.7459
 4441TIP3   OH234737   5.435   5.765   0.081 -0.0287 -0.5538 -0.4172
 4441TIP3    H134738   5.346   5.729   0.086 -0.5922  0.8096 -0.0533
 4441TIP3    H234739   5.469   5.758   0.170  1.1339 -3.1421 -0.9838
 4442TIP3   OH234740   5.622   2.973  11.659  0.2472 -0.2799 -0.0896
 4442TIP3    H134741   5.551   2.942  11.716 -0.9695  0.1846 -1.3130
 4442TIP3    H234742   5.578   3.011  11.583  1.8112  0.1825 -0.8106
 4443TIP3   OH234743   1.185   3.571   0.470 -0.0729 -0.2489 -0.6417
 4443TIP3    H134744   1.234   3.624   0.533  0.5331 -2.0114  0.4357
 4443TIP3    H234745   1.195   3.617   0.387 -2.5955  3.2757  0.7828
 4444TIP3   OH234746   3.741   2.955  12.409  0.2905  0.3515  0.4620
 4444TIP3    H134747   3.721   2.931  12.319 -0.9521 -1.8196  1.2621
 4444TIP3    H234748   3.823   3.004  12.403  0.0864  0.5006 -1.8538
 4445TIP3   OH234749   4.274   4.524  16.793 -0.1390 -0.4835 -0.3103
 4445TIP3    H134750   4.261   4.601  16.848  0.3424 -0.6425  0.0318
 4445TIP3    H234751   4.246   4.451  16.847 -1.6009 -0.4760 -1.0033
 4446TIP3   OH234752   6.663   2.338   1.065  0.8440 -0.0823  0.2239
 4446TIP3    H134753   6.639   2.426   1.095 -1.0214 -0.0331 -1.2240
 4446TIP3    H234754   6.676   2.288   1.146 -3.3172  0.1832  1.3244
 4447TIP3   OH234755   5.159   0.552  12.239  0.3879 -0.2724 -0.2800
 4447TIP3    H134756   5.124   0.522  12.323  1.3708 -2.0854 -0.4678
 4447TIP3    H234757   5.252   0.567  12.255  0.4580 -0.0102 -0.8870
 4448TIP3   OH234758   0.488   3.804  11.384  0.3686  0.3980 -0.0742
 4448TIP3    H134759   0.402   3.774  11.414  0.4562  1.9434  1.9618
 4448TIP3    H234760   0.478   3.899  11.375  2.2326  0.8333  1.7347
 4449TIP3   OH234761   2.872   0.401  14.011 -0.1447  0.6342  0.2069
 4449TIP3    H134762   2.843   0.426  13.923  0.0625 -1.9031 -0.6871
 4449TIP3    H234763   2.964   0.377  14.000 -0.2230 -0.0756  1.0110
 4450TIP3   OH234764   2.356   4.622  15.893 -0.1078  0.5528 -0.0338
 4450TIP3    H134765   2.268   4.605  15.927 -0.0135  0.8433  0.3623
 4450TIP3    H234766   2.406   4.543  15.914 -0.3001  0.3472 -0.3491
 4451TIP3   OH234767   2.707   3.381   5.562 -0.3143  0.5423 -0.4333
 4451TIP3    H134768   2.794   3.347   5.586 -0.2387  0.5137 -0.7392
 4451TIP3    H234769   2.702   3.465   5.606 -0.7957 -0.1746  0.9238
 4452TIP3   OH234770   1.904   0.199  13.381  0.4673 -0.1775  0.0142
 4452TIP3    H134771   1.848   0.265  13.340 -1.2522 -1.0400  0.8497
 4452TIP3    H234772   1.963   0.170  13.311  0.5514  1.4733 -0.6284
 4453TIP3   OH234773   1.330   6.309   6.485 -0.3234  0.0835  0.3683
 4453TIP3    H134774   1.267   6.237   6.475 -0.0931  0.0405 -0.9204
 4453TIP3    H234775   1.281   6.379   6.528 -1.2960  0.0845 -0.7126
 4454TIP3   OH234776   4.510   6.320   5.195  0.1992  0.3162 -0.3151
 4454TIP3    H134777   4.508   6.402   5.144  3.2355  0.0747 -0.9882
 4454TIP3    H234778   4.518   6.252   5.129 -1.0476 -0.4645  0.3121
 4455TIP3   OH234779   3.082   3.386  12.043 -0.3576 -0.2957  0.1904
 4455TIP3    H134780   3.039   3.354  11.965 -0.4066 -1.6879  0.7711
 4455TIP3    H234781   3.034   3.348  12.116  0.9237 -0.6973  0.8714
 4456TIP3   OH234782   1.585   4.861   1.133 -0.1201  0.5371 -0.0851
 4456TIP3    H134783   1.599   4.886   1.224  0.2829  0.0555 -0.0121
 4456TIP3    H234784   1.605   4.767   1.130 -0.0453  0.5660 -0.6850
 4457TIP3   OH234785   1.331   4.119  10.948  0.2883  0.4156  0.4653
 4457TIP3    H134786   1.305   4.122  10.856 -1.7185 -0.5498  0.9357
 4457TIP3    H234787   1.332   4.210  10.976 -2.9663  0.5784  0.4110
 4458TIP3   OH234788   5.920   4.856  11.256  0.5251 -0.4564 -0.2041
 4458TIP3    H134789   5.925   4.951  11.246  2.4111 -0.1511  2.5194
 4458TIP3    H234790   5.854   4.828  11.193  0.3534  2.5662 -1.5146
 4459TIP3   OH234791   0.424   4.145   5.878 -0.0094 -0.3513 -0.0267
 4459TIP3    H134792   0.368   4.222   5.891  2.0910  1.4844 -1.1694
 4459TIP3    H234793   0.416   4.095   5.959 -2.2540  0.4811  0.3375
 4460TIP3   OH234794   2.792   6.700  16.237 -0.0287 -0.0756  0.4072
 4460TIP3    H134795   2.795   6.763  16.309 -0.1844  0.3418  0.0545
 4460TIP3    H234796   2.772   6.753  16.159  1.0083 -0.3941 -0.0951
 4461TIP3   OH234797   2.525   2.491  14.792 -0.8932  0.5954 -1.0429
 4461TIP3    H134798   2.510   2.457  14.880 -0.6372  0.9406 -0.8665
 4461TIP3    H234799   2.589   2.431  14.754 -0.8108  0.5972 -0.9060
 4462TIP3   OH234800   6.247   3.734   4.764 -0.3951  0.0171  0.0718
 4462TIP3    H134801   6.267   3.705   4.675  0.2811 -0.4608  0.3646
 4462TIP3    H234802   6.333   3.735   4.807 -0.8580 -0.8698  1.0390
 4463TIP3   OH234803   1.832   5.709   5.090 -0.7441 -0.1949  0.6110
 4463TIP3    H134804   1.743   5.720   5.054 -0.1269  0.1315 -0.8928
 4463TIP3    H234805   1.883   5.676   5.016  0.5788  0.4447  1.2235
 4464TIP3   OH234806   4.048   6.637   2.429  0.4691 -0.4319  0.3210
 4464TIP3    H134807   4.031   6.710   2.489  1.1812  0.9416 -1.0639
 4464TIP3    H234808   4.006   6.663   2.347 -0.0457 -2.0294  0.0490
 4465TIP3   OH234809   1.940   2.673   1.802  0.7360 -0.0873  0.3042
 4465TIP3    H134810   1.983   2.732   1.863  2.2095 -1.5586  0.7667
 4465TIP3    H234811   1.848   2.674   1.828  0.3646  3.1249 -0.7106
 4466TIP3   OH234812   5.908   6.095   5.378  0.0753 -0.0674  0.1395
 4466TIP3    H134813   5.991   6.048   5.381 -0.7864 -1.7009  3.6855
 4466TIP3    H234814   5.924   6.176   5.426 -0.2031 -0.0744  0.2458
 4467TIP3   OH234815   2.742   5.274  12.646 -0.1087  0.6135  0.2793
 4467TIP3    H134816   2.667   5.225  12.680 -0.3319 -0.6258 -1.8607
 4467TIP3    H234817   2.707   5.325  12.573  1.2978 -0.8451 -1.4813
 4468TIP3   OH234818   1.802   3.283   1.556  0.1935  0.4594  0.1244
 4468TIP3    H134819   1.813   3.364   1.605  1.3197  0.5254 -0.1956
 4468TIP3    H234820   1.737   3.304   1.488 -1.8812  0.1773  1.9233
 4469TIP3   OH234821   2.212   6.508  15.463  0.2551  0.6556 -0.1732
 4469TIP3    H134822   2.219   6.413  15.457  1.6449  0.7018  0.2617
 4469TIP3    H234823   2.131   6.530  15.417  0.6366 -0.6064 -1.5051
 4470TIP3   OH234824   2.415   6.655  15.565  0.4376  0.7303  0.0911
 4470TIP3    H134825   2.364   6.733  15.586 -1.8247 -0.7136  0.2581
 4470TIP3    H234826   2.352   6.594  15.528  1.8554 -1.5403  1.2006
 4471TIP3   OH234827   6.083   1.567   1.435 -0.1182 -0.0409  0.4893
 4471TIP3    H134828   6.086   1.662   1.433  1.5771 -0.0785  0.1892
 4471TIP3    H234829   6.086   1.541   1.343  0.3220 -0.4021  0.6038
 4472TIP3   OH234830   4.151   4.563  14.439 -0.0858 -0.8080 -0.2970
 4472TIP3    H134831   4.170   4.570  14.533 -0.1006 -1.0605 -0.2733
 4472TIP3    H234832   4.213   4.622  14.397  0.7984 -1.6725 -0.2278
 4473TIP3   OH234833   1.326   2.878   1.045 -0.3342  0.1322  0.3006
 4473TIP3    H134834   1.252   2.897   0.986  0.7149  1.1545 -0.7570
 4473TIP3    H234835   1.294   2.901   1.132 -1.4532 -0.0125 -0.0587
 4474TIP3   OH234836   1.677   1.656   1.686  0.3400  0.0906 -0.4716
 4474TIP3    H134837   1.673   1.597   1.611  0.0087 -0.3309 -0.1244
 4474TIP3    H234838   1.770   1.665   1.705  0.3673 -0.6936 -0.2300
 4475TIP3   OH234839   6.786   4.792   5.650  0.0758 -0.0078 -0.9736
 4475TIP3    H134840   6.720   4.848   5.608  1.0322  0.8650 -1.3294
 4475TIP3    H234841   6.775   4.807   5.744  0.3082  0.7543 -1.0661
 4476TIP3   OH234842   4.656   0.401  13.127 -0.1628  0.3173  0.2569
 4476TIP3    H134843   4.683   0.320  13.171 -0.3481  0.5740  0.8587
 4476TIP3    H234844   4.669   0.384  13.034  0.4376 -0.1676  0.4245
 4477TIP3   OH234845   0.923   2.102   2.374 -0.3614 -0.0408 -0.3868
 4477TIP3    H134846   0.990   2.069   2.315  0.9607  1.8160 -0.0228
 4477TIP3    H234847   0.899   2.027   2.428 -0.3011 -1.3110 -2.0695
 4478TIP3   OH234848   6.315   3.143   3.921  0.0966 -0.4436  0.1066
 4478TIP3    H134849   6.376   3.171   3.990  0.4555 -0.6406 -0.1283
 4478TIP3    H234850   6.231   3.179   3.948  0.1027 -1.0735  0.9879
 4479TIP3   OH234851   0.015   0.884  11.456  0.1995  0.0629 -0.3538
 4479TIP3    H134852  -0.013   0.972  11.479  1.2416  0.2487  0.2945
 4479TIP3    H234853   0.034   0.889  11.362 -0.3971  0.3381 -0.4657
 4480TIP3   OH234854   6.571   6.062  16.302 -0.3472 -0.0944 -0.3757
 4480TIP3    H134855   6.531   6.032  16.383 -0.4347  1.7590  0.3110
 4480TIP3    H234856   6.506   6.042  16.234 -1.4880  0.8205  0.4112
 4481TIP3   OH234857   2.050   3.822  15.392  0.2430  0.6509 -0.6492
 4481TIP3    H134858   1.999   3.742  15.408  0.9317  0.0443 -1.3523
 4481TIP3    H234859   1.991   3.878  15.341 -0.3538  0.7240  0.1113
 4482TIP3   OH234860   2.698   0.025  16.792 -0.1763  0.0953  0.4161
 4482TIP3    H134861   2.687   0.089  16.862 -2.1121 -1.1095  1.3149
 4482TIP3    H234862   2.630   0.047  16.728 -1.5491 -1.6020  1.2218
 4483TIP3   OH234863   4.789   2.692   4.519 -0.3707 -0.8695  0.5994
 4483TIP3    H134864   4.860   2.718   4.460 -0.0070 -0.0829  1.3624
 4483TIP3    H234865   4.747   2.618   4.475 -1.4075  0.9410 -1.6831
 4484TIP3   OH234866   0.916   6.553   0.364 -0.5741 -0.2007 -0.2187
 4484TIP3    H134867   0.908   6.462   0.335 -0.8641 -0.2165 -0.0937
 4484TIP3    H234868   0.982   6.550   0.433  0.3420 -0.1152 -1.0770
 4485TIP3   OH234869   1.207   5.009  12.650  0.0855  0.2350  0.2598
 4485TIP3    H134870   1.249   5.073  12.593  0.3042 -0.4162 -0.3275
 4485TIP3    H234871   1.171   5.061  12.722  2.2541  0.8063  1.0429
 4486TIP3   OH234872   6.415   1.924   4.202 -0.1496 -0.5899  0.1532
 4486TIP3    H134873   6.366   1.855   4.158  0.1726 -0.8464  0.1960
 4486TIP3    H234874   6.482   1.878   4.252 -0.0689 -0.2596  0.3522
 4487TIP3   OH234875   0.265   4.033  16.639  0.3453  0.4107  0.1407
 4487TIP3    H134876   0.300   4.004  16.554 -0.7728 -1.1255  0.1481
 4487TIP3    H234877   0.299   3.969  16.701  0.7094  1.2137  0.7788
 4488TIP3   OH234878   0.840   3.998   4.128  0.2510  0.3747 -0.4303
 4488TIP3    H134879   0.830   3.952   4.211  2.1936  0.5688 -0.0348
 4488TIP3    H234880   0.858   3.929   4.064 -0.2795  0.3135 -0.5221
 4489TIP3   OH234881   4.764   3.925   0.598  0.0716  0.6718 -0.1502
 4489TIP3    H134882   4.775   3.999   0.657 -0.4613  0.1713  0.5996
 4489TIP3    H234883   4.680   3.941   0.555 -0.5393  0.0327  0.7503
 4490TIP3   OH234884   2.311   6.442  17.092  0.2928 -0.4682 -0.0711
 4490TIP3    H134885   2.391   6.392  17.112  0.5424  0.8642  2.7611
 4490TIP3    H234886   2.256   6.381  17.043  1.8921 -2.3916  0.3973
 4491TIP3   OH234887   3.345   1.660  15.569  0.1455 -0.2682 -0.4499
 4491TIP3    H134888   3.309   1.572  15.560  1.6750 -0.9658 -0.0988
 4491TIP3    H234889   3.268   1.718  15.568 -0.9314 -1.6373 -0.1184
 4492TIP3   OH234890   3.158   3.407  15.087 -0.2757  0.4840 -0.1832
 4492TIP3    H134891   3.135   3.432  14.997  0.3343 -0.5039 -0.6298
 4492TIP3    H234892   3.190   3.488  15.126  0.0494  0.7947 -1.0587
 4493TIP3   OH234893   4.723   4.974   0.973 -0.1837  0.1117 -0.1585
 4493TIP3    H134894   4.788   4.907   0.952 -0.8752  0.0209 -2.2492
 4493TIP3    H234895   4.775   5.054   0.987  0.5182 -0.4627  0.5814
 4494TIP3   OH234896   0.819   5.749  13.409 -0.1705 -0.4157  0.2686
 4494TIP3    H134897   0.812   5.824  13.468  3.1953  1.0416 -0.9067
 4494TIP3    H234898   0.869   5.684  13.458  0.8300 -0.0338 -0.2202
 4495TIP3   OH234899   5.727   0.709   2.166  0.4147 -0.2791 -0.5949
 4495TIP3    H134900   5.786   0.640   2.138 -0.8444 -1.3977 -0.6137
 4495TIP3    H234901   5.644   0.664   2.183  0.3470  0.7461  2.2746
 4496TIP3   OH234902   6.232   4.350  16.396  0.1941  0.0035  0.3048
 4496TIP3    H134903   6.236   4.400  16.477  2.2846  0.6422 -0.1342
 4496TIP3    H234904   6.319   4.362  16.356  0.0733 -2.3125 -0.8072
 4497TIP3   OH234905   5.192   1.214   0.897 -0.1930  0.0519 -0.3103
 4497TIP3    H134906   5.129   1.239   0.965 -0.7896 -2.3355  0.0826
 4497TIP3    H234907   5.156   1.255   0.817 -0.5507  1.2431  0.4256
 4498TIP3   OH234908   3.698   2.039   5.941  0.7719  0.6612  0.3412
 4498TIP3    H134909   3.636   1.970   5.920  1.9014  0.5789 -3.4037
 4498TIP3    H234910   3.745   2.007   6.018 -1.6093 -0.6753  1.3408
 4499TIP3   OH234911   3.381   4.857   1.337 -0.5781 -0.0123  0.1515
 4499TIP3    H134912   3.442   4.821   1.273  1.0033 -0.4502  1.8476
 4499TIP3    H234913   3.387   4.952   1.325 -2.7888 -0.0724 -2.5188
 4500TIP3   OH234914   1.720   0.172  14.778  0.2329  0.1442  0.1634
 4500TIP3    H134915   1.666   0.224  14.719 -0.7905 -1.2122 -0.1604
 4500TIP3    H234916   1.722   0.085  14.738  2.9713  0.2094 -0.0041
 4501TIP3   OH234917   3.165   1.083   1.027  0.4293 -0.2551  0.0871
 4501TIP3    H134918   3.146   1.154   0.966  0.1051  0.8898  1.4564
 4501TIP3    H234919   3.229   1.120   1.087  0.9414 -1.4383  0.3057
 4502TIP3   OH234920   6.371   4.093   3.903  0.9156 -0.2696  0.1847
 4502TIP3    H134921   6.285   4.104   3.862  0.6842 -0.4033  0.6237
 4502TIP3    H234922   6.430   4.073   3.831  0.7804  0.8307 -0.2493
 4503TIP3   OH234923   1.489   5.129   5.553  0.3491  0.1660 -0.3874
 4503TIP3    H134924   1.415   5.071   5.571  0.7352  0.0530  0.9904
 4503TIP3    H234925   1.457   5.216   5.577  0.3719  0.2541 -0.6737
 4504TIP3   OH234926   4.567   6.220   0.414 -0.1505  0.0131 -0.0214
 4504TIP3    H134927   4.643   6.177   0.452 -0.8653 -4.1824 -2.6650
 4504TIP3    H234928   4.492   6.183   0.460 -0.7539 -0.1024 -1.0539
 4505TIP3   OH234929   1.152   6.545   5.167  0.7356 -0.8712 -0.0756
 4505TIP3    H134930   1.155   6.456   5.132  1.4303 -1.0807  0.4705
 4505TIP3    H234931   1.127   6.534   5.259  0.2313 -0.4513 -0.1602
 4506TIP3   OH234932   0.421   5.528   1.218 -0.1621 -0.4161  0.0476
 4506TIP3    H134933   0.330   5.529   1.247 -0.0024 -1.3729  0.6231
 4506TIP3    H234934   0.418   5.487   1.131 -0.4587  1.0786 -0.6872
 4507TIP3   OH234935   3.408   3.773  11.400 -0.0933 -0.5833  0.0735
 4507TIP3    H134936   3.473   3.831  11.441  1.5066 -2.0370 -0.2802
 4507TIP3    H234937   3.324   3.809  11.427  0.7910  2.2760 -0.6490
 4508TIP3   OH234938   1.596   2.992  12.134  0.1320 -0.2285  0.0260
 4508TIP3    H134939   1.640   3.057  12.189 -1.2632  0.6403  0.1753
 4508TIP3    H234940   1.505   3.021  12.130 -0.3469 -1.6906 -0.6610
 4509TIP3   OH234941   6.177   4.933  17.019 -0.1663 -0.4471 -0.6902
 4509TIP3    H134942   6.204   4.843  17.001  0.0073 -0.6987  0.7081
 4509TIP3    H234943   6.134   4.962  16.939  0.8665 -1.3458 -1.5943
 4510TIP3   OH234944   0.193   0.453  16.282 -0.0199  0.5266  0.2258
 4510TIP3    H134945   0.231   0.392  16.219  0.2353  0.3442  0.5521
 4510TIP3    H234946   0.239   0.536  16.265  0.0692  0.4707  0.1921
 4511TIP3   OH234947   2.635   4.967   4.229 -0.1289  0.1647 -0.6949
 4511TIP3    H134948   2.614   4.887   4.278  0.9797  1.2881  1.7513
 4511TIP3    H234949   2.694   4.937   4.160  0.1203 -1.1625  0.0525
 4512TIP3   OH234950   1.754   4.972  13.443  0.4149 -0.5772 -0.0542
 4512TIP3    H134951   1.804   4.931  13.372  1.5215  0.4530  0.0940
 4512TIP3    H234952   1.791   5.061  13.450  0.1157 -0.5500  1.5890
 4513TIP3   OH234953   2.361   2.668   1.328  0.2723 -0.2813  0.1052
 4513TIP3    H134954   2.310   2.594   1.361 -0.4558 -0.2862 -1.0040
 4513TIP3    H234955   2.356   2.661   1.233  1.1904  0.5202 -0.0187
 4514TIP3   OH234956   5.985   4.719  12.679 -0.2384 -0.3073 -0.1390
 4514TIP3    H134957   5.905   4.683  12.641 -2.1055  0.1186  3.0535
 4514TIP3    H234958   5.967   4.812  12.691  0.7512 -0.1940  0.6342
 4515TIP3   OH234959   0.909   2.402   4.878 -0.0892 -0.0323 -0.0741
 4515TIP3    H134960   0.955   2.453   4.812 -2.6353  1.5462 -0.7765
 4515TIP3    H234961   0.836   2.362   4.831 -0.9283 -0.3481  1.4365
 4516TIP3   OH234962   3.257   3.219  16.839  0.0362 -0.3069 -0.1445
 4516TIP3    H134963   3.216   3.133  16.843 -0.6450  0.0562  1.9384
 4516TIP3    H234964   3.321   3.212  16.768  0.1326 -2.5712  0.1001
 4517TIP3   OH234965   3.864   0.176   0.054  0.0607 -0.3150  0.3729
 4517TIP3    H134966   3.878   0.255   0.001 -0.9046 -0.8947 -0.7765
 4517TIP3    H234967   3.788   0.197   0.107  0.3586 -0.1477  0.7415
 4518TIP3   OH234968   5.534   4.520   3.721 -0.3885 -0.2176  0.1320
 4518TIP3    H134969   5.534   4.616   3.715 -3.8823 -0.1230 -0.4234
 4518TIP3    H234970   5.626   4.497   3.735  0.5950  3.1827  0.1914
 4519TIP3   OH234971   4.320   3.063  15.011 -0.7315  0.1951 -0.1605
 4519TIP3    H134972   4.320   2.981  14.960  1.0128  0.7870 -1.1919
 4519TIP3    H234973   4.256   3.048  15.080 -1.2385 -1.6448 -0.9631
 4520TIP3   OH234974   5.318   5.138   5.530 -0.5107  0.4864 -0.4584
 4520TIP3    H134975   5.339   5.090   5.610  0.9443 -0.8889 -1.5979
 4520TIP3    H234976   5.308   5.229   5.559  1.6096  0.3105  1.0734
 4521TIP3   OH234977   2.619   4.899  12.500  0.1969  0.0163  0.8000
 4521TIP3    H134978   2.692   4.935  12.450  0.1248  1.2040  1.4827
 4521TIP3    H234979   2.549   4.887  12.436 -0.1763  2.2811  0.6660
 4522TIP3   OH234980   1.792   1.765   3.778 -0.0741  0.0704  0.1871
 4522TIP3    H134981   1.862   1.774   3.713 -1.1852  0.0638 -1.0458
 4522TIP3    H234982   1.735   1.840   3.761 -0.9331 -0.5159  0.4606
 4523TIP3   OH234983   0.791   4.777   1.913 -0.7351  0.4662 -0.2414
 4523TIP3    H134984   0.880   4.814   1.905  0.2101 -1.3251  1.2526
 4523TIP3    H234985   0.746   4.837   1.973  0.0039  0.4997  0.2953
 4524TIP3   OH234986   2.429   5.901  11.362 -0.0719  0.0345 -0.0039
 4524TIP3    H134987   2.444   5.871  11.272  1.4186 -1.3659  0.6836
 4524TIP3    H234988   2.444   5.996  11.358  2.4999 -0.3407 -0.7600
 4525TIP3   OH234989   6.740   2.115   4.162 -1.1200 -0.2561 -0.0200
 4525TIP3    H134990   6.686   2.183   4.120 -1.3236  0.6251  1.5769
 4525TIP3    H234991   6.678   2.065   4.214 -0.4376  0.8791  1.9819
 4526TIP3   OH234992   0.546   2.722   6.312  0.4482 -0.0289  0.0684
 4526TIP3    H134993   0.452   2.728   6.331  0.4719  1.4218 -0.1509
 4526TIP3    H234994   0.560   2.629   6.293 -1.5047  0.0893 -2.6123
 4527TIP3   OH234995   0.151   6.041   1.118  0.3456  0.1262  0.1082
 4527TIP3    H134996   0.227   6.063   1.065  0.0510  1.5313  0.2251
 4527TIP3    H234997   0.155   6.102   1.193 -0.0446 -0.8289  0.9335
 4528TIP3   OH234998   3.501   1.727   1.266  0.3943 -0.1261  0.0541
 4528TIP3    H134999   3.461   1.780   1.197 -1.6564 -0.5234  0.8397
 4528TIP3    H235000   3.507   1.786   1.341 -0.1607 -0.4610  0.3762
 4529TIP3   OH235001   0.479   1.945  11.013 -0.8594 -0.6165 -0.0117
 4529TIP3    H135002   0.531   1.997  11.074  0.3626 -1.9980  0.1917
 4529TIP3    H235003   0.448   2.008  10.948  0.9996  0.3088 -0.0828
 4530TIP3   OH235004   5.661   6.813  11.348  0.2002  0.4512  0.6848
 4530TIP3    H135005   5.677   6.907  11.347  2.6218  0.1629 -2.2985
 4530TIP3    H235006   5.576   6.803  11.305 -0.5283  1.2349  1.8530
 4531TIP3   OH235007   2.026   2.931   3.414  0.7008 -0.2126  0.1369
 4531TIP3    H135008   2.110   2.888   3.399  0.2582 -0.8228 -0.7323
 4531TIP3    H235009   2.038   2.981   3.494  1.9016 -0.2596  0.0022
 4532TIP3   OH235010   2.161   5.887   3.886  0.1885 -0.0792 -0.1906
 4532TIP3    H135011   2.146   5.906   3.793  2.2250 -0.4215 -0.6404
 4532TIP3    H235012   2.096   5.940   3.932 -0.4582  0.5748 -1.7836
 4533TIP3   OH235013   0.091   0.427  15.674 -0.7432  0.2019  0.0711
 4533TIP3    H135014   0.045   0.361  15.727 -2.5434  1.4006  0.0798
 4533TIP3    H235015   0.022   0.467  15.621  0.4210  1.5998 -0.4412
 4534TIP3   OH235016   1.619   1.894   6.228  0.7534  0.1283  0.6472
 4534TIP3    H135017   1.546   1.835   6.249  0.6076  0.9307  2.6013
 4534TIP3    H235018   1.581   1.956   6.165 -0.0890  0.1559  1.1575
 4535TIP3   OH235019   6.245   3.237  12.846 -0.0445 -0.0489 -0.2453
 4535TIP3    H135020   6.330   3.203  12.818  0.0776 -0.7234  0.8554
 4535TIP3    H235021   6.227   3.190  12.928 -0.5174  1.5913  0.6244
 4536TIP3   OH235022   3.285   4.129   5.078  0.4458  0.1641  0.3393
 4536TIP3    H135023   3.349   4.062   5.103 -2.0028 -2.1490  0.9009
 4536TIP3    H235024   3.212   4.080   5.039 -0.8002  2.6913 -0.7865
 4537TIP3   OH235025   4.113   3.758  16.910  0.0757  0.5659  0.1853
 4537TIP3    H135026   4.145   3.837  16.954  2.2131 -0.2358  0.1910
 4537TIP3    H235027   4.055   3.717  16.974  1.2898  0.6250  1.3678
 4538TIP3   OH235028   6.657   3.044   2.290  0.3874  0.0870 -0.1852
 4538TIP3    H135029   6.721   2.976   2.311  0.0414  0.1604  1.2117
 4538TIP3    H235030   6.612   3.011   2.213  1.9228 -0.0728 -1.0446
 4539TIP3   OH235031   1.076   0.543   4.554 -0.0249 -0.1051 -0.0024
 4539TIP3    H135032   1.015   0.477   4.519 -0.9662  0.3753  0.6852
 4539TIP3    H235033   1.125   0.497   4.622 -1.0702  0.0135  0.8693
 4540TIP3   OH235034   2.303   2.198   5.263 -0.0058  0.1949 -0.0177
 4540TIP3    H135035   2.349   2.194   5.179  0.2823  0.7473  0.1080
 4540TIP3    H235036   2.241   2.270   5.253  0.9697  1.1614  0.6926
 4541TIP3   OH235037   1.033   3.904  11.964 -0.0351  0.5606 -0.8073
 4541TIP3    H135038   1.039   3.981  11.907  0.5890 -0.3059 -1.9727
 4541TIP3    H235039   1.064   3.832  11.909  0.2673 -0.3753  0.5542
 4542TIP3   OH235040   2.771   3.991  11.639 -0.0715  0.0324  0.0301
 4542TIP3    H135041   2.856   3.949  11.624 -0.7954 -1.0357 -1.3111
 4542TIP3    H235042   2.775   4.020  11.730  0.6323 -2.6309  0.9583
 4543TIP3   OH235043   4.432   2.429   4.615 -0.0267 -0.5865  0.2290
 4543TIP3    H135044   4.338   2.433   4.633 -0.1891 -0.2902 -0.6382
 4543TIP3    H235045   4.440   2.460   4.525  0.9802  0.0465  0.5338
 4544TIP3   OH235046   4.138   4.602  11.347 -0.6516  0.2147  0.1259
 4544TIP3    H135047   4.109   4.539  11.413  2.6921 -2.3020 -0.5205
 4544TIP3    H235048   4.103   4.569  11.265 -2.4645  1.7612  0.2157
 4545TIP3   OH235049   6.495   6.289  16.546 -0.4033  0.1740 -0.2456
 4545TIP3    H135050   6.565   6.321  16.490 -1.9280  1.4401 -1.4875
 4545TIP3    H235051   6.483   6.358  16.612  0.2054 -0.5324  0.6426
 4546TIP3   OH235052   4.716   4.512  13.973 -0.4765 -0.3596  0.0550
 4546TIP3    H135053   4.803   4.514  14.013 -0.6530 -0.2946  0.4441
 4546TIP3    H235054   4.732   4.491  13.881 -0.2214 -3.2127  0.6482
 4547TIP3   OH235055   0.044   1.988   0.921 -0.1354 -0.1133  0.1488
 4547TIP3    H135056   0.101   1.952   0.852 -0.7410 -0.0812 -0.3811
 4547TIP3    H235057  -0.027   2.031   0.873 -1.6368 -1.7809  0.7894
 4548TIP3   OH235058   4.676   3.278   2.081  0.7094 -0.0009 -0.4200
 4548TIP3    H135059   4.695   3.279   1.987 -0.2552  0.2407 -0.6212
 4548TIP3    H235060   4.681   3.370   2.107  1.8998 -0.1597 -0.0279
 4549TIP3   OH235061   3.103   3.135  13.533 -0.0234 -0.4538  0.5741
 4549TIP3    H135062   3.179   3.078  13.543 -0.1904 -0.6050  0.9664
 4549TIP3    H235063   3.097   3.150  13.438  0.4133 -0.5476  0.5304
 4550TIP3   OH235064   5.798   2.434   4.061 -0.2006  0.0682  0.2280
 4550TIP3    H135065   5.825   2.360   4.006 -0.7976  1.1347 -1.5849
 4550TIP3    H235066   5.864   2.502   4.044 -0.2027  0.3106  1.1268
 4551TIP3   OH235067   1.648   0.511   1.024 -0.1612 -0.2333  0.1429
 4551TIP3    H135068   1.604   0.597   1.020  2.0821  1.0121  0.6110
 4551TIP3    H235069   1.608   0.461   0.953 -1.5873  1.1592 -0.1055
 4552TIP3   OH235070   2.866   4.579  11.625  0.3159  0.0707 -0.9648
 4552TIP3    H135071   2.951   4.620  11.642 -0.7604  1.5714  1.3994
 4552TIP3    H235072   2.805   4.653  11.620 -0.8274 -0.9372 -3.0854
 4553TIP3   OH235073   2.578   4.375  12.721 -0.1013  0.6910 -0.1109
 4553TIP3    H135074   2.529   4.369  12.639  0.7792 -0.2641 -0.5925
 4553TIP3    H235075   2.565   4.465  12.750 -1.5783  0.6539 -0.5565
 4554TIP3   OH235076   4.380   2.018  15.961 -0.0808  0.3488 -0.1291
 4554TIP3    H135077   4.316   2.086  15.938 -0.0699  0.5366  0.3829
 4554TIP3    H235078   4.452   2.032  15.900 -0.7662 -0.2394 -1.1188
 4555TIP3   OH235079   4.545   4.003  11.549  0.0993  0.3163  0.1954
 4555TIP3    H135080   4.587   3.917  11.542  1.1366  0.8098  0.1162
 4555TIP3    H235081   4.520   4.024  11.459  1.8189  1.0284 -0.1528
 4556TIP3   OH235082   3.427   0.326  14.473 -0.3340 -0.1356 -0.3084
 4556TIP3    H135083   3.450   0.417  14.452 -0.7936  0.4195  1.4598
 4556TIP3    H235084   3.447   0.278  14.393 -0.1448  1.5271 -1.3165
 4557TIP3   OH235085   3.192   6.168  16.075  0.4685  0.1336  0.1249
 4557TIP3    H135086   3.280   6.159  16.040  0.3305 -1.2098  0.0720
 4557TIP3    H235087   3.183   6.096  16.137 -0.8348 -0.2028 -0.4138
 4558TIP3   OH235088   5.133   3.314  13.750 -0.2399 -0.1640 -0.0033
 4558TIP3    H135089   5.151   3.393  13.699  0.7439 -0.6025 -0.3725
 4558TIP3    H235090   5.216   3.295  13.793 -0.4548 -1.0260  0.0387
 4559TIP3   OH235091   0.962   5.789  15.719  0.0763  0.4299 -0.6036
 4559TIP3    H135092   0.955   5.695  15.735 -0.0756  0.7030  1.1633
 4559TIP3    H235093   1.040   5.815  15.768 -1.0796  1.5532  0.7281
 4560TIP3   OH235094   3.798   1.349   3.684  0.0550 -0.5503 -1.1647
 4560TIP3    H135095   3.851   1.347   3.604 -1.4772  2.8521 -2.4500
 4560TIP3    H235096   3.714   1.312   3.658 -0.4086  0.4552 -1.1502
 4561TIP3   OH235097   4.436   4.545   0.418  0.3462  0.0768  0.4332
 4561TIP3    H135098   4.469   4.531   0.330 -0.9414 -0.0176 -0.0473
 4561TIP3    H235099   4.499   4.500   0.475  1.0758 -0.0228 -0.4320
 4562TIP3   OH235100   5.403   6.706  13.555 -0.2476  0.1709 -0.0943
 4562TIP3    H135101   5.471   6.647  13.522 -1.5952 -2.4131  1.3772
 4562TIP3    H235102   5.322   6.654  13.551 -1.1775  1.0948  3.2736
 4563TIP3   OH235103   6.571   2.956   4.797 -0.0678 -0.3181  0.4025
 4563TIP3    H135104   6.528   3.034   4.762 -1.8482 -2.0775 -1.6371
 4563TIP3    H235105   6.534   2.946   4.885  0.9394  1.6122  1.0946
 4564TIP3   OH235106   1.625   4.520   5.880  0.3424 -0.0679 -0.2268
 4564TIP3    H135107   1.626   4.561   5.966 -0.8367  0.0686 -0.2582
 4564TIP3    H235108   1.590   4.587   5.821 -0.1840 -0.6083 -0.5470
 4565TIP3   OH235109   1.436   0.731   6.452 -0.2566 -0.0597  0.2306
 4565TIP3    H135110   1.530   0.713   6.460 -0.4596 -0.7975  1.0646
 4565TIP3    H235111   1.432   0.822   6.422  0.7150  0.2247  0.9167
 4566TIP3   OH235112   6.051   1.581   4.033 -0.2718 -0.0460  0.0219
 4566TIP3    H135113   6.018   1.535   4.110 -0.0986 -1.4672 -0.7210
 4566TIP3    H235114   5.994   1.658   4.024 -0.2509  0.1772  1.5831
 4567TIP3   OH235115   4.507   5.799   1.314 -0.4246 -0.0695  0.0788
 4567TIP3    H135116   4.460   5.718   1.295 -1.2642  0.4293 -0.0210
 4567TIP3    H235117   4.515   5.800   1.409 -0.6568 -0.1430  0.1007
 4568TIP3   OH235118   4.831   3.739  12.393 -0.3037 -0.0383  0.0653
 4568TIP3    H135119   4.766   3.808  12.392 -1.1551 -0.7306  2.2019
 4568TIP3    H235120   4.910   3.781  12.428 -0.3650  0.2108 -0.0953
 4569TIP3   OH235121   0.886   1.913  14.938  0.4055 -0.4482 -0.0127
 4569TIP3    H135122   0.896   1.909  14.843 -0.5021 -2.5610 -0.0793
 4569TIP3    H235123   0.972   1.889  14.972  0.5714 -0.2794 -0.3096
 4570TIP3   OH235124   6.733   4.275   0.398 -0.1913 -0.6234  0.0571
 4570TIP3    H135125   6.820   4.248   0.427  0.0741  1.7004  1.7323
 4570TIP3    H235126   6.749   4.339   0.329 -0.5770 -0.3586  0.2064
 4571TIP3   OH235127   5.036   4.760   5.058  0.0155  0.0597 -0.1615
 4571TIP3    H135128   5.012   4.779   5.149  0.0651  1.8468 -0.4847
 4571TIP3    H235129   4.995   4.675   5.040  1.2944 -1.0943  1.9784
 4572TIP3   OH235130   5.587   4.953  15.453  0.6470  0.0324  0.6066
 4572TIP3    H135131   5.576   5.017  15.383  0.7146 -0.3790  0.2140
 4572TIP3    H235132   5.599   4.870  15.407  0.2724 -0.3056  1.1163
 4573TIP3   OH235133   1.113   3.050  12.723  0.0050  0.1598  0.1129
 4573TIP3    H135134   1.074   2.964  12.706  0.2748 -0.2850  1.6143
 4573TIP3    H235135   1.169   3.037  12.799  2.3750  0.9986 -1.3690
 4574TIP3   OH235136   2.740   3.471   0.368  0.5048  0.4752 -0.1200
 4574TIP3    H135137   2.653   3.439   0.344  0.1945  0.5658  0.8496
 4574TIP3    H235138   2.799   3.432   0.303  0.0119 -1.3252  0.4600
 4575TIP3   OH235139   2.746   2.007  14.955 -0.2361  0.5184 -0.6493
 4575TIP3    H135140   2.822   1.953  14.977 -0.0287  0.9037 -0.4189
 4575TIP3    H235141   2.672   1.946  14.955 -0.2371  0.4929  1.0122
 4576TIP3   OH235142   3.332   0.882   4.220  0.2832  0.1712  0.9854
 4576TIP3    H135143   3.338   0.888   4.315 -1.3729  0.3272  1.1083
 4576TIP3    H235144   3.270   0.811   4.204  1.3679 -0.5855 -0.0151
 4577TIP3   OH235145   0.318   0.062   4.214 -0.3497  0.1019 -0.3291
 4577TIP3    H135146   0.390   0.070   4.277  0.8559  1.9352 -1.8214
 4577TIP3    H235147   0.271   0.145   4.221 -3.2221 -1.5084  1.5107
 4578TIP3   OH235148   0.230   3.953   2.842 -0.2740 -0.8980  0.3189
 4578TIP3    H135149   0.271   3.932   2.926 -0.8399 -1.6145  0.4335
 4578TIP3    H235150   0.175   4.029   2.861  0.9941  0.0992  0.1511
 4579TIP3   OH235151   4.999   0.046   5.189  0.1092 -0.5173  0.1038
 4579TIP3    H135152   5.037  -0.036   5.220  2.2658  0.6647  0.8243
 4579TIP3    H235153   4.926   0.064   5.250  1.1660 -0.7127  1.4851
 4580TIP3   OH235154   5.588   0.203  12.693  0.1422 -0.3172 -0.0990
 4580TIP3    H135155   5.541   0.125  12.721 -1.2783  0.3287 -0.6300
 4580TIP3    H235156   5.667   0.169  12.649 -1.8932 -1.6122 -3.0670
 4581TIP3   OH235157   5.028   4.854   3.072  0.2647  0.1290  0.0008
 4581TIP3    H135158   4.955   4.913   3.094  0.4118  0.2561  0.1507
 4581TIP3    H235159   4.986   4.771   3.052  0.0312  0.3650 -0.5010
 4582TIP3   OH235160   2.874   4.796  14.861 -0.0016  0.3197 -0.3965
 4582TIP3    H135161   2.818   4.838  14.926 -0.0966  1.9061 -1.4383
 4582TIP3    H235162   2.823   4.721  14.831 -0.3266  0.0772  0.7152
 4583TIP3   OH235163   1.501   0.316  17.098 -0.2719 -0.0069 -0.2061
 4583TIP3    H135164   1.488   0.410  17.110 -2.1043 -0.1730 -0.6430
 4583TIP3    H235165   1.477   0.277  17.182 -1.4919 -0.2293 -0.6453
 4584TIP3   OH235166   1.433   5.920   3.437  0.1379  0.0256 -0.1023
 4584TIP3    H135167   1.393   5.851   3.491 -1.2510  0.0124 -1.1092
 4584TIP3    H235168   1.467   5.873   3.361 -0.6690  0.4170 -0.7135
 4585TIP3   OH235169   6.128   5.687  15.654  0.9985 -0.0803  0.3177
 4585TIP3    H135170   6.127   5.592  15.651  1.0505 -0.1192 -4.0604
 4585TIP3    H235171   6.179   5.714  15.578  1.3216  3.5100  1.5790
 4586TIP3   OH235172   2.224   5.926  13.517  0.2409  0.3128 -0.0595
 4586TIP3    H135173   2.269   5.979  13.583  1.4911  1.8746 -2.0355
 4586TIP3    H235174   2.262   5.838  13.526 -0.1407  0.3035  1.7346
 4587TIP3   OH235175   3.900   6.680  12.608 -0.5844  0.6222  0.1871
 4587TIP3    H135176   3.953   6.634  12.543 -2.0213  0.0965 -0.6529
 4587TIP3    H235177   3.952   6.676  12.688 -0.3398 -1.8905 -0.0188
 4588TIP3   OH235178   0.533   6.449  12.009  0.2072 -0.2539 -0.5710
 4588TIP3    H135179   0.627   6.454  12.031  0.3431 -0.1065 -1.1802
 4588TIP3    H235180   0.501   6.375  12.061  1.2604 -2.1465 -2.4676
 4589TIP3   OH235181   2.747   4.316  13.188 -0.4547 -0.4722 -0.5640
 4589TIP3    H135182   2.785   4.230  13.207  0.8471 -0.0208 -1.0139
 4589TIP3    H235183   2.655   4.308  13.214 -0.1469 -1.7207  0.2239
 4590TIP3   OH235184   5.134   6.168  11.976 -0.3942 -0.0939 -0.0087
 4590TIP3    H135185   5.070   6.179  12.047 -1.6482 -0.0356 -1.1148
 4590TIP3    H235186   5.147   6.074  11.969 -0.4805 -0.1137  0.1019
 4591TIP3   OH235187   1.288   5.953   4.325  0.6734 -0.4214  0.1803
 4591TIP3    H135188   1.293   6.043   4.356  0.7865  0.4487 -2.1701
 4591TIP3    H235189   1.203   5.921   4.356  0.4711  0.6052  0.7135
 4592TIP3   OH235190   0.550   6.482  12.957 -0.1667  0.8396 -0.2881
 4592TIP3    H135191   0.545   6.390  12.985 -1.1148  0.8010 -0.5674
 4592TIP3    H235192   0.554   6.532  13.038 -0.6926  0.6069 -0.1171
 4593TIP3   OH235193   1.475   3.968   0.035 -0.0408 -0.3157  0.4599
 4593TIP3    H135194   1.518   4.051   0.019  1.5184 -1.1712  0.0216
 4593TIP3    H235195   1.408   3.987   0.101  0.7945  1.1179  0.9235
 4594TIP3   OH235196   5.865   3.066   3.264  0.4784 -0.1439  0.4237
 4594TIP3    H135197   5.880   3.160   3.272  0.1136 -0.0831  0.4156
 4594TIP3    H235198   5.901   3.029   3.344  0.0796  0.0727  0.7105
 4595TIP3   OH235199   1.913   1.215   3.290 -0.6135 -0.1822 -0.2616
 4595TIP3    H135200   1.991   1.240   3.339 -0.1257 -0.3452 -0.9351
 4595TIP3    H235201   1.862   1.162   3.351  0.6372 -1.5558 -0.3508
 4596TIP3   OH235202   0.954   2.230  12.764 -0.5836  0.4364  0.1678
 4596TIP3    H135203   0.934   2.186  12.846 -0.6359 -0.7258 -0.4462
 4596TIP3    H235204   0.889   2.197  12.703  0.0785  0.5026 -0.5928
 4597TIP3   OH235205   3.469   6.240   5.056 -0.2745 -0.1360  1.2643
 4597TIP3    H135206   3.494   6.332   5.052 -0.5519 -0.0762  0.7969
 4597TIP3    H235207   3.488   6.213   5.146  0.8510  0.0706  1.1036
 4598TIP3   OH235208   1.829   6.731   6.100 -0.2632 -0.6591 -0.4131
 4598TIP3    H135209   1.846   6.647   6.057 -1.0033 -0.8932 -0.2545
 4598TIP3    H235210   1.818   6.709   6.193  0.6654 -0.2373 -0.1843
 4599TIP3   OH235211   3.573   1.044   2.141 -0.9706  0.6284  0.3679
 4599TIP3    H135212   3.563   1.121   2.085  0.3130  1.6292  1.4424
 4599TIP3    H235213   3.636   1.071   2.208  1.0872 -1.9817 -0.3442
 4600TIP3   OH235214   6.628   1.986   2.287  0.2427  0.0573  0.1736
 4600TIP3    H135215   6.679   1.912   2.254 -0.2784  0.1148 -0.8123
 4600TIP3    H235216   6.682   2.063   2.268  0.0002  0.0787 -0.4546
 4601TIP3   OH235217   1.797   4.588   3.845  0.0678  0.0843 -0.1064
 4601TIP3    H135218   1.732   4.613   3.780  0.4978 -1.6193 -1.2404
 4601TIP3    H235219   1.876   4.570   3.795  1.2506  1.3879  1.1757
 4602TIP3   OH235220   2.089   1.624  15.032  0.2914  0.0718 -0.2735
 4602TIP3    H135221   2.018   1.628  15.096  0.9898  0.8293  0.4720
 4602TIP3    H235222   2.084   1.535  14.997 -0.9010  0.0519 -0.1092
 4603TIP3   OH235223   4.518   5.853  16.141  0.1677  0.1342 -0.0682
 4603TIP3    H135224   4.471   5.905  16.075  0.6226  0.0606 -0.4602
 4603TIP3    H235225   4.453   5.789  16.171  0.1874 -0.3655 -1.0520
 4604TIP3   OH235226   5.360   1.438   0.981 -0.0092 -0.0114  0.1201
 4604TIP3    H135227   5.310   1.519   0.977 -0.7010 -0.4225  0.2644
 4604TIP3    H235228   5.302   1.372   0.943 -0.5952 -0.9634  2.4426
 4605TIP3   OH235229   3.052   2.763   5.211 -0.0087 -0.0334 -0.5774
 4605TIP3    H135230   2.993   2.722   5.148 -0.9631 -0.0751  0.3258
 4605TIP3    H235231   3.086   2.690   5.263 -0.7958  0.1780  0.2627
 4606TIP3   OH235232   1.105   3.048  14.061  0.4744 -0.0813  0.1416
 4606TIP3    H135233   1.170   2.982  14.038 -0.0351 -0.3065 -0.6796
 4606TIP3    H235234   1.037   3.000  14.108  0.9763  0.1839  1.1507
 4607TIP3   OH235235   1.978   5.551   0.743  0.3089 -0.8735 -0.2592
 4607TIP3    H135236   1.897   5.571   0.697  1.3020 -0.4004 -1.8878
 4607TIP3    H235237   2.044   5.606   0.701  1.8836 -2.7857 -0.4359
 4608TIP3   OH235238   6.540   6.682  13.243 -0.0837  0.1010  0.3297
 4608TIP3    H135239   6.509   6.646  13.327 -1.4787 -0.6919 -0.4946
 4608TIP3    H235240   6.574   6.607  13.195  1.9388  0.7431  0.6394
 4609TIP3   OH235241   2.953   0.782   1.607  0.0147 -0.2545  0.3717
 4609TIP3    H135242   2.976   0.814   1.694 -2.4707  0.2608  0.9164
 4609TIP3    H235243   2.889   0.846   1.574  0.6815 -0.5836 -1.7409
 4610TIP3   OH235244   0.923   2.362  12.460 -0.2394  0.1864 -0.0994
 4610TIP3    H135245   0.956   2.396  12.377 -1.3352  0.1261 -0.5783
 4610TIP3    H235246   0.969   2.279  12.472  0.9818  0.8573  0.0893
 4611TIP3   OH235247   3.438   4.644   1.077 -0.0379  0.3771  0.5747
 4611TIP3    H135248   3.531   4.661   1.064  0.0760 -0.7408 -0.2602
 4611TIP3    H235249   3.428   4.551   1.057 -1.4642  0.6468 -0.0923
 4612TIP3   OH235250   3.247   4.955   4.841 -0.4377  0.1078  0.5721
 4612TIP3    H135251   3.166   4.935   4.888  0.7248 -1.7617  1.8956
 4612TIP3    H235252   3.222   5.024   4.779 -2.7694  0.3731  1.6982
 4613TIP3   OH235253   2.477   5.972   1.807 -0.1438 -0.4079  0.4786
 4613TIP3    H135254   2.416   5.900   1.821 -2.7164  1.4295 -0.4447
 4613TIP3    H235255   2.487   6.012   1.894 -3.7792  1.7516  0.1036
 4614TIP3   OH235256   5.380   5.035  12.742 -0.0151  0.1349 -0.5079
 4614TIP3    H135257   5.460   5.086  12.735  0.9223 -1.0084  1.2277
 4614TIP3    H235258   5.407   4.944  12.726 -0.6060 -0.4847  1.6762
 4615TIP3   OH235259   1.942   5.933  13.434  0.4016 -0.3164  0.1987
 4615TIP3    H135260   2.035   5.935  13.409 -0.1986  2.1134 -2.4203
 4615TIP3    H235261   1.898   5.891  13.360 -0.8996  2.0391 -0.4794
 4616TIP3   OH235262   2.984   5.292  12.985  0.4136  0.6974 -0.4271
 4616TIP3    H135263   2.989   5.366  12.925  1.1989  0.7433 -0.3158
 4616TIP3    H235264   3.063   5.241  12.968 -0.4868 -0.5559 -1.0530
 4617TIP3   OH235265   2.387   6.271   5.316 -0.0146 -0.6740 -0.7660
 4617TIP3    H135266   2.417   6.262   5.226  0.7320  1.5489 -0.7982
 4617TIP3    H235267   2.466   6.256   5.369  0.3022  1.1622 -0.6648
 4618TIP3   OH235268   1.415   2.607  13.871  0.0340 -0.0385  0.2155
 4618TIP3    H135269   1.444   2.600  13.962  0.8775 -1.8022 -0.1249
 4618TIP3    H235270   1.490   2.644  13.825  1.4203 -3.2088 -0.4107
 4619TIP3   OH235271   5.096   5.530  12.409  0.4257  0.4916  0.3314
 4619TIP3    H135272   5.153   5.575  12.472 -0.9166  1.1657  1.0901
 4619TIP3    H235273   5.019   5.586  12.401 -0.1418 -0.3925 -0.7047
 4620TIP3   OH235274   3.851   4.732   0.528 -0.5637  0.3726  0.0600
 4620TIP3    H135275   3.778   4.687   0.485  0.8372 -2.3036  0.2906
 4620TIP3    H235276   3.869   4.679   0.606  0.9828  1.5292  0.5305
 4621TIP3   OH235277   4.948   2.280   1.046  0.2251  0.2703 -0.0618
 4621TIP3    H135278   4.998   2.354   1.081  0.4443 -0.2606  0.7901
 4621TIP3    H235279   4.857   2.305   1.056  0.2837  0.1400  0.8962
 4622TIP3   OH235280   0.333   1.812  13.258  0.3092  0.2335 -0.1594
 4622TIP3    H135281   0.240   1.825  13.242  0.4113  0.5031 -0.5607
 4622TIP3    H235282   0.376   1.846  13.179  0.7600  0.3760  0.1410
 4623TIP3   OH235283   5.402   2.994  16.306 -0.6002 -0.1303  0.8276
 4623TIP3    H135284   5.392   2.998  16.211 -0.6363 -0.8864  0.7969
 4623TIP3    H235285   5.328   3.045  16.340  0.5143  1.8676  0.4357
 4624TIP3   OH235286   2.534   0.736   5.199 -0.4088 -0.7308 -0.5610
 4624TIP3    H135287   2.538   0.671   5.129  0.4638 -1.8549  0.4970
 4624TIP3    H235288   2.466   0.704   5.259  0.3166 -0.9234  0.1814
 4625TIP3   OH235289   3.814   6.626  11.207 -0.1671 -0.1165 -0.1224
 4625TIP3    H135290   3.813   6.544  11.157 -0.4416 -1.5859  2.1545
 4625TIP3    H235291   3.792   6.693  11.142 -1.4694 -2.0006 -1.7736
 4626TIP3   OH235292   2.877   4.285   5.951 -0.3115 -0.4130 -0.6969
 4626TIP3    H135293   2.874   4.301   5.857 -0.3922  1.6375 -0.4114
 4626TIP3    H235294   2.816   4.350   5.988 -0.6463 -1.4915  0.7407
 4627TIP3   OH235295   6.611   3.983   0.988 -0.1102  0.1008  0.2639
 4627TIP3    H135296   6.522   3.975   0.954  0.6360  1.8657 -2.3904
 4627TIP3    H235297   6.660   3.913   0.945  0.0073 -0.2575  0.9647
 4628TIP3   OH235298   5.682   5.611  11.981 -0.2405 -0.2468  0.6345
 4628TIP3    H135299   5.740   5.536  11.990 -0.2655 -0.0911  2.5559
 4628TIP3    H235300   5.733   5.676  11.933  1.2548 -0.0897  2.3364
 4629TIP3   OH235301   2.864   0.793   3.444 -0.5471  0.1023 -0.0194
 4629TIP3    H135302   2.943   0.837   3.477 -1.0989  1.3776 -0.3720
 4629TIP3    H235303   2.885   0.771   3.353 -0.6793  0.6809 -0.1960
 4630TIP3   OH235304   0.811   4.262  17.034  0.6311 -0.1517  0.4703
 4630TIP3    H135305   0.716   4.269  17.029  0.6678 -0.0567 -0.1405
 4630TIP3    H235306   0.840   4.347  17.065  0.4827 -0.3689  1.2423
 4631TIP3   OH235307   5.241   5.603  16.208 -0.4217 -0.2232 -0.7125
 4631TIP3    H135308   5.297   5.648  16.271 -0.9681  0.9447 -1.0308
 4631TIP3    H235309   5.253   5.650  16.126  0.2682 -1.7158 -1.5096
 4632TIP3   OH235310   1.416   2.371   4.164  0.2414 -0.2019 -0.2813
 4632TIP3    H135311   1.331   2.357   4.205  0.6166  0.2127  0.6580
 4632TIP3    H235312   1.396   2.397   4.074 -0.6412  0.5602  0.1302
 4633TIP3   OH235313   3.305   5.594  17.120 -0.6778  0.5800 -0.5593
 4633TIP3    H135314   3.221   5.640  17.110 -0.3997  0.7006 -2.8885
 4633TIP3    H235315   3.292   5.511  17.074  0.7182  0.9830 -1.7601
 4634TIP3   OH235316   0.109   6.360  13.465  0.0740  0.7064  0.0092
 4634TIP3    H135317   0.202   6.348  13.482  0.0227  1.5913  1.0087
 4634TIP3    H235318   0.066   6.332  13.546 -0.4215  1.5966  0.0710
 4635TIP3   OH235319   4.363   1.709   4.993 -0.1942  0.4965 -0.0548
 4635TIP3    H135320   4.275   1.675   4.972 -0.3061  0.8699 -0.1885
 4635TIP3    H235321   4.416   1.686   4.917 -0.7277  2.3331 -1.0264
 4636TIP3   OH235322   2.977   4.243   2.909  0.1351  0.1002 -0.4895
 4636TIP3    H135323   3.015   4.331   2.906  1.3482 -0.4275 -1.0950
 4636TIP3    H235324   2.984   4.217   3.001 -0.6290  0.7895 -0.2223
 4637TIP3   OH235325   2.545   3.266  11.656  0.4005  0.2760 -0.0378
 4637TIP3    H135326   2.480   3.202  11.625  2.1241 -1.8767  0.5311
 4637TIP3    H235327   2.521   3.347  11.612 -1.7623 -0.8016 -1.0217
 4638TIP3   OH235328   6.783   0.054  12.773  0.2017 -0.0867  0.4751
 4638TIP3    H135329   6.774  -0.036  12.740  1.7408  0.5245 -1.8833
 4638TIP3    H235330   6.711   0.101  12.731  2.0508  0.6508 -2.1627
 4639TIP3   OH235331   4.563   0.170   2.897  0.3969 -0.1010  0.4030
 4639TIP3    H135332   4.653   0.148   2.874 -0.5963 -1.9256 -2.1668
 4639TIP3    H235333   4.511   0.095   2.866 -2.3302  2.2150 -1.0524
 4640TIP3   OH235334   3.516   6.567  16.364  0.1382 -0.3193 -0.9914
 4640TIP3    H135335   3.451   6.536  16.427  0.2581  0.8044 -0.2860
 4640TIP3    H235336   3.464   6.600  16.290 -0.0632 -0.1230 -0.7633
 4641TIP3   OH235337   1.665   3.866  11.182 -0.0803  0.0798 -0.0008
 4641TIP3    H135338   1.606   3.930  11.143  1.3896 -0.0129 -2.5687
 4641TIP3    H235339   1.745   3.871  11.129  0.8713 -2.3728  1.0514
 4642TIP3   OH235340   2.573   2.129  15.229 -0.2006 -0.7970 -0.0585
 4642TIP3    H135341   2.632   2.054  15.218  0.4935 -0.3266  0.3576
 4642TIP3    H235342   2.493   2.103  15.183 -0.2374 -2.0759  0.6639
 4643TIP3   OH235343   1.057   5.842  12.068 -0.7763  0.1928  0.2500
 4643TIP3    H135344   1.062   5.783  12.144 -2.0025 -0.3992 -0.1138
 4643TIP3    H235345   1.019   5.922  12.103  2.8613  1.7085  1.2423
 4644TIP3   OH235346   0.096   0.137  16.889 -0.1297 -0.0015  0.4154
 4644TIP3    H135347   0.130   0.125  16.978  2.1112 -0.4348 -0.4495
 4644TIP3    H235348   0.001   0.126  16.899  0.2351 -2.2462  2.4085
 4645TIP3   OH235349   3.473   3.121  10.979 -0.2375  0.1091  0.0488
 4645TIP3    H135350   3.458   3.036  11.022  2.9893 -1.2873 -1.2883
 4645TIP3    H235351   3.458   3.103  10.886  0.2518  1.0824 -0.2244
 4646TIP3   OH235352   3.284   5.748  16.406  0.1881 -0.0023  0.4545
 4646TIP3    H135353   3.366   5.797  16.402  0.6820 -0.8541 -0.4661
 4646TIP3    H235354   3.312   5.656  16.408 -0.7506 -0.3791 -1.6185
 4647TIP3   OH235355   4.671   0.286  14.740 -0.2037  0.3040  0.1324
 4647TIP3    H135356   4.625   0.336  14.808 -1.2095 -1.3214  0.7010
 4647TIP3    H235357   4.625   0.309  14.659  2.1271  3.6577 -0.4321
 4648TIP3   OH235358   5.262   4.525  13.057 -0.6296 -0.2009  0.0899
 4648TIP3    H135359   5.345   4.477  13.056 -0.9071 -0.6869 -0.3613
 4648TIP3    H235360   5.255   4.560  13.145  0.0877 -0.1017  0.1154
 4649TIP3   OH235361   6.186   2.566   4.710  0.3630 -0.3241 -0.1028
 4649TIP3    H135362   6.101   2.568   4.666  0.4710  0.5279 -0.2881
 4649TIP3    H235363   6.233   2.642   4.676  0.5202  0.2487  1.3266
 4650TIP3   OH235364   3.188   6.597   3.980  0.0735  0.4019 -0.1752
 4650TIP3    H135365   3.282   6.589   4.001  0.2402 -0.3680 -1.1591
 4650TIP3    H235366   3.156   6.664   4.040  1.7390  2.3542 -1.3406
 4651TIP3   OH235367   3.565   1.863   4.834  0.6786 -0.1606  0.0122
 4651TIP3    H135368   3.523   1.949   4.831  1.3987  0.1834 -0.4880
 4651TIP3    H235369   3.543   1.829   4.921  0.1677  0.4068  0.1183
 4652TIP3   OH235370   3.014   4.468  14.255 -0.2184  0.1723 -0.2764
 4652TIP3    H135371   3.078   4.528  14.217  1.2154 -1.3654 -0.3718
 4652TIP3    H235372   3.056   4.434  14.334 -1.3645 -0.0672  0.2582
 4653TIP3   OH235373   4.080   4.559   0.034  0.3178 -0.1925  0.0462
 4653TIP3    H135374   4.026   4.530   0.108 -1.5837  0.0247 -1.1967
 4653TIP3    H235375   4.103   4.478  -0.012  1.8222 -0.3639  1.0333
 4654TIP3   OH235376   2.791   4.255   4.743  0.7150 -0.5294  0.5567
 4654TIP3    H135377   2.844   4.177   4.724 -0.7088 -1.3101 -0.3648
 4654TIP3    H235378   2.718   4.250   4.681  0.4742  1.4390  0.6238
 4655TIP3   OH235379   4.930   6.703  11.188 -0.7947 -0.3997  0.4011
 4655TIP3    H135380   4.854   6.733  11.140 -0.0378  1.6537  0.3960
 4655TIP3    H235381   5.005   6.736  11.138  0.2095 -3.4137 -0.3094
 4656TIP3   OH235382   3.604   2.170  16.711 -0.1224 -0.3026 -0.3024
 4656TIP3    H135383   3.688   2.126  16.722  0.5068  0.8992 -0.0618
 4656TIP3    H235384   3.563   2.126  16.637  1.0538 -0.4443 -0.9067
 4657TIP3   OH235385   4.732   5.505  13.609  0.0701 -0.4756  0.0807
 4657TIP3    H135386   4.684   5.452  13.545  1.2565 -1.3891 -0.0772
 4657TIP3    H235387   4.800   5.549  13.558  0.8614 -1.0058  0.6628
 4658TIP3   OH235388   0.007   0.127  14.400 -0.2542  0.2982  0.1604
 4658TIP3    H135389  -0.077   0.080  14.397 -1.0059  1.5220  1.0728
 4658TIP3    H235390   0.017   0.162  14.311 -0.2622 -0.5908 -0.2012
 4659TIP3   OH235391   0.673   2.405  16.294  0.2205  0.0933 -0.0275
 4659TIP3    H135392   0.745   2.361  16.339  0.3072  1.6249  1.4253
 4659TIP3    H235393   0.618   2.440  16.364 -0.9141  0.5868 -1.1183
 4660TIP3   OH235394   3.659   5.870  14.000  0.6875  0.1491  0.0802
 4660TIP3    H135395   3.705   5.850  13.918  1.1419 -0.0373  0.3752
 4660TIP3    H235396   3.727   5.863  14.067  0.7969  2.2790  0.2556
 4661TIP3   OH235397   4.657   3.821  12.998  0.0208  0.4471 -0.5851
 4661TIP3    H135398   4.563   3.813  13.016 -0.5069  0.2032 -3.0301
 4661TIP3    H235399   4.685   3.899  13.045 -2.1745  2.4146 -2.2865
 4662TIP3   OH235400   0.146   6.309  14.772 -0.1371  0.8333 -0.6170
 4662TIP3    H135401   0.239   6.328  14.787  0.7959 -1.3053 -2.9288
 4662TIP3    H235402   0.131   6.225  14.817 -0.4785  0.3766 -1.5488
 4663TIP3   OH235403   3.282   3.888   0.789  0.6407  0.4664 -0.0555
 4663TIP3    H135404   3.223   3.869   0.716  1.0379  2.0802 -0.8360
 4663TIP3    H235405   3.307   3.980   0.777  2.6124  0.0868  0.7706
 4664TIP3   OH235406   4.889   4.357   3.792  0.0081 -0.1111 -0.1671
 4664TIP3    H135407   4.945   4.435   3.793 -0.5286  0.2772  1.0379
 4664TIP3    H235408   4.939   4.292   3.842 -0.7606  0.3582  1.2465
 4665TIP3   OH235409   1.005   0.413  11.790 -0.1393 -0.8467  0.1402
 4665TIP3    H135410   0.943   0.341  11.791 -0.2927 -0.9056 -3.1177
 4665TIP3    H235411   1.091   0.371  11.798 -0.3233 -1.1502  0.5647
 4666TIP3   OH235412   2.847   2.084  12.121 -0.0922 -0.3372  0.3378
 4666TIP3    H135413   2.836   2.140  12.198 -0.8789  0.2650 -0.1994
 4666TIP3    H235414   2.937   2.100  12.092 -0.4593  1.0510 -0.1033
 4667TIP3   OH235415   2.687   2.708  15.729  0.2310  0.2864  0.2747
 4667TIP3    H135416   2.641   2.769  15.672 -0.5892  0.8922  1.5406
 4667TIP3    H235417   2.711   2.635  15.672 -0.8924  0.6933 -0.7552
 4668TIP3   OH235418   6.212   0.599   1.459 -0.0323 -0.2005  0.3952
 4668TIP3    H135419   6.277   0.529   1.462  0.4157  0.2106  0.4775
 4668TIP3    H235420   6.190   0.607   1.366 -1.0660 -1.3233  0.5209
 4669TIP3   OH235421   1.560   1.487  11.419  0.1356 -0.3605  0.4771
 4669TIP3    H135422   1.486   1.498  11.359 -3.0279  1.1207  4.1940
 4669TIP3    H235423   1.629   1.543  11.384 -2.8778  3.4371  0.0241
 4670TIP3   OH235424   5.656   2.640   0.634 -0.0274  0.0734 -0.0764
 4670TIP3    H135425   5.750   2.636   0.617  0.1070  0.3828  0.5764
 4670TIP3    H235426   5.629   2.548   0.639  0.2526 -0.0166 -0.1874
 4671TIP3   OH235427   6.511   2.378  12.774 -0.2766 -0.3106 -0.0766
 4671TIP3    H135428   6.497   2.340  12.860 -1.3286 -1.8861 -0.8929
 4671TIP3    H235429   6.423   2.401  12.744  0.1800  1.2252 -0.3171
 4672TIP3   OH235430   3.832   3.981   4.015  0.4063 -0.0190 -0.2407
 4672TIP3    H135431   3.858   3.977   3.923  0.9782 -2.7926 -0.0234
 4672TIP3    H235432   3.912   4.009   4.061  0.1195  1.3721 -0.5310
 4673TIP3   OH235433   1.098   2.502  12.994 -0.2028  0.4071 -0.3129
 4673TIP3    H135434   1.034   2.534  12.930  1.3263  2.1722 -1.0469
 4673TIP3    H235435   1.157   2.447  12.943  0.4521  1.0316 -0.2460
 4674TIP3   OH235436   6.564   5.640   2.482 -0.5672  0.1498  0.3164
 4674TIP3    H135437   6.498   5.687   2.533 -0.5415  0.2335  0.2719
 4674TIP3    H235438   6.586   5.699   2.410  1.6974  1.4391  1.9096
 4675TIP3   OH235439   4.572   4.346  16.949  0.2133  0.1232 -0.0666
 4675TIP3    H135440   4.558   4.432  16.989 -1.4583  0.6025 -1.5499
 4675TIP3    H235441   4.586   4.365  16.856  0.6521 -1.1686 -0.2751
 4676TIP3   OH235442   5.973   1.110  15.270  0.3155 -0.0926 -0.0784
 4676TIP3    H135443   5.970   1.159  15.188 -1.1379  0.8331  0.4833
 4676TIP3    H235444   5.893   1.137  15.317  1.1577 -0.5138  1.6785
 4677TIP3   OH235445   2.589   2.588  14.215  0.4609 -0.2742 -0.3767
 4677TIP3    H135446   2.648   2.654  14.249  1.0899 -1.1184  0.2130
 4677TIP3    H235447   2.575   2.613  14.123  1.5466  0.0682 -0.4600
 4678TIP3   OH235448   5.084   5.990   1.918 -0.1722 -0.1191 -0.3500
 4678TIP3    H135449   5.180   5.998   1.910 -0.3073 -0.1014 -2.6880
 4678TIP3    H235450   5.067   5.896   1.912 -0.2737 -0.1815  0.7790
 4679TIP3   OH235451   4.393   5.390   1.286 -0.2456 -0.1232 -0.2077
 4679TIP3    H135452   4.439   5.420   1.365 -0.2033  0.5538 -0.4788
 4679TIP3    H235453   4.312   5.441   1.285 -1.0145 -1.3001  0.2556
 4680TIP3   OH235454   0.876   1.754   3.197 -0.2814  0.0219 -0.5361
 4680TIP3    H135455   0.836   1.840   3.183  1.1697  0.7558 -0.3025
 4680TIP3    H235456   0.808   1.703   3.241 -0.9983  1.1972 -0.2468
 4681TIP3   OH235457   6.004   2.211   2.833  0.6902  0.1936  0.2121
 4681TIP3    H135458   5.993   2.294   2.880  2.0345  0.9171 -0.6665
 4681TIP3    H235459   6.081   2.171   2.874  0.4982 -0.2542  0.1332
 4682TIP3   OH235460   1.567   2.811  14.884 -0.4720  0.6421  0.1536
 4682TIP3    H135461   1.618   2.766  14.952 -1.8316  0.2873  0.9699
 4682TIP3    H235462   1.587   2.762  14.804  0.4417  0.5041  0.4487
 4683TIP3   OH235463   4.371   1.938  12.060  0.0230  0.3160 -0.9613
 4683TIP3    H135464   4.353   1.923  12.153 -1.3542  0.3617 -1.1960
 4683TIP3    H235465   4.322   1.869  12.015  1.4824 -0.3224 -1.6331
 4684TIP3   OH235466   0.907   3.869   1.161 -0.4388 -0.3903  0.2694
 4684TIP3    H135467   0.841   3.801   1.148  2.7401 -3.4444 -1.9430
 4684TIP3    H235468   0.899   3.925   1.084 -1.6983  0.5438  1.0464
 4685TIP3   OH235469   0.463   4.135  13.115 -0.3059 -0.5133  0.4957
 4685TIP3    H135470   0.456   4.054  13.167 -0.5586  0.2150  1.6249
 4685TIP3    H235471   0.436   4.204  13.175 -0.7783  0.3465 -0.6818
 4686TIP3   OH235472   2.210   5.852  10.382  0.6384 -0.4665  0.4750
 4686TIP3    H135473   2.245   5.805  10.307  0.1613 -0.7647  0.4343
 4686TIP3    H235474   2.237   5.800  10.458  1.0031 -0.2388  0.5059
 4687TIP3   OH235475   6.064   6.312  16.713 -0.0399 -0.1648 -0.0273
 4687TIP3    H135476   6.095   6.392  16.754 -3.0631  1.5821 -0.8285
 4687TIP3    H235477   6.132   6.289  16.650  1.1501  1.4201  0.6087
 4688TIP3   OH235478   1.548   4.053   3.544 -0.4296 -0.7159 -0.5237
 4688TIP3    H135479   1.551   4.080   3.452  0.2304  0.3808 -0.2035
 4688TIP3    H235480   1.464   4.085   3.576 -0.0557  0.1588 -0.3932
 4689TIP3   OH235481   3.140   5.584   5.425 -0.4972  0.0630  0.2669
 4689TIP3    H135482   3.077   5.543   5.365 -1.5359  2.7530 -0.6178
 4689TIP3    H235483   3.194   5.638   5.369  1.8371 -1.1554  1.2119
 4690TIP3   OH235484   2.221   5.426  16.670  0.2049  0.2344 -0.0194
 4690TIP3    H135485   2.205   5.360  16.602 -3.2110 -0.5353  1.3519
 4690TIP3    H235486   2.183   5.506  16.635  0.3180  0.3572  0.1401
 4691TIP3   OH235487   3.976   4.384   4.989  0.0181 -0.0789  0.3585
 4691TIP3    H135488   4.030   4.436   4.930 -1.1013  0.4976 -0.1973
 4691TIP3    H235489   4.022   4.386   5.073  0.8642  0.3681 -0.1077
 4692TIP3   OH235490   1.350   0.168   3.912  0.5473  0.6974  0.0327
 4692TIP3    H135491   1.286   0.232   3.942 -1.3469 -0.4125 -1.4126
 4692TIP3    H235492   1.353   0.178   3.817  0.1529 -1.3300 -0.2473
 4693TIP3   OH235493   0.202   4.430   3.286  0.2171 -0.1627  0.1095
 4693TIP3    H135494   0.212   4.340   3.256  0.9933  0.2062 -0.8064
 4693TIP3    H235495   0.271   4.479   3.240  1.7478  0.4163  2.7612
 4694TIP3   OH235496   2.873   6.638   5.174  0.5976  0.6642 -0.2569
 4694TIP3    H135497   2.787   6.668   5.203  0.3911  0.8462 -1.0579
 4694TIP3    H235498   2.903   6.706   5.113  2.6607  2.2532  2.2909
 4695TIP3   OH235499   4.812   0.401   3.351 -0.2314 -0.2410 -0.0934
 4695TIP3    H135500   4.864   0.323   3.334 -1.3043 -0.9664 -0.1633
 4695TIP3    H235501   4.808   0.407   3.447  0.9363  0.4906 -0.0766
 4696TIP3   OH235502   4.714   4.693  11.709 -0.3624  0.0271 -0.4420
 4696TIP3    H135503   4.719   4.788  11.720 -1.4333  0.2049 -1.3129
 4696TIP3    H235504   4.669   4.662  11.788 -0.2457  0.2785 -0.2771
 4697TIP3   OH235505   3.532   5.703   0.087  0.6183  0.1990 -0.3136
 4697TIP3    H135506   3.523   5.798   0.093  0.3126  0.1957 -0.6587
 4697TIP3    H235507   3.443   5.672   0.069  0.7618 -0.1299 -0.4601
 4698TIP3   OH235508   0.299   4.381  13.209 -0.1013  0.2460 -0.1870
 4698TIP3    H135509   0.286   4.476  13.207 -0.1370  0.3807  2.7458
 4698TIP3    H235510   0.217   4.345  13.176 -0.7578  1.2409  0.3092
 4699TIP3   OH235511   3.036   1.463  13.154  0.1854  0.4129 -0.4856
 4699TIP3    H135512   2.967   1.504  13.206  1.4644  0.6247  1.1162
 4699TIP3    H235513   3.118   1.492  13.195  1.3122  1.3273 -3.1878
 4700TIP3   OH235514   4.467   3.875   2.459  0.0874  0.0314  0.6790
 4700TIP3    H135515   4.554   3.848   2.490 -0.0328 -1.0331  0.1343
 4700TIP3    H235516   4.435   3.800   2.409  0.6193  1.8519 -2.7693
 4701TIP3   OH235517   1.381   2.291   2.443  0.2894 -0.0004 -0.5931
 4701TIP3    H135518   1.371   2.268   2.350  2.4139 -0.9003 -0.6765
 4701TIP3    H235519   1.476   2.292   2.456  0.0465  0.9443  1.3916
 4702TIP3   OH235520   5.912   4.454  13.636 -0.1039  0.1072  0.4856
 4702TIP3    H135521   5.962   4.480  13.559 -0.6026 -0.5905 -0.0821
 4702TIP3    H235522   5.870   4.534  13.666  0.3483  0.4455  0.2247
 4703TIP3   OH235523   1.048   1.443   5.274  0.1266 -0.3043  0.4209
 4703TIP3    H135524   1.016   1.519   5.323 -0.1803  0.2771 -0.6432
 4703TIP3    H235525   0.989   1.436   5.200  2.2336  0.6392 -1.4847
 4704TIP3   OH235526   5.227   6.424   4.466 -0.0016 -0.3351  0.0002
 4704TIP3    H135527   5.165   6.391   4.402  1.4425 -3.1435 -0.1068
 4704TIP3    H235528   5.186   6.407   4.551 -1.3945  2.3116 -0.0306
 4705TIP3   OH235529   0.125   3.752  12.432 -0.3477  0.3338  0.6960
 4705TIP3    H135530   0.030   3.758  12.418 -0.3413  0.1955  0.5929
 4705TIP3    H235531   0.163   3.783  12.350 -0.3139 -1.9017 -0.2255
 4706TIP3   OH235532   5.191   1.207  14.540 -0.7722  0.3043 -0.1757
 4706TIP3    H135533   5.274   1.231  14.498  0.0183 -1.4624  0.2451
 4706TIP3    H235534   5.212   1.127  14.589 -2.4969  0.3920  0.7718
 4707TIP3   OH235535   0.311   4.125  12.037 -0.6592  0.0328  0.1521
 4707TIP3    H135536   0.218   4.123  12.018 -1.1351  0.8428  2.1377
 4707TIP3    H235537   0.316   4.142  12.131  1.4915  0.0616  0.0814
 4708TIP3   OH235538   3.941   4.910   4.333  1.1682  0.3643 -0.6326
 4708TIP3    H135539   3.949   4.844   4.401  2.5311  2.4593  1.4021
 4708TIP3    H235540   4.021   4.961   4.339  0.5926  1.6575 -2.7299
 4709TIP3   OH235541   6.023   0.857  10.976 -0.4392 -0.0613 -0.6945
 4709TIP3    H135542   6.113   0.855  11.009 -0.9426  1.8891  1.0155
 4709TIP3    H235543   5.970   0.837  11.053 -1.5219  0.4423 -1.2958
 4710TIP3   OH235544   3.062   5.118   2.259  0.0133 -0.1964  0.4237
 4710TIP3    H135545   3.008   5.145   2.334  0.7797 -0.8700  1.2403
 4710TIP3    H235546   2.998   5.087   2.195 -0.7420  1.5477  0.2799
 4711TIP3   OH235547   2.864   3.106  12.065 -0.2298 -0.3397  0.4840
 4711TIP3    H135548   2.783   3.122  12.016  0.2387 -0.1171 -0.2432
 4711TIP3    H235549   2.878   3.011  12.058  0.1557 -0.2320 -0.3570
 4712TIP3   OH235550   3.177   5.791  11.289  0.0254  0.2843 -0.2202
 4712TIP3    H135551   3.175   5.712  11.235  1.7164  0.3524 -0.4396
 4712TIP3    H235552   3.191   5.759  11.378 -0.7885  0.2829 -0.0800
 4713TIP3   OH235553   1.643   2.474   2.683  0.2260  0.3638 -0.0277
 4713TIP3    H135554   1.711   2.500   2.745  2.2169 -0.4946 -1.7182
 4713TIP3    H235555   1.671   2.512   2.600 -1.2151 -0.2794 -0.8460
 4714TIP3   OH235556   0.515   5.534  17.096  0.2638 -0.1599 -0.8879
 4714TIP3    H135557   0.505   5.626  17.074 -0.4343 -0.5345 -2.1821
 4714TIP3    H235558   0.575   5.534  17.171 -1.1643  1.4520  0.3421
 4715TIP3   OH235559   3.102   4.068   2.727 -0.1959  0.5138  0.1479
 4715TIP3    H135560   3.067   4.138   2.784 -0.9704 -0.1139  0.4660
 4715TIP3    H235561   3.063   4.086   2.641  0.3438  1.0043  0.0018
 4716TIP3   OH235562   2.830   0.751   1.230 -0.6664  0.2391 -0.4108
 4716TIP3    H135563   2.915   0.796   1.235 -1.2503  1.5535 -1.6199
 4716TIP3    H235564   2.848   0.675   1.174 -0.2845  0.5345 -0.7018
 4717TIP3   OH235565   4.337   4.594   3.397  0.5678  0.3764  0.3830
 4717TIP3    H135566   4.242   4.604   3.394  0.2315 -0.8782  3.3918
 4717TIP3    H235567   4.356   4.534   3.325 -1.0871 -0.3126  0.4650
 4718TIP3   OH235568   2.626   0.864   2.674  0.1325 -0.2821  0.0097
 4718TIP3    H135569   2.691   0.800   2.646  0.0243 -0.2617 -0.2884
 4718TIP3    H235570   2.664   0.949   2.648 -0.5342 -0.3374 -1.2345
 4719TIP3   OH235571   2.485   2.198  16.138  0.0692  0.4451 -0.7330
 4719TIP3    H135572   2.464   2.288  16.164  0.9203  0.5161 -0.2559
 4719TIP3    H235573   2.404   2.149  16.154  0.1623  0.7451  0.8754
 4720TIP3   OH235574   3.099   5.580  15.038  0.0048  0.4151  0.1823
 4720TIP3    H135575   3.113   5.490  15.006 -2.6502 -0.4531  1.1817
 4720TIP3    H235576   3.009   5.601  15.011 -1.1445  0.9521  3.8455
 4721TIP3   OH235577   0.002   1.505  12.921  0.0480  0.7233  0.6304
 4721TIP3    H135578   0.033   1.477  13.008  1.0207 -1.0395 -0.2174
 4721TIP3    H235579  -0.087   1.472  12.915  0.6451 -0.9248  0.2584
 4722TIP3   OH235580   3.523   6.618  11.108  0.0764 -0.0530 -0.0028
 4722TIP3    H135581   3.445   6.563  11.098  0.2057 -0.0295 -1.3913
 4722TIP3    H235582   3.538   6.655  11.021  2.4269 -1.1338 -0.1567
 4723TIP3   OH235583   1.880   1.589   3.215  0.5108  0.1542  0.3923
 4723TIP3    H135584   1.841   1.672   3.240 -0.6489  0.4181 -2.0685
 4723TIP3    H235585   1.819   1.523   3.248 -0.5630  0.4566 -0.9220
 4724TIP3   OH235586   4.588   5.536  13.074 -0.0317  0.5298  0.1115
 4724TIP3    H135587   4.498   5.531  13.042 -1.0444  1.6503  2.5096
 4724TIP3    H235588   4.587   5.608  13.137  2.4346  0.2275  0.5968
 4725TIP3   OH235589   5.708   0.314  12.100  0.2568  0.6104  0.3354
 4725TIP3    H135590   5.664   0.277  12.024  2.0174  1.9148 -1.4078
 4725TIP3    H235591   5.671   0.266  12.175  0.6248 -2.9029 -1.5130
 4726TIP3   OH235592   1.061   0.283  13.947 -0.3559  0.0564  0.0009
 4726TIP3    H135593   1.140   0.333  13.928 -1.2567  1.3667 -0.4498
 4726TIP3    H235594   1.058   0.215  13.879  0.6071 -0.3232  0.3135
 4727TIP3   OH235595   4.611   5.394  13.395 -0.0877  0.3979  0.6258
 4727TIP3    H135596   4.619   5.300  13.381  0.7352  0.4030  1.0179
 4727TIP3    H235597   4.638   5.432  13.311 -1.1768  0.2748  0.2073
 4728TIP3   OH235598   6.458   0.457  13.095  0.7014 -0.1728  0.3578
 4728TIP3    H135599   6.515   0.407  13.154  0.0919 -1.6811 -0.2600
 4728TIP3    H235600   6.370   0.432  13.121  0.4200 -0.9859 -1.2585
 4729TIP3   OH235601   1.686   6.357   6.691  0.0403  0.1178  0.3094
 4729TIP3    H135602   1.649   6.348   6.779 -3.4120  0.6226 -0.8977
 4729TIP3    H235603   1.722   6.445   6.689  2.1494 -0.6373  1.7754
 4730TIP3   OH235604   2.632   6.184   2.324 -0.3829 -0.8332  0.7194
 4730TIP3    H135605   2.621   6.251   2.391 -0.5026 -1.0099  0.8775
 4730TIP3    H235606   2.578   6.110   2.354 -1.9946 -0.2300 -0.5195
 4731TIP3   OH235607   4.853   0.317   1.606 -0.3039  0.2848  0.0595
 4731TIP3    H135608   4.818   0.297   1.519 -0.1354  0.1606  0.0200
 4731TIP3    H235609   4.939   0.273   1.608 -1.0773 -1.2731  0.9621
 4732TIP3   OH235610   1.111   3.973   2.649  0.1363  0.3092  0.3785
 4732TIP3    H135611   1.183   3.911   2.655 -0.1169 -0.5245 -3.0009
 4732TIP3    H235612   1.066   3.967   2.733  0.7235 -3.3708  0.5698
 4733TIP3   OH235613   1.081   5.899  14.073  0.3917 -0.4296 -0.1207
 4733TIP3    H135614   1.030   5.953  14.013  0.9128  0.4637  0.2251
 4733TIP3    H235615   1.163   5.882  14.028 -0.3158 -2.1887 -0.8346
 4734TIP3   OH235616   2.976   1.137  15.335 -0.4920 -0.5565 -0.3593
 4734TIP3    H135617   2.973   1.056  15.285 -1.3586 -0.6586 -0.1518
 4734TIP3    H235618   2.935   1.116  15.419 -0.1473 -0.0696 -0.0609
 4735TIP3   OH235619   6.124   2.790   5.225 -0.1924 -0.1996  0.2623
 4735TIP3    H135620   6.048   2.836   5.189 -1.2345 -0.3352  2.1120
 4735TIP3    H235621   6.188   2.859   5.242 -0.0490 -0.0249 -0.9105
 4736TIP3   OH235622   6.408   0.537  14.618 -0.6606  0.2253  0.2209
 4736TIP3    H135623   6.468   0.474  14.659 -1.7288 -1.2481 -0.4077
 4736TIP3    H235624   6.420   0.523  14.524  0.2015  2.0699  0.0168
 4737TIP3   OH235625   3.141   4.643  11.920  0.2797  0.0217  0.6173
 4737TIP3    H135626   3.192   4.665  11.998  1.0273 -0.9611  0.4345
 4737TIP3    H235627   3.198   4.584  11.870 -0.3107  0.3768 -0.5182
 4738TIP3   OH235628   2.792   3.323   6.714  0.1167  0.4812 -0.2311
 4738TIP3    H135629   2.756   3.236   6.700 -1.3434  0.7260  1.6696
 4738TIP3    H235630   2.760   3.375   6.640  0.9028 -0.5316 -1.3087
 4739TIP3   OH235631   5.897   4.725   0.423 -0.6220 -0.1735 -0.4197
 4739TIP3    H135632   5.915   4.812   0.457 -1.3724  0.5987 -1.9367
 4739TIP3    H235633   5.954   4.667   0.475  0.0166  1.2169  0.4823
 4740TIP3   OH235634   5.020   2.002   3.626  0.0645 -0.1825 -0.1083
 4740TIP3    H135635   5.116   1.999   3.621  0.0820  1.4773 -2.6324
 4740TIP3    H235636   5.001   1.991   3.719  2.7539  0.2487  0.5951
 4741TIP3   OH235637   0.585   1.023  15.846  0.8939  0.0362  0.1102
 4741TIP3    H135638   0.508   0.967  15.841 -0.1368  1.2484  1.6319
 4741TIP3    H235639   0.656   0.963  15.871  0.0451 -0.7685  0.6655
 4742TIP3   OH235640   2.343   6.008  11.920  0.0019  0.0003  0.2303
 4742TIP3    H135641   2.416   6.002  11.858 -0.3176  1.0707 -0.2724
 4742TIP3    H235642   2.269   6.037  11.866 -0.4949  0.1048  0.9641
 4743TIP3   OH235643   4.631   2.906   5.836 -0.0248  0.0776 -0.6069
 4743TIP3    H135644   4.616   2.910   5.930 -0.3653  0.4503 -0.6707
 4743TIP3    H235645   4.552   2.864   5.801 -0.0221  0.1881 -0.7498
 4744TIP3   OH235646   3.788   0.139   4.935  0.3260  0.0542  0.5472
 4744TIP3    H135647   3.851   0.067   4.924 -0.0992 -0.2378 -0.0728
 4744TIP3    H235648   3.724   0.106   4.999 -0.9060 -0.8811 -1.0826
 4745TIP3   OH235649   5.142   1.841  15.778 -0.5833 -0.1133  0.3486
 4745TIP3    H135650   5.211   1.887  15.827 -0.1063 -0.7125  0.2548
 4745TIP3    H235651   5.178   1.830  15.690 -0.4385 -1.1939  0.5311
 4746TIP3   OH235652   3.171   1.003  14.640  0.9111 -0.1553  0.0263
 4746TIP3    H135653   3.150   1.095  14.652 -0.0402 -0.5358  1.6221
 4746TIP3    H235654   3.191   0.971  14.728  2.3923 -1.2316 -0.6378
 4747TIP3   OH235655   1.528   4.565   1.744  0.3909  0.1938 -0.1608
 4747TIP3    H135656   1.482   4.485   1.768 -1.0177  1.0582  0.1008
 4747TIP3    H235657   1.606   4.534   1.697 -0.9209 -1.2850 -1.4737
 4748TIP3   OH235658   0.286   1.045   1.415 -0.1142 -0.2336  0.1279
 4748TIP3    H135659   0.287   1.004   1.502 -1.0194 -1.4514 -0.4046
 4748TIP3    H235660   0.216   1.111   1.421  0.1029 -0.0305  0.4437
 4749TIP3   OH235661   4.716   4.482   6.668  0.2243  0.0521 -0.3422
 4749TIP3    H135662   4.692   4.565   6.707  2.0903 -0.1745  1.4912
 4749TIP3    H235663   4.784   4.504   6.604 -0.2729  0.0475 -0.8860
 4750TIP3   OH235664   5.374   6.666   5.718  0.3466 -0.1399 -0.5568
 4750TIP3    H135665   5.296   6.640   5.765  0.5765  0.8797  0.4303
 4750TIP3    H235666   5.429   6.709   5.784  1.4298 -0.2121 -1.3794
 4751TIP3   OH235667   4.048   3.287  11.035  0.1458 -0.5018 -0.0732
 4751TIP3    H135668   4.042   3.355  10.968  1.1570 -0.4524 -0.1317
 4751TIP3    H235669   3.959   3.255  11.045 -0.0305 -0.4775 -1.4073
 4752TIP3   OH235670   3.327   4.745  16.378 -0.2828  0.1517  0.7456
 4752TIP3    H135671   3.418   4.773  16.367  0.0642 -1.3328 -0.5665
 4752TIP3    H235672   3.304   4.773  16.467  1.3851  0.7175  1.0439
 4753TIP3   OH235673   3.642   4.733  13.657  0.6816  0.1168  0.4386
 4753TIP3    H135674   3.683   4.817  13.636  1.1105  0.1648  1.4256
 4753TIP3    H235675   3.582   4.753  13.729 -1.2240  0.0765 -1.0607
 4754TIP3   OH235676   0.394   5.151  12.798  0.5461  0.1258  0.1081
 4754TIP3    H135677   0.466   5.189  12.847  0.3162 -0.0144  0.5646
 4754TIP3    H235678   0.413   5.057  12.796  0.7375  0.1720 -0.3833
 4755TIP3   OH235679   5.679   6.570   1.671  0.3211  0.0658 -0.4524
 4755TIP3    H135680   5.712   6.600   1.587 -0.0529  0.8886 -0.3233
 4755TIP3    H235681   5.756   6.562   1.727  1.0599 -3.6525 -1.7113
 4756TIP3   OH235682   5.612   0.945  11.286 -0.2368 -0.0532 -0.2451
 4756TIP3    H135683   5.650   0.938  11.373  0.4828 -0.0881 -0.5557
 4756TIP3    H235684   5.584   1.036  11.279  0.9442  0.3035 -0.4732
 4757TIP3   OH235685   4.455   4.231   4.372 -0.1048 -0.1652 -0.7277
 4757TIP3    H135686   4.401   4.153   4.384 -1.1096  0.4100 -1.4784
 4757TIP3    H235687   4.462   4.242   4.277  0.7851  0.1567 -0.6397
 4758TIP3   OH235688   0.264   2.948   1.138  0.6180  0.7533  0.1020
 4758TIP3    H135689   0.358   2.930   1.129 -0.0366 -4.6768  0.7005
 4758TIP3    H235690   0.252   2.963   1.232  0.7329 -0.1735  0.2712
 4759TIP3   OH235691   3.010   0.428  13.767  0.3093  0.1379 -1.0964
 4759TIP3    H135692   3.044   0.382  13.690 -0.9552 -1.3101 -0.8232
 4759TIP3    H235693   3.082   0.487  13.793  1.4389 -0.6510 -2.2969
 4760TIP3   OH235694   2.469   6.073   3.726  0.1486  0.2363  0.4086
 4760TIP3    H135695   2.447   5.980   3.732 -0.2687  0.2608 -0.6407
 4760TIP3    H235696   2.565   6.074   3.725  0.1620 -0.3080 -1.2032
 4761TIP3   OH235697   1.601   2.671  14.638 -0.5113 -0.1261 -0.1929
 4761TIP3    H135698   1.688   2.642  14.611 -0.3635  0.1324  0.0041
 4761TIP3    H235699   1.558   2.697  14.557  0.1571  1.2662 -0.1304
 4762TIP3   OH235700   4.499   3.049  17.095 -0.1410  0.0890 -0.6729
 4762TIP3    H135701   4.538   3.122  17.045  0.1365  0.2907 -0.1688
 4762TIP3    H235702   4.427   3.018  17.040 -0.1858  0.6682 -0.9477
 4763TIP3   OH235703   1.398   4.751  15.205 -0.1165  0.4214  0.1049
 4763TIP3    H135704   1.415   4.844  15.190  1.6606  0.0095 -0.6492
 4763TIP3    H235705   1.469   4.722  15.263  0.5000 -0.8799 -1.2321
 4764TIP3   OH235706   6.241   6.299   0.021 -0.0203  0.6056  0.2567
 4764TIP3    H135707   6.262   6.322   0.111 -0.2921 -0.3137  0.5689
 4764TIP3    H235708   6.322   6.316  -0.028  1.2546 -1.9373  1.2551
 4765TIP3   OH235709   2.382   2.619   1.666 -0.0854  0.2284  0.9680
 4765TIP3    H135710   2.446   2.680   1.629 -1.1348  1.1443  0.5931
 4765TIP3    H235711   2.395   2.538   1.617  0.6793  0.4376  0.8027
 4766TIP3   OH235712   3.393   4.227   0.473  0.3204  0.1282 -0.0291
 4766TIP3    H135713   3.299   4.237   0.489  0.7260 -0.1337  2.9215
 4766TIP3    H235714   3.433   4.302   0.517  1.5468 -0.0301 -0.8357
 4767TIP3   OH235715   3.092   1.887   3.187 -1.0380  0.0726  1.1181
 4767TIP3    H135716   3.093   1.974   3.148 -0.2580 -0.0574  0.8310
 4767TIP3    H235717   3.084   1.827   3.113 -0.9718 -0.1179  1.2647
 4768TIP3   OH235718   4.826   0.303  11.097  0.5000 -0.4317 -0.0138
 4768TIP3    H135719   4.784   0.323  11.013 -0.5064 -0.2370  0.5114
 4768TIP3    H235720   4.918   0.325  11.084 -0.0071  1.6550 -0.4239
 4769TIP3   OH235721   6.160   2.395  13.360 -0.5797  0.3650 -0.3918
 4769TIP3    H135722   6.070   2.392  13.394 -0.3794  1.2441  0.2564
 4769TIP3    H235723   6.187   2.303  13.354 -1.8060  0.0464 -1.3816
 4770TIP3   OH235724   0.934   1.803  17.003 -0.1571  0.3287  0.3027
 4770TIP3    H135725   0.890   1.831  17.083 -1.3281  0.5013 -0.3724
 4770TIP3    H235726   0.918   1.874  16.941 -1.1065 -0.7373 -0.7199
 4771TIP3   OH235727   0.433   4.179   4.892  0.3647 -0.6560 -0.1459
 4771TIP3    H135728   0.525   4.176   4.862  0.6780  0.8300  0.5701
 4771TIP3    H235729   0.429   4.257   4.948 -0.7436 -2.0983  1.8739
 4772TIP3   OH235730   2.427   3.862   0.228 -0.0130  0.1700  0.2771
 4772TIP3    H135731   2.347   3.915   0.238 -0.2791 -0.2827  0.5603
 4772TIP3    H235732   2.455   3.880   0.138  1.8016  3.4492  1.3148
 4773TIP3   OH235733   4.383   1.444   3.138 -0.5444  0.3650 -0.2881
 4773TIP3    H135734   4.363   1.370   3.197  0.6828  0.0777 -0.2101
 4773TIP3    H235735   4.472   1.426   3.107  1.0465  3.3323  2.0909
 4774TIP3   OH235736   6.713   3.773   3.699 -0.5336 -0.3610  0.4037
 4774TIP3    H135737   6.749   3.738   3.780  3.0571 -0.8605 -1.2114
 4774TIP3    H235738   6.702   3.697   3.642 -0.1484  0.2725 -0.5498
 4775TIP3   OH235739   1.914   0.556   5.693 -0.3568 -0.5949 -0.2757
 4775TIP3    H135740   1.986   0.610   5.662 -0.7168 -0.8279 -1.5748
 4775TIP3    H235741   1.941   0.526   5.779  1.1267 -0.7361 -0.7718
 4776TIP3   OH235742   4.048   2.510   4.041  0.3915 -0.0906 -0.5210
 4776TIP3    H135743   4.028   2.601   4.065 -0.5841 -0.0921 -1.2566
 4776TIP3    H235744   4.034   2.507   3.946  0.0225 -1.0997 -0.4468
 4777TIP3   OH235745   2.046   3.842  10.645 -0.7098  0.4402 -0.0279
 4777TIP3    H135746   2.030   3.748  10.652 -1.4115  0.5035 -0.6952
 4777TIP3    H235747   2.069   3.869  10.734  1.9466 -0.7676 -0.2659
 4778TIP3   OH235748   1.348   5.897   4.067 -0.1604 -0.0351  0.0944
 4778TIP3    H135749   1.341   5.899   4.162  0.2924 -1.5294  0.1757
 4778TIP3    H235750   1.438   5.925   4.048 -0.6448  1.5608  0.0079
 4779TIP3   OH235751   3.671   1.199   3.348 -0.2436  0.0488 -0.4562
 4779TIP3    H135752   3.629   1.238   3.425  0.2051  0.5755 -0.4665
 4779TIP3    H235753   3.759   1.176   3.378 -1.0836 -2.7527  0.0932
 4780TIP3   OH235754   5.242   2.828   4.600 -0.0941 -0.3687 -1.0777
 4780TIP3    H135755   5.283   2.742   4.611  1.1612  0.4222  0.8118
 4780TIP3    H235756   5.221   2.832   4.507  2.7824 -1.4344 -1.8900
 4781TIP3   OH235757   1.639   2.023   4.023 -0.6053  0.2150 -0.2098
 4781TIP3    H135758   1.571   2.043   3.959 -1.1198  0.5665  0.4416
 4781TIP3    H235759   1.719   2.060   3.986 -0.7349 -0.2934 -1.0295
 4782TIP3   OH235760   3.226   2.945   3.720 -0.4259  0.2470  0.5605
 4782TIP3    H135761   3.181   2.993   3.789 -0.9223 -0.4174  0.7088
 4782TIP3    H235762   3.173   2.959   3.642 -0.2455  0.4298  0.4705
 4783TIP3   OH235763   6.768   3.631  16.664  0.7845  0.4152 -0.3835
 4783TIP3    H135764   6.750   3.588  16.580 -1.8703  0.4928  0.0711
 4783TIP3    H235765   6.777   3.724  16.642  0.9066  0.3323 -0.6833
 4784TIP3   OH235766   2.508   3.390   2.406 -0.0410 -0.0135  0.1573
 4784TIP3    H135767   2.424   3.397   2.451 -0.5062 -0.2624 -0.6413
 4784TIP3    H235768   2.558   3.466   2.435 -0.6567  0.2957  0.4162
 4785TIP3   OH235769   4.143   4.517  15.170  0.1816 -0.4713  0.4892
 4785TIP3    H135770   4.089   4.439  15.187  1.5013 -1.8167 -1.1467
 4785TIP3    H235771   4.087   4.574  15.117 -0.9591 -0.0322  2.0726
 4786TIP3   OH235772   5.201   5.365  17.074 -0.0709  0.0464  0.0659
 4786TIP3    H135773   5.180   5.297  17.138 -0.5777  1.2839  1.2815
 4786TIP3    H235774   5.287   5.398  17.102  0.3777 -0.3713 -0.7837
 4787TIP3   OH235775   4.989   1.621   5.620 -0.0796 -0.2902 -0.5796
 4787TIP3    H135776   4.976   1.551   5.556  1.0919 -0.3403 -0.7796
 4787TIP3    H235777   5.082   1.618   5.641 -0.5402 -0.6901  1.6392
 4788TIP3   OH235778   0.914   3.225   3.193 -0.0729  0.6045  0.0912
 4788TIP3    H135779   0.952   3.300   3.147  1.2588  0.1104  0.3426
 4788TIP3    H235780   0.961   3.221   3.276  0.5814 -1.0790 -0.3270
 4789TIP3   OH235781   2.668   5.140   5.196 -0.0688 -0.1746 -0.2596
 4789TIP3    H135782   2.752   5.094   5.188  0.6160  1.1804 -1.2592
 4789TIP3    H235783   2.680   5.220   5.146 -1.5474  0.6555  0.6541
 4790TIP3   OH235784   0.782   1.463  13.846 -0.2396 -0.2932 -0.1755
 4790TIP3    H135785   0.792   1.512  13.764 -0.2216 -0.2684 -0.1583
 4790TIP3    H235786   0.872   1.439  13.870 -0.3058 -0.9009 -0.5266
 4791TIP3   OH235787   3.799   0.179  15.881  0.1447  0.2744 -0.3232
 4791TIP3    H135788   3.846   0.112  15.930  1.2863  0.1847 -1.5037
 4791TIP3    H235789   3.822   0.261  15.924 -0.1963  0.0534  0.3002
 4792TIP3   OH235790   3.792   5.494   3.726 -0.0916  0.4420 -0.8175
 4792TIP3    H135791   3.709   5.536   3.747 -0.8275 -0.1954 -2.3114
 4792TIP3    H235792   3.831   5.550   3.659  0.8400  0.9009  0.0911
 4793TIP3   OH235793   0.064   5.139  16.293  0.0912 -0.1368  0.7687
 4793TIP3    H135794   0.013   5.155  16.213  0.1568 -1.1571  0.5106
 4793TIP3    H235795   0.027   5.199  16.358 -0.0421  0.6193  0.0110
 4794TIP3   OH235796   1.791   2.577  13.392 -0.2398 -0.3454 -0.3092
 4794TIP3    H135797   1.826   2.523  13.321 -0.4258  0.0144 -0.6812
 4794TIP3    H235798   1.708   2.610  13.358 -0.4181 -0.3184  0.1498
 4795TIP3   OH235799   1.321   6.086  13.810 -0.1765 -0.1956  0.1825
 4795TIP3    H135800   1.234   6.053  13.834 -0.1520 -1.1629 -0.9540
 4795TIP3    H235801   1.340   6.153  13.876 -0.6221 -1.8337  2.0797
 4796TIP3   OH235802   0.126   1.569  16.761  0.1502 -0.3560 -0.1111
 4796TIP3    H135803   0.171   1.644  16.800  0.4915 -1.5195  1.8311
 4796TIP3    H235804   0.068   1.537  16.830 -2.5760  0.1464 -2.0168
 4797TIP3   OH235805   3.493   4.801  16.844  0.3847 -0.2183  0.1459
 4797TIP3    H135806   3.492   4.805  16.940  0.6056 -0.3758  0.1552
 4797TIP3    H235807   3.585   4.786  16.821  0.1682 -1.4027 -0.0302
 4798TIP3   OH235808   5.189   2.597  14.628 -0.1948 -0.0323 -0.2598
 4798TIP3    H135809   5.121   2.638  14.682 -0.5537  1.8375 -2.0107
 4798TIP3    H235810   5.141   2.547  14.562  0.1552 -0.0521 -0.5025
 4799TIP3   OH235811   0.443   0.717  13.878  0.3683  0.2509  0.3147
 4799TIP3    H135812   0.415   0.720  13.787  0.4943  0.8626  0.2899
 4799TIP3    H235813   0.459   0.808  13.901  1.0945  0.0369  0.7089
 4800TIP3   OH235814   1.366   0.848   0.778 -0.4149 -0.3873  0.4257
 4800TIP3    H135815   1.295   0.856   0.714  0.4578 -0.6066 -0.5980
 4800TIP3    H235816   1.437   0.901   0.741 -0.3749  0.6778  1.9342
 4801TIP3   OH235817   1.795   4.204   4.814  0.0009  0.7570  0.3523
 4801TIP3    H135818   1.768   4.289   4.781 -0.4523  0.5881  0.2745
 4801TIP3    H235819   1.796   4.213   4.909 -2.5176  0.1718  0.5247
 4802TIP3   OH235820   0.603   5.308  16.685 -0.4192 -0.0254 -0.0571
 4802TIP3    H135821   0.589   5.214  16.672 -0.9205  0.1467 -0.8452
 4802TIP3    H235822   0.515   5.345  16.678 -0.0052  0.7107 -1.5986
 4803TIP3   OH235823   2.541   6.053  13.047 -0.3577 -0.4079  0.0089
 4803TIP3    H135824   2.572   6.115  12.982  0.9736 -1.0741 -0.0238
 4803TIP3    H235825   2.446   6.052  13.037 -0.3073  0.8114 -0.7059
 4804TIP3   OH235826   4.529   4.178  10.892 -0.1425  0.4571  0.6346
 4804TIP3    H135827   4.537   4.104  10.832  0.0022 -0.3247  1.5934
 4804TIP3    H235828   4.601   4.236  10.868  0.1638 -0.0437  0.3242
 4805TIP3   OH235829   6.032   4.554  11.687  0.0539  0.0730  0.1842
 4805TIP3    H135830   6.025   4.596  11.773  0.5856 -0.2780  0.4070
 4805TIP3    H235831   5.963   4.489  11.687  0.6196 -0.5506  0.7209
 4806TIP3   OH235832   0.325   0.617   2.920  0.0164 -0.1134 -0.6452
 4806TIP3    H135833   0.380   0.693   2.902  0.3933 -0.3267 -0.4039
 4806TIP3    H235834   0.238   0.642   2.887 -0.1521  0.8599  0.4327
 4807TIP3   OH235835   0.582   4.599   0.872  0.0171  0.2439  0.5797
 4807TIP3    H135836   0.506   4.628   0.923  1.7861  3.3230  1.6736
 4807TIP3    H235837   0.586   4.659   0.798  0.4734 -0.9742 -0.4337
 4808TIP3   OH235838   2.393   3.021   5.398 -0.8354  0.2269 -0.1423
 4808TIP3    H135839   2.299   3.039   5.392 -0.4510  2.1306 -1.7386
 4808TIP3    H235840   2.430   3.101   5.436  0.2680  0.0725 -0.8320
 4809TIP3   OH235841   4.122   3.447   5.761  0.3348  0.1497 -0.1194
 4809TIP3    H135842   4.170   3.364   5.753  0.4700  0.3493 -2.0409
 4809TIP3    H235843   4.038   3.430   5.719 -1.0137  0.0749  2.4200
 4810TIP3   OH235844   0.792   2.113   5.056 -0.0775  0.1243 -0.0334
 4810TIP3    H135845   0.781   2.021   5.080 -2.1138  0.5807  1.0591
 4810TIP3    H235846   0.766   2.117   4.964  0.6803 -0.4834 -0.2844
 4811TIP3   OH235847   0.997   5.296  10.172 -0.0084 -0.4276  0.5798
 4811TIP3    H135848   1.073   5.268  10.122 -0.8277 -1.2703 -0.2330
 4811TIP3    H235849   0.942   5.341  10.108 -0.9563 -1.2977  0.7577
 4812TIP3   OH235850   1.431   2.284  12.405 -0.0023  0.1909  0.2816
 4812TIP3    H135851   1.495   2.213  12.413 -0.8618 -0.5452  0.8856
 4812TIP3    H235852   1.484   2.362  12.390  1.0474 -0.3730  0.8674
 4813TIP3   OH235853   1.325   1.423  14.046  0.0612 -0.2356 -0.1596
 4813TIP3    H135854   1.313   1.397  14.138  0.4694  3.1958  0.9971
 4813TIP3    H235855   1.253   1.484  14.029  0.3019 -0.4010 -1.9824
 4814TIP3   OH235856   5.763   2.891   2.693 -0.1293  0.3851  0.2201
 4814TIP3    H135857   5.794   2.968   2.740 -1.2559  0.9160  0.1269
 4814TIP3    H235858   5.722   2.837   2.760 -0.2407  0.3432  0.1180
 4815TIP3   OH235859   6.308   4.809   3.507 -0.4520 -0.0152  0.0088
 4815TIP3    H135860   6.363   4.836   3.580 -0.0151  1.5234 -0.8262
 4815TIP3    H235861   6.365   4.756   3.452 -0.0877  0.6809 -0.3093
 4816TIP3   OH235862   0.250   3.128   4.406 -0.4039  0.3396 -0.1850
 4816TIP3    H135863   0.206   3.145   4.489 -0.3528 -1.6519  0.2941
 4816TIP3    H235864   0.181   3.135   4.340 -1.1530 -1.1914  0.3881
 4817TIP3   OH235865   4.466   3.055   4.590 -0.3746 -0.1579  0.4212
 4817TIP3    H135866   4.550   3.052   4.544 -0.4400  0.3826  0.2489
 4817TIP3    H235867   4.400   3.041   4.522 -0.5418  1.9713  0.0623
 4818TIP3   OH235868   0.806   5.281   0.271  0.0708  0.2158  0.2757
 4818TIP3    H135869   0.846   5.326   0.346 -0.6615 -1.2097  1.5784
 4818TIP3    H235870   0.842   5.193   0.273 -0.2031  0.0550 -0.8768
 4819TIP3   OH235871   1.785   3.953   5.366  0.4170  0.1727  0.2351
 4819TIP3    H135872   1.755   4.043   5.383  0.9764  0.0574  2.0004
 4819TIP3    H235873   1.745   3.901   5.435  1.5759 -0.6321  0.3138
 4820TIP3   OH235874   1.788   2.869   2.696 -0.6240 -0.1299 -0.4280
 4820TIP3    H135875   1.779   2.871   2.791  0.9517 -0.2933 -0.2551
 4820TIP3    H235876   1.698   2.871   2.664 -1.2469 -1.3357  1.0866
 4821TIP3   OH235877   2.500   1.138  14.122  0.5004 -0.0277  0.0194
 4821TIP3    H135878   2.513   1.100  14.209 -0.0901  0.0542  0.1489
 4821TIP3    H235879   2.421   1.193  14.131 -0.4935 -1.2294 -0.9421
 4822TIP3   OH235880   0.508   4.453  14.653  0.3211  0.5940 -0.0334
 4822TIP3    H135881   0.577   4.476  14.591  1.7467 -0.6737  1.0126
 4822TIP3    H235882   0.467   4.537  14.675  0.9046  1.2602 -1.3682
 4823TIP3   OH235883   2.188   4.147   2.064 -0.5705  0.5288  0.5266
 4823TIP3    H135884   2.266   4.163   2.012 -2.3029  2.2418 -1.7675
 4823TIP3    H235885   2.218   4.154   2.155  1.6323  2.9788 -0.2459
 4824TIP3   OH235886   4.745   3.212   4.201 -0.6207 -0.5267  0.3470
 4824TIP3    H135887   4.723   3.254   4.118 -2.4940 -1.3149  0.3992
 4824TIP3    H235888   4.840   3.227   4.211 -0.5599  0.5197 -1.3681
 4825TIP3   OH235889   6.544   3.859   4.311  0.2231  0.2913  0.1867
 4825TIP3    H135890   6.518   3.947   4.282 -1.4848 -0.0050  0.6829
 4825TIP3    H235891   6.532   3.804   4.233  1.5503  0.5094 -0.2003
 4826TIP3   OH235892   4.494   4.012   3.351  0.0365 -0.3268  0.8561
 4826TIP3    H135893   4.480   4.099   3.388 -0.1476  0.4019 -0.8097
 4826TIP3    H235894   4.524   4.029   3.262 -0.7925 -1.9642  0.2242
 4827TIP3   OH235895   4.542   0.513  14.848 -0.3588  0.0603  0.1238
 4827TIP3    H135896   4.532   0.606  14.864 -1.5901 -0.0332 -0.0097
 4827TIP3    H235897   4.472   0.472  14.899 -2.4633 -0.4628 -2.9537
 4828TIP3   OH235898   1.772   0.220   4.730  0.2090 -0.0629 -0.3633
 4828TIP3    H135899   1.866   0.210   4.718  0.2215 -0.4390  0.0452
 4828TIP3    H235900   1.733   0.167   4.660  0.2967  0.6607 -0.9777
 4829TIP3   OH235901   2.746   3.026   4.776 -0.8962  0.1918  0.5270
 4829TIP3    H135902   2.778   3.079   4.848 -1.1946  0.7562  0.2498
 4829TIP3    H235903   2.785   3.066   4.698 -0.6217 -0.3756  0.3703
 4830TIP3   OH235904   5.111   6.718   5.748  0.3919 -0.6028  0.8291
 4830TIP3    H135905   5.030   6.753   5.712  0.1919  0.3578  2.1298
 4830TIP3    H235906   5.104   6.733   5.842  1.8559 -0.9722  1.0240
 4831TIP3   OH235907   4.814   3.859   4.451  0.1436 -0.2685 -0.5668
 4831TIP3    H135908   4.829   3.943   4.407 -0.8234  0.0892 -0.2362
 4831TIP3    H235909   4.820   3.794   4.381  0.7137  0.0879 -0.8563
 4832TIP3   OH235910   0.740   0.643  11.732 -0.1451 -0.0636  0.3538
 4832TIP3    H135911   0.805   0.575  11.749 -0.9623 -1.0801 -0.4790
 4832TIP3    H235912   0.774   0.690  11.656 -2.0297 -2.9524 -2.5454
 4833TIP3   OH235913   4.180   2.733   4.537 -0.4182 -0.6086  0.0140
 4833TIP3    H135914   4.209   2.647   4.568 -1.2345 -0.5332  1.0580
 4833TIP3    H235915   4.203   2.793   4.608  1.7464  0.3917 -1.4228
 4834TIP3   OH235916   3.291   3.250  11.450 -0.1221 -0.3734 -0.0857
 4834TIP3    H135917   3.308   3.222  11.540 -0.8187 -0.9049 -0.1073
 4834TIP3    H235918   3.201   3.283  11.453 -1.0538 -2.6432 -1.0703
 4835TIP3   OH235919   2.744   2.054   1.405 -0.1564  0.0990  0.7203
 4835TIP3    H135920   2.652   2.033   1.413  0.1640 -1.0567  1.4610
 4835TIP3    H235921   2.745   2.149   1.388 -1.3921  0.4226  2.2727
 4836TIP3   OH235922   5.370   1.623  16.600 -0.2957  0.7500  0.3897
 4836TIP3    H135923   5.430   1.590  16.667  1.3075  0.9297 -0.8838
 4836TIP3    H235924   5.284   1.624  16.642  0.4446 -0.3407  2.0135
 4837TIP3   OH235925   1.367   6.784  11.052 -0.2689  0.2711  0.1107
 4837TIP3    H135926   1.412   6.781  10.967 -1.5552 -1.7373 -0.5772
 4837TIP3    H235927   1.424   6.838  11.107 -0.0036  2.7122 -2.3255
 4838TIP3   OH235928   1.267   5.626   1.844 -0.3565 -0.4473  0.0960
 4838TIP3    H135929   1.351   5.584   1.859  0.2008  0.6366  0.0502
 4838TIP3    H235930   1.204   5.553   1.843  0.5652 -1.2622  0.1284
 4839TIP3   OH235931   0.404   0.500  11.759 -0.3242 -0.0307  0.1263
 4839TIP3    H135932   0.487   0.464  11.727 -0.8085 -1.0156 -0.0755
 4839TIP3    H235933   0.385   0.573  11.701 -0.4878 -0.9282 -0.9987
 4840TIP3   OH235934   6.660   4.505  16.791 -0.1902 -0.5922  0.3531
 4840TIP3    H135935   6.681   4.576  16.731 -3.1222 -0.4365 -0.6463
 4840TIP3    H235936   6.745   4.471  16.819  1.2895  0.8939 -2.0024
 4841TIP3   OH235937   2.828   0.862  13.371  0.1165 -0.2055  0.5620
 4841TIP3    H135938   2.753   0.867  13.312 -0.8168 -0.3042  1.7048
 4841TIP3    H235939   2.904   0.852  13.313 -0.4578  2.2838 -0.7388
 4842TIP3   OH235940   0.577   5.140  11.745 -0.2007 -0.4442  0.8038
 4842TIP3    H135941   0.579   5.120  11.652 -2.6303  1.5439  0.2157
 4842TIP3    H235942   0.580   5.054  11.788  1.0839 -1.3915 -1.0417
 4843TIP3   OH235943   4.033   4.530  11.107 -0.1347 -0.6142  0.2168
 4843TIP3    H135944   3.957   4.588  11.110 -1.0830 -1.7007 -1.3427
 4843TIP3    H235945   4.031   4.492  11.019  2.8453  0.1165 -0.2694
 4844TIP3   OH235946   4.618   0.492   2.274  0.2855 -0.3424  0.2045
 4844TIP3    H135947   4.603   0.412   2.325  0.0748 -0.6182 -0.2748
 4844TIP3    H235948   4.636   0.460   2.185 -0.7450  0.1653 -0.2060
 4845TIP3   OH235949   5.201   4.518  14.320 -0.1813 -0.2586  0.4038
 4845TIP3    H135950   5.291   4.542  14.344  0.4593 -1.8503 -0.2671
 4845TIP3    H235951   5.164   4.598  14.283  1.1410  0.2837  0.1912
 4846TIP3   OH235952   1.397   1.945  12.352  0.0869  0.3095 -0.4762
 4846TIP3    H135953   1.471   1.979  12.403  1.1416 -0.4333 -1.4538
 4846TIP3    H235954   1.362   1.873  12.405  0.9799 -0.2583 -0.6356
 4847TIP3   OH235955   3.494   4.441   0.861 -0.5461  0.6022  0.4835
 4847TIP3    H135956   3.492   4.385   0.939 -1.5265 -0.5384 -0.3250
 4847TIP3    H235957   3.408   4.484   0.860 -0.2652  1.1641  0.4229
 4848TIP3   OH235958   5.840   0.615  15.283 -0.1110 -0.0025  0.3405
 4848TIP3    H135959   5.795   0.620  15.367  0.3248 -2.7471  0.8295
 4848TIP3    H235960   5.933   0.620  15.305  0.0667  3.6113 -0.4892
 4849TIP3   OH235961   4.986   1.247   1.117 -0.3474  0.4735  0.0679
 4849TIP3    H135962   5.058   1.242   1.180 -0.7908  1.5883  0.6883
 4849TIP3    H235963   4.920   1.300   1.160 -1.3974 -0.2137 -0.6473
 4850TIP3   OH235964   1.271   5.080  11.258  0.2506 -0.1142 -0.3793
 4850TIP3    H135965   1.351   5.127  11.233  0.7703 -0.5870  0.3776
 4850TIP3    H235966   1.267   5.089  11.353 -0.5337 -0.2146 -0.3954
 4851TIP3   OH235967   1.231   0.431   4.751 -0.0483  0.0754  0.0453
 4851TIP3    H135968   1.313   0.384   4.760  0.1720  0.1858 -1.3016
 4851TIP3    H235969   1.252   0.522   4.772  0.3066  0.2074 -0.8606
 4852TIP3   OH235970   2.957   0.396  16.941  0.6307  0.0155 -0.2502
 4852TIP3    H135971   3.005   0.430  17.016  0.2452  1.4210 -0.6070
 4852TIP3    H235972   3.002   0.433  16.864  0.8639 -1.1921 -0.7145
 4853TIP3   OH235973   3.788   4.855   2.058  0.0499 -0.4897  0.4325
 4853TIP3    H135974   3.757   4.895   2.139  0.3620 -0.6721  0.6426
 4853TIP3    H235975   3.747   4.768   2.058 -1.0580  0.0064 -0.2836
 4854TIP3   OH235976   5.316   3.373  12.506 -0.2694 -0.2529 -0.0328
 4854TIP3    H135977   5.374   3.406  12.574  0.8295 -1.1229 -0.5029
 4854TIP3    H235978   5.279   3.292  12.543 -1.7965  0.6754  0.5502
 4855TIP3   OH235979   5.177   3.439  12.284 -0.3016  0.0096 -0.2642
 4855TIP3    H135980   5.163   3.346  12.265  3.2895 -0.7579  0.2493
 4855TIP3    H235981   5.206   3.441  12.375 -0.9211  1.7480 -0.0710
 4856TIP3   OH235982   1.686   5.573   0.698  0.2195  0.0504  0.2008
 4856TIP3    H135983   1.721   5.541   0.614 -1.5696 -1.0224 -0.1725
 4856TIP3    H235984   1.594   5.589   0.681 -0.0574  0.3349  1.8429
 4857TIP3   OH235985   2.728   6.396   5.487 -0.6004  0.1841  0.1085
 4857TIP3    H135986   2.701   6.394   5.578 -0.1913 -0.7555  0.2236
 4857TIP3    H235987   2.683   6.472   5.450 -1.3965  0.1072  0.8880
 4858TIP3   OH235988   6.285   4.530   0.130  0.4512 -0.2256 -0.1164
 4858TIP3    H135989   6.297   4.440   0.101  3.6740 -0.3283  1.1181
 4858TIP3    H235990   6.368   4.573   0.109 -0.1234  1.8239  1.4625
 4859TIP3   OH235991   2.268   5.756   3.075 -0.3801  0.3838  0.9932
 4859TIP3    H135992   2.212   5.825   3.112 -0.3350  0.6514  0.5699
 4859TIP3    H235993   2.217   5.676   3.087 -1.3225  0.7523 -0.3078
 4860TIP3   OH235994   6.440   2.497  16.549  0.2146 -0.3797  0.0800
 4860TIP3    H135995   6.532   2.473  16.537 -0.0255 -1.9680  1.0590
 4860TIP3    H235996   6.430   2.580  16.502  1.8244 -0.8319 -1.1546
 4861TIP3   OH235997   3.936   4.357   3.679  0.6817 -0.3208 -0.1211
 4861TIP3    H135998   4.020   4.399   3.696  0.4972  0.0850 -0.2092
 4861TIP3    H235999   3.872   4.428   3.679  0.4441 -0.5148 -0.8364
 4862TIP3   OH236000   0.986   6.065  15.180 -0.1505 -0.3829  0.2371
 4862TIP3    H136001   0.982   6.134  15.114  0.3397 -0.6952 -0.1253
 4862TIP3    H236002   0.904   6.073  15.228  0.5942  1.5571  1.3198
 4863TIP3   OH236003   1.795   3.336  16.036  0.0534 -0.3205  0.3375
 4863TIP3    H136004   1.862   3.318  16.102 -0.4450  0.2582  1.0241
 4863TIP3    H236005   1.753   3.417  16.067  0.2642  0.3401 -1.0582
 4864TIP3   OH236006   4.918   3.826  14.094 -1.0104  0.3497 -0.2959
 4864TIP3    H136007   4.922   3.811  14.189 -1.3777  0.1219 -0.3150
 4864TIP3    H236008   5.010   3.829  14.067 -0.8918 -0.9895 -0.1439
 4865TIP3   OH236009   5.544   4.448  13.120 -0.4847  0.5883  0.3980
 4865TIP3    H136010   5.521   4.463  13.211 -0.2000 -1.4412  0.8557
 4865TIP3    H236011   5.627   4.494  13.108 -0.5437  0.9034  1.1432
 4866TIP3   OH236012   2.715   3.669   3.156 -0.2977 -0.4868 -0.2161
 4866TIP3    H136013   2.726   3.729   3.082  0.9973 -1.9377 -1.2688
 4866TIP3    H236014   2.782   3.696   3.219 -0.5607 -0.0410 -0.1237
 4867TIP3   OH236015   1.947   0.267   0.499 -0.4142 -0.0763  0.0086
 4867TIP3    H136016   1.978   0.204   0.564 -1.2843  0.8741  1.3998
 4867TIP3    H236017   1.933   0.347   0.548 -2.7366  0.2136 -1.0200
 4868TIP3   OH236018   0.101   5.852   4.957  0.1081  0.0887 -0.1516
 4868TIP3    H136019   0.031   5.821   5.014  1.2096 -0.0254  1.2006
 4868TIP3    H236020   0.133   5.773   4.914 -2.0186  0.4124 -2.5433
 4869TIP3   OH236021   2.222   0.043  15.605  0.2558  0.3722 -0.2783
 4869TIP3    H136022   2.259   0.131  15.616  0.9296 -0.0139  0.6930
 4869TIP3    H236023   2.174   0.048  15.523  0.4278  1.6019 -0.3318
 4870TIP3   OH236024   4.940   2.540   1.542  0.8024 -0.1565 -0.2972
 4870TIP3    H136025   5.013   2.553   1.481 -0.0484 -2.6746 -2.0222
 4870TIP3    H236026   4.876   2.607   1.518  0.4894 -1.0872 -2.2969
 4871TIP3   OH236027   5.248   3.045  11.254  0.1324  0.0039 -0.2668
 4871TIP3    H136028   5.235   3.135  11.224  1.1823  0.1829 -0.2461
 4871TIP3    H236029   5.163   3.018  11.289  0.1627  1.5018  1.0632
 4872TIP3   OH236030   0.285   0.935   5.546 -0.2377  0.8305  0.1120
 4872TIP3    H136031   0.349   0.964   5.610  2.3953 -1.1254 -1.4431
 4872TIP3    H236032   0.262   0.846   5.574  0.5765  0.1417 -1.3169
 4873TIP3   OH236033   0.789   0.801   4.376  0.2635  0.2294  0.3444
 4873TIP3    H136034   0.718   0.853   4.413 -0.7830  0.6673 -2.0686
 4873TIP3    H236035   0.843   0.866   4.330  1.0885 -0.3752  0.4374
 4874TIP3   OH236036   1.310   5.263   1.663 -0.5472  0.2454  0.0047
 4874TIP3    H136037   1.395   5.281   1.703 -1.2019 -0.0218  1.6295
 4874TIP3    H236038   1.284   5.347   1.624 -0.2533  0.7844  0.9266
 4875TIP3   OH236039   5.444   3.040  13.232  0.6046 -0.3109  0.1497
 4875TIP3    H136040   5.482   2.952  13.229  0.6228 -0.3448  1.2369
 4875TIP3    H236041   5.504   3.093  13.180 -0.6420 -1.3577 -2.6270
 4876TIP3   OH236042   1.898   0.411   5.206  0.1373  0.3513 -0.0996
 4876TIP3    H136043   1.839   0.426   5.132  2.1803  1.9561 -1.5209
 4876TIP3    H236044   1.849   0.353   5.264 -2.5230  1.0032 -1.5190
 4877TIP3   OH236045   4.428   4.371  15.310  0.0185  0.1757 -0.1886
 4877TIP3    H136046   4.392   4.300  15.364 -1.7886  1.1070 -0.0755
 4877TIP3    H236047   4.384   4.449  15.343  0.0070  0.9812 -2.0291
 4878TIP3   OH236048   4.256   5.278  12.869 -0.4155 -0.5679  0.4537
 4878TIP3    H136049   4.260   5.232  12.785  0.3784  0.7104 -0.2333
 4878TIP3    H236050   4.339   5.258  12.911  0.0248  0.3924  0.0569
 4879TIP3   OH236051   5.746   0.572   0.794  0.1922  0.4459  0.6160
 4879TIP3    H136052   5.655   0.588   0.768  0.4747  1.3811  0.1552
 4879TIP3    H236053   5.797   0.589   0.715  0.9462  1.9951  1.3751
 4880TIP3   OH236054   5.439   3.925  15.709  0.3488  0.1593  0.1830
 4880TIP3    H136055   5.423   3.977  15.630  0.9705  2.9310  1.7300
 4880TIP3    H236056   5.375   3.958  15.773  1.1531 -0.5557  1.4115
 4881TIP3   OH236057   5.333   6.688   6.545 -0.2105 -0.3448  0.5898
 4881TIP3    H136058   5.335   6.778   6.515 -0.0460 -0.5116  0.0916
 4881TIP3    H236059   5.263   6.647   6.495  0.8246 -0.9144 -0.4448
 4882TIP3   OH236060   4.398   4.331  16.362 -0.6701  0.1297 -0.0729
 4882TIP3    H136061   4.345   4.282  16.300 -1.1675 -1.5090  1.5588
 4882TIP3    H236062   4.488   4.316  16.334 -0.9213  0.1426 -0.9002
 4883TIP3   OH236063   1.824   1.609  16.942 -0.4162  0.2690  0.2027
 4883TIP3    H136064   1.728   1.609  16.944 -0.4554  0.4197 -1.0327
 4883TIP3    H236065   1.849   1.517  16.948 -0.7211  0.0440 -1.5100
 4884TIP3   OH236066   6.413   3.960  13.592  0.7449  0.3677 -0.3941
 4884TIP3    H136067   6.503   3.927  13.601  0.1626 -1.0095  1.0668
 4884TIP3    H236068   6.412   4.041  13.643  1.3178  0.7182 -0.9425
 4885TIP3   OH236069   2.726   2.578  10.510  0.0771 -0.1373 -0.5143
 4885TIP3    H136070   2.671   2.641  10.556 -0.4941  0.7597 -2.3187
 4885TIP3    H236071   2.679   2.495  10.519  0.7540 -0.3218  1.7359
 4886TIP3   OH236072   5.764   6.322  14.043 -0.2391  0.6772  0.1463
 4886TIP3    H136073   5.824   6.359  13.979  1.3654 -0.3621  0.9825
 4886TIP3    H236074   5.776   6.227  14.035  0.4872  0.5344  2.3987
 4887TIP3   OH236075   4.637   4.129  12.135 -0.4292  0.1305 -0.5604
 4887TIP3    H136076   4.545   4.142  12.114 -0.5222  0.1093 -0.1734
 4887TIP3    H236077   4.637   4.102  12.227  0.0128  0.8776 -0.3323
 4888TIP3   OH236078   4.495   6.221  16.218  0.0791 -0.0895 -0.4144
 4888TIP3    H136079   4.420   6.234  16.159  0.6812  1.3838 -0.9065
 4888TIP3    H236080   4.465   6.252  16.303  0.4456  1.5259 -0.8515
 4889TIP3   OH236081   1.376   5.420  16.182  0.2957 -0.0942 -0.4597
 4889TIP3    H136082   1.411   5.350  16.237 -2.8318 -2.2157 -0.8796
 4889TIP3    H236083   1.367   5.380  16.096  0.3206  1.5298 -1.2480
 4890TIP3   OH236084   0.349   4.930   0.238 -0.2447  0.2324 -0.1491
 4890TIP3    H136085   0.304   4.911   0.320  0.1447 -0.9864 -0.1979
 4890TIP3    H236086   0.438   4.954   0.265  0.1223 -0.9866 -0.2530
 4891TIP3   OH236087   5.338   1.020   1.634  0.0501  0.1213 -0.3552
 4891TIP3    H136088   5.314   1.109   1.660  1.0320  0.6880 -1.2999
 4891TIP3    H236089   5.272   0.965   1.676 -1.6981  1.4269 -1.2410
 4892TIP3   OH236090   4.499   3.878   5.129 -0.2502 -0.3680  0.1000
 4892TIP3    H136091   4.553   3.816   5.080 -0.2627 -0.4434  0.1807
 4892TIP3    H236092   4.412   3.870   5.092 -0.0219  0.4027 -0.6380
 4893TIP3   OH236093   5.141   0.262  14.519 -0.1848  0.0645 -0.5060
 4893TIP3    H136094   5.090   0.266  14.600 -0.3475 -2.0556 -0.4269
 4893TIP3    H236095   5.099   0.325  14.461 -1.4807  0.0131  0.3266
 4894TIP3   OH236096   2.616   6.376   5.102  0.1856  0.3347 -0.2107
 4894TIP3    H136097   2.655   6.435   5.167 -0.5475  0.2261  0.3398
 4894TIP3    H236098   2.676   6.379   5.028  0.3137  1.5359 -0.0708
 4895TIP3   OH236099   4.020   5.174   3.905 -0.4060  0.4575 -0.1119
 4895TIP3    H136100   3.966   5.162   3.827 -0.8572  1.1091  0.0964
 4895TIP3    H236101   4.003   5.096   3.958 -0.0823  0.0024 -0.6639
 4896TIP3   OH236102   5.849   6.361   3.957  0.4753 -0.0516 -0.0482
 4896TIP3    H136103   5.835   6.290   4.019  0.8470 -0.2463 -0.1794
 4896TIP3    H236104   5.892   6.319   3.882 -0.3026  0.1086 -0.5942
 4897TIP3   OH236105   6.299   3.294  11.666  0.6636  0.0622 -0.0982
 4897TIP3    H136106   6.329   3.228  11.604  1.9198  1.4216 -1.0059
 4897TIP3    H236107   6.226   3.253  11.711  0.3446 -1.3456 -1.7826
 4898TIP3   OH236108   4.167   0.405   4.000  0.3763  0.2812 -0.6968
 4898TIP3    H136109   4.244   0.368   3.956  0.4318 -0.6647  0.1684
 4898TIP3    H236110   4.093   0.354   3.967  0.3842 -0.2418  0.0687
 4899TIP3   OH236111   5.167   1.537   3.295 -0.9545 -0.1412  0.1809
 4899TIP3    H136112   5.208   1.464   3.249 -0.2201 -0.2630  1.0222
 4899TIP3    H236113   5.089   1.498   3.336 -1.0811 -0.2422 -0.1501
 4900TIP3   OH236114   1.937   5.091   3.896  0.6787  0.0371  0.2831
 4900TIP3    H136115   2.016   5.057   3.856 -0.3036 -0.4718 -1.3209
 4900TIP3    H236116   1.874   5.020   3.889 -0.6055  1.2020 -0.6184
 4901TIP3   OH236117   4.981   6.268   3.116  0.5997  0.0746 -0.3462
 4901TIP3    H136118   4.923   6.236   3.047  0.2054  2.0793 -1.0210
 4901TIP3    H236119   4.986   6.363   3.101 -0.0693  0.7194  2.7895
 4902TIP3   OH236120   1.827   1.343   1.726  0.1478 -0.2641 -0.0654
 4902TIP3    H136121   1.862   1.425   1.691 -0.5595  1.7886  3.6085
 4902TIP3    H236122   1.743   1.332   1.682  1.3343 -0.5386 -2.4768
 4903TIP3   OH236123   0.810   5.373   2.611 -0.0106  0.3298  0.0705
 4903TIP3    H136124   0.798   5.391   2.517 -0.3847 -0.3858 -0.0214
 4903TIP3    H236125   0.828   5.279   2.615 -3.7507 -0.4871  1.0261
 4904TIP3   OH236126   2.904   5.785   2.669 -0.1464 -0.9307  0.1120
 4904TIP3    H136127   2.862   5.865   2.638 -0.5631 -1.1469  0.1065
 4904TIP3    H236128   2.980   5.815   2.719  1.9187 -0.5665 -2.9644
 4905TIP3   OH236129   1.700   2.833  12.581 -0.1460 -0.4530 -0.2577
 4905TIP3    H136130   1.749   2.753  12.603 -1.6212 -0.9845  1.3359
 4905TIP3    H236131   1.640   2.845  12.655 -2.9486 -0.2554 -2.4335
 4906TIP3   OH236132   5.643   4.061   2.920 -0.0138 -0.1737 -0.2723
 4906TIP3    H136133   5.728   4.018   2.909 -0.6168 -1.1742 -1.1909
 4906TIP3    H236134   5.607   4.021   2.999 -0.6069 -1.4825 -1.1677
 4907TIP3   OH236135   6.137   4.330  11.468 -0.8590  0.3326 -0.2446
 4907TIP3    H136136   6.177   4.251  11.431 -0.7431 -0.6632  1.9174
 4907TIP3    H236137   6.052   4.336  11.424  0.8165  1.6035 -3.7548
 4908TIP3   OH236138   2.022   2.628   5.641  0.2187 -0.1583  0.1834
 4908TIP3    H136139   1.944   2.585   5.677 -0.7207  0.5859 -0.8745
 4908TIP3    H236140   2.056   2.565   5.577 -0.5277  0.1765 -0.5771
 4909TIP3   OH236141   2.252   1.489  13.983  0.1410  0.1506 -0.2527
 4909TIP3    H136142   2.212   1.574  14.001  0.6771  0.5524 -0.9283
 4909TIP3    H236143   2.294   1.465  14.066  0.8851  1.0450 -0.3535
 4910TIP3   OH236144   5.369   3.377   1.895  0.2395  0.2048 -0.2528
 4910TIP3    H136145   5.432   3.422   1.952  0.2367 -1.5363  1.2158
 4910TIP3    H236146   5.337   3.305   1.948 -2.1823  0.3718 -1.3928
 4911TIP3   OH236147   2.334   5.571   5.146 -0.2989 -0.1451 -0.3939
 4911TIP3    H136148   2.349   5.482   5.179 -0.1914  0.2034  0.5406
 4911TIP3    H236149   2.270   5.608   5.207 -0.2828  0.4427 -0.7324
 4912TIP3   OH236150   5.526   6.607  12.100 -0.2171 -0.0538 -0.1719
 4912TIP3    H136151   5.520   6.586  12.007 -0.4146  2.3209 -0.7686
 4912TIP3    H236152   5.491   6.696  12.106  2.6434  1.0930  1.6427
 4913TIP3   OH236153   3.092   2.127   4.911 -0.3184  0.2190  0.2411
 4913TIP3    H136154   3.080   2.189   4.838 -0.9840 -0.6256 -0.3858
 4913TIP3    H236155   3.011   2.133   4.961  0.1283  0.7771  0.9067
 4914TIP3   OH236156   5.060   2.545  13.603 -0.1225  0.0438  0.4155
 4914TIP3    H136157   5.023   2.617  13.654 -0.0064  1.3297 -1.2336
 4914TIP3    H236158   5.050   2.573  13.512  2.2982 -0.8722 -0.1925
 4915TIP3   OH236159   5.836   1.041  13.409  0.5733  0.0947  1.0847
 4915TIP3    H136160   5.782   1.053  13.332  1.4967  0.6134  0.4935
 4915TIP3    H236161   5.800   1.102  13.474  1.3764  1.6134  0.1778
 4916TIP3   OH236162   4.305   0.672   1.291 -0.0519 -0.1613  0.3688
 4916TIP3    H136163   4.289   0.681   1.385  0.2481  0.2405  0.3813
 4916TIP3    H236164   4.398   0.690   1.281 -0.4442  1.7030 -0.2425
 4917TIP3   OH236165   6.251   1.277   5.566  0.3246  0.6723 -0.2725
 4917TIP3    H136166   6.326   1.244   5.517  0.5262  0.8563 -0.0914
 4917TIP3    H236167   6.281   1.360   5.603  0.6302 -0.1072  1.2953
 4918TIP3   OH236168   1.018   3.107   3.814 -0.3996  0.0013 -0.0169
 4918TIP3    H136169   0.924   3.118   3.820 -0.3378  0.7558 -0.2814
 4918TIP3    H236170   1.054   3.170   3.876 -0.0675 -0.1342 -0.0685
 4919TIP3   OH236171   0.481   3.632  14.638 -0.4293  0.5910  0.1988
 4919TIP3    H136172   0.531   3.550  14.628 -0.6734  0.0607  2.6204
 4919TIP3    H236173   0.401   3.618  14.587 -0.3372 -0.5988  0.3512
 4920TIP3   OH236174   6.467   3.621  15.042 -0.0642 -0.5248 -0.2386
 4920TIP3    H136175   6.394   3.617  14.980 -0.6137 -0.0250  0.3660
 4920TIP3    H236176   6.459   3.541  15.094  0.1280 -0.7220 -0.5095
 4921TIP3   OH236177   3.675   6.759   0.863  0.5548  0.6666  1.0567
 4921TIP3    H136178   3.760   6.793   0.834  1.1137  1.1516  3.1172
 4921TIP3    H236179   3.681   6.664   0.850  0.2704  0.9399 -1.5305
 4922TIP3   OH236180   3.197   4.693   0.320  0.2924  0.0025 -0.6786
 4922TIP3    H136181   3.117   4.639   0.325 -0.0029  0.4944  0.2415
 4922TIP3    H236182   3.224   4.687   0.228 -0.3293 -0.8484 -0.8270
 4923TIP3   OH236183   6.049   5.015  16.783 -0.2329 -0.4227 -0.6010
 4923TIP3    H136184   6.031   4.991  16.692 -0.8123 -0.1650 -0.5580
 4923TIP3    H236185   5.967   5.053  16.814  0.3000  0.4719 -0.2855
 4924TIP3   OH236186   0.498   2.394  12.961  0.3420  0.5907 -0.3795
 4924TIP3    H136187   0.549   2.468  12.993  1.3789 -0.7798  1.3416
 4924TIP3    H236188   0.563   2.330  12.934 -0.4654 -0.5698  0.3299
 4925TIP3   OH236189   2.960   1.377   0.254  0.3388 -0.2612 -0.1523
 4925TIP3    H136190   2.868   1.357   0.237  0.5639 -0.6756 -0.9628
 4925TIP3    H236191   2.983   1.322   0.329 -0.5466  1.2173  1.2721
 4926TIP3   OH236192   6.213   1.392   3.886  0.0099  0.1806 -0.4435
 4926TIP3    H136193   6.286   1.369   3.943 -0.5807 -1.5216 -0.3057
 4926TIP3    H236194   6.158   1.450   3.939  0.4313  0.1663  0.0201
 4927TIP3   OH236195   2.943   2.878   3.920  0.3982  0.5703  0.2487
 4927TIP3    H136196   2.908   2.827   3.847  1.2881 -1.2370  1.0151
 4927TIP3    H236197   2.940   2.969   3.890 -1.5640  0.1395 -1.0587
 4928TIP3   OH236198   6.551   6.042   1.074  0.0122  0.2497 -0.3278
 4928TIP3    H136199   6.619   5.982   1.043 -0.5272 -1.4383  1.4809
 4928TIP3    H236200   6.488   6.045   1.003  1.6777  1.4554 -1.8358
 4929TIP3   OH236201   6.752   6.385   0.907 -0.1040  0.1917 -0.2488
 4929TIP3    H136202   6.689   6.405   0.976  0.3118 -1.1570  0.5818
 4929TIP3    H236203   6.729   6.296   0.879  1.6278 -0.5118  0.3850
 4930TIP3   OH236204   1.395   0.233  12.112  0.5470 -0.5394  0.5360
 4930TIP3    H136205   1.338   0.239  12.035 -0.3182 -1.9428  1.0343
 4930TIP3    H236206   1.471   0.183  12.082  1.3730  1.0023 -0.0272
 4931TIP3   OH236207   2.573   5.604   5.003  0.0580 -0.6286  0.3643
 4931TIP3    H136208   2.488   5.618   5.045  0.0943 -0.3410  0.3461
 4931TIP3    H236209   2.614   5.691   5.003  0.5459 -0.8526  0.7941
 4932TIP3   OH236210   3.508   5.862   3.092 -0.3923 -0.6189  1.2068
 4932TIP3    H136211   3.435   5.812   3.054 -0.6104  1.0894 -0.8127
 4932TIP3    H236212   3.468   5.909   3.166 -2.1043  2.0832 -1.2031
 4933TIP3   OH236213   4.934   2.663   2.046  0.0993  0.3550 -0.1563
 4933TIP3    H136214   4.899   2.574   2.036  0.7691 -0.2981  2.4608
 4933TIP3    H236215   4.857   2.716   2.066 -0.2408  0.3028 -1.2472
 4934TIP3   OH236216   6.644   0.504  10.470  0.3957  0.2582 -0.6218
 4934TIP3    H136217   6.549   0.492  10.469  0.0466  2.4598  0.2561
 4934TIP3    H236218   6.678   0.424  10.509 -1.0535 -0.6659 -1.1384
 4935TIP3   OH236219   4.986   2.101  13.156  0.7397 -0.5180  0.4269
 4935TIP3    H136220   4.961   2.088  13.065 -1.2209  1.3295  0.6352
 4935TIP3    H236221   5.044   2.177  13.155  1.8714 -1.3598  0.5908
 4936TIP3   OH236222   6.411   0.744  13.478  0.8872 -0.3217  0.4237
 4936TIP3    H136223   6.366   0.787  13.551 -0.7362 -1.9824  0.4875
 4936TIP3    H236224   6.396   0.651  13.492  1.3397 -0.7453 -1.5383
 4937TIP3   OH236225   6.639   3.863   1.521  0.5299 -0.2016 -0.2157
 4937TIP3    H136226   6.544   3.870   1.512  0.4234 -0.0373  0.8632
 4937TIP3    H236227   6.664   3.797   1.457  0.0451  1.5973 -2.3726
 4938TIP3   OH236228   4.394   0.291   3.083 -0.0823  0.1488 -0.3027
 4938TIP3    H136229   4.433   0.259   3.164 -1.0110 -1.3294 -0.3926
 4938TIP3    H236230   4.452   0.259   3.014  0.2437  0.6621 -0.2653
 4939TIP3   OH236231   1.876   3.675   4.264 -0.6717 -0.2577 -0.0703
 4939TIP3    H136232   1.792   3.654   4.305 -0.4291  0.8951  1.0805
 4939TIP3    H236233   1.941   3.639   4.323 -0.3220 -1.3862 -1.0963
 4940TIP3   OH236234   0.929   6.061   3.725  0.0827 -0.4001 -0.5432
 4940TIP3    H136235   0.985   6.037   3.798  0.7814 -0.3468 -1.0505
 4940TIP3    H236236   0.935   5.987   3.664  0.5615  0.1144 -1.1394
 4941TIP3   OH236237   0.770   6.387  12.803  0.0813  0.1844  0.0141
 4941TIP3    H136238   0.696   6.402  12.745  0.7171 -3.9411 -2.3040
 4941TIP3    H236239   0.738   6.322  12.867  1.1998 -0.4121 -0.0012
 4942TIP3   OH236240   4.595   1.166  13.441  0.3350  0.5336  0.1393
 4942TIP3    H136241   4.592   1.073  13.419 -1.8864  0.5379  0.2295
 4942TIP3    H236242   4.663   1.201  13.384  0.7236 -1.0102 -0.4083
 4943TIP3   OH236243   0.324   5.500   6.167  0.1764 -0.8071  0.0689
 4943TIP3    H136244   0.238   5.483   6.205 -0.4834 -0.3229 -1.1283
 4943TIP3    H236245   0.315   5.585   6.124  1.8705  0.2431  1.6180
 4944TIP3   OH236246   2.719   4.328  15.873 -0.1451 -0.2207  0.0180
 4944TIP3    H136247   2.659   4.284  15.812  1.0290 -0.1536 -1.2236
 4944TIP3    H236248   2.799   4.277  15.870  0.3119  0.4324  0.6787
 4945TIP3   OH236249   1.660   2.651   1.791 -0.0110 -0.0845  0.1450
 4945TIP3    H136250   1.594   2.694   1.845 -1.4423 -0.7570 -1.0210
 4945TIP3    H236251   1.643   2.681   1.702 -0.7428 -2.5529 -0.6483
 4946TIP3   OH236252   3.623   2.580  15.676 -0.3030  0.7843 -0.2237
 4946TIP3    H136253   3.680   2.509  15.704  0.2727  1.3586  0.0709
 4946TIP3    H236254   3.608   2.632  15.756 -0.0220  1.4751 -0.6139
 4947TIP3   OH236255   4.757   0.032  14.791 -0.1850 -0.1247 -0.3264
 4947TIP3    H136256   4.683  -0.001  14.842  0.4050  0.3123  0.8347
 4947TIP3    H236257   4.731   0.120  14.764 -0.4782 -0.3393 -0.7603
 4948TIP3   OH236258   2.622   0.541   2.390 -0.5719  0.4213  0.3861
 4948TIP3    H136259   2.544   0.557   2.443 -0.4421  2.9259 -0.0670
 4948TIP3    H236260   2.594   0.557   2.300  0.1572  0.0308  0.0819
 4949TIP3   OH236261   5.780   5.478  11.679  0.1101 -0.8335 -0.3537
 4949TIP3    H136262   5.843   5.550  11.676 -0.2901 -0.5023 -1.1131
 4949TIP3    H236263   5.789   5.442  11.767 -0.1965  0.6020  0.2880
 4950TIP3   OH236264   1.292   1.682   4.395 -0.0593 -0.0570  0.4361
 4950TIP3    H136265   1.277   1.769   4.432  3.3249  0.9241 -0.0933
 4950TIP3    H236266   1.290   1.696   4.300  0.1881 -0.5979  0.3470
 4951TIP3   OH236267   1.866   1.758   4.507  0.2067 -0.5079  0.1691
 4951TIP3    H136268   1.887   1.665   4.492  0.5827 -0.6386  1.3787
 4951TIP3    H236269   1.951   1.800   4.515  0.0382 -0.3752  1.3649
 4952TIP3   OH236270   4.069   0.206  13.210  0.1129 -0.5147  0.4663
 4952TIP3    H136271   4.125   0.212  13.287 -1.1314  0.4698  1.3597
 4952TIP3    H236272   3.983   0.181  13.246 -1.3260  3.0434 -0.0804
 4953TIP3   OH236273   5.043   3.417   5.315  0.5275  0.2993  0.0712
 4953TIP3    H136274   5.109   3.400   5.383  0.9422 -0.4999 -0.5084
 4953TIP3    H236275   4.961   3.388   5.354  0.6140  0.6866  0.5598
 4954TIP3   OH236276   0.487   5.047  15.216  0.1590 -0.3854 -0.3251
 4954TIP3    H136277   0.560   5.080  15.164  2.5776 -1.7084  1.9453
 4954TIP3    H236278   0.424   5.014  15.152  0.7612  2.2115 -2.4268
 4955TIP3   OH236279   4.247   2.528  11.432  0.1003 -0.2873 -0.1508
 4955TIP3    H136280   4.191   2.548  11.357  0.5089 -1.1988 -0.7263
 4955TIP3    H236281   4.317   2.474  11.395  0.6487 -0.2354  0.7842
 4956TIP3   OH236282   4.999   5.465   3.748  0.5466  0.5809  0.5719
 4956TIP3    H136283   5.011   5.549   3.703  1.5146  0.8601  1.3231
 4956TIP3    H236284   4.968   5.489   3.835  0.8160  0.1474  0.7889
 4957TIP3   OH236285   1.068   4.138  15.304  0.1121  0.0772  0.1719
 4957TIP3    H136286   1.045   4.147  15.212 -0.3253 -0.5798  0.2028
 4957TIP3    H236287   1.051   4.045  15.323  0.4052  0.1586  0.8532
 4958TIP3   OH236288   2.163   3.598   5.123  0.7278 -0.0002 -0.0059
 4958TIP3    H136289   2.157   3.634   5.035  1.0150  0.4339  0.1493
 4958TIP3    H236290   2.077   3.561   5.141  1.2349 -1.9536 -1.2599
 4959TIP3   OH236291   3.452   2.799   1.410  0.1621  0.5093 -0.0381
 4959TIP3    H136292   3.360   2.822   1.391  0.1334  1.5951  1.2482
 4959TIP3    H236293   3.452   2.703   1.414 -1.2824  0.5153  1.4895
 4960TIP3   OH236294   1.937   4.479   5.135 -0.1076 -0.4889  0.4615
 4960TIP3    H136295   2.001   4.413   5.159  0.0841 -1.0069 -1.3719
 4960TIP3    H236296   1.860   4.457   5.188  0.3726 -1.3967  0.8115
 4961TIP3   OH236297   2.643   6.262   0.341 -0.4614  0.1075  0.4720
 4961TIP3    H136298   2.681   6.347   0.320  2.0740 -1.3649 -1.6363
 4961TIP3    H236299   2.711   6.217   0.392 -1.4374 -0.8906  0.9367
 4962TIP3   OH236300   0.822   2.844   0.523 -0.6510  0.3655  0.5429
 4962TIP3    H136301   0.820   2.889   0.607 -0.8872 -0.5688  1.0513
 4962TIP3    H236302   0.744   2.788   0.524 -0.5495  0.1985 -0.2122
 4963TIP3   OH236303   6.541   6.705   3.162  0.0331  0.1519 -0.2360
 4963TIP3    H136304   6.577   6.622   3.129 -1.2367  0.1019 -1.5914
 4963TIP3    H236305   6.539   6.762   3.085  2.3831  2.0544  0.9594
 4964TIP3   OH236306   0.982   0.173   1.973 -0.6188 -0.2507 -0.1730
 4964TIP3    H136307   1.064   0.186   1.925 -0.4953 -0.6671 -0.0777
 4964TIP3    H236308   1.011   0.156   2.063 -0.8731  1.6265  0.3112
 4965TIP3   OH236309   1.931   2.255   1.245 -0.4916  0.3652  0.7350
 4965TIP3    H136310   1.883   2.329   1.206 -1.2462  0.2735  1.4456
 4965TIP3    H236311   1.937   2.278   1.338  1.1396  0.5133  0.6123
 4966TIP3   OH236312   1.857   6.731  14.914  0.3105 -0.2796 -0.2564
 4966TIP3    H136313   1.795   6.796  14.948  0.6311  0.2914 -0.7382
 4966TIP3    H236314   1.841   6.653  14.967  0.5689  0.4814  0.9833
 4967TIP3   OH236315   0.125   1.907   2.114  0.3470 -0.0791 -0.0769
 4967TIP3    H136316   0.170   1.862   2.042  2.3231  0.0983  0.9618
 4967TIP3    H236317   0.174   1.989   2.123  0.4441 -0.3088  1.7591
 4968TIP3   OH236318   3.977   4.930   2.715 -0.1644 -0.0724 -0.0356
 4968TIP3    H136319   3.936   4.846   2.693 -3.4359  1.0801  1.1228
 4968TIP3    H236320   3.914   4.996   2.687  1.1527  1.9196  1.4236
 4969TIP3   OH236321   4.836   6.316   0.138  0.0413 -0.1877 -0.3339
 4969TIP3    H136322   4.906   6.381   0.146  0.1535 -0.0452 -2.0716
 4969TIP3    H236323   4.873   6.235   0.174  0.1164  0.5298  1.2696
 4970TIP3   OH236324   4.344   6.273  14.324  0.3149  0.1013  0.0391
 4970TIP3    H136325   4.306   6.192  14.290  0.1370  0.6086 -0.9910
 4970TIP3    H236326   4.269   6.330  14.341  0.4453  0.0937  0.6936
 4971TIP3   OH236327   3.452   3.167   4.397 -0.1294  0.2027 -0.2841
 4971TIP3    H136328   3.439   3.105   4.469 -0.4752 -1.1663 -1.4910
 4971TIP3    H236329   3.547   3.179   4.394  0.0062 -0.8273 -0.4766
 4972TIP3   OH236330   0.298   6.547   3.414  0.0744 -0.2595 -0.0156
 4972TIP3    H136331   0.310   6.616   3.479  0.0664  0.5349 -0.8380
 4972TIP3    H236332   0.325   6.466   3.459  2.2107  0.5641  0.2752
 4973TIP3   OH236333   3.127   2.378  12.180  0.9065 -0.8699  0.0604
 4973TIP3    H136334   3.135   2.419  12.266  0.6883 -0.2819 -0.1980
 4973TIP3    H236335   3.167   2.292  12.191  0.5032 -0.9651  0.8642
 4974TIP3   OH236336   1.740   0.077  13.782  0.1924 -0.0607 -0.2545
 4974TIP3    H136337   1.672   0.072  13.849 -1.5299 -0.5224 -1.9397
 4974TIP3    H236338   1.697   0.119  13.707  2.6497  2.5273 -0.4174
 4975TIP3   OH236339   6.493   4.941  11.684  0.7584 -0.3959  0.3132
 4975TIP3    H136340   6.437   4.919  11.759  0.0724  1.1440  0.2936
 4975TIP3    H236341   6.432   4.968  11.616  1.4662 -0.0357 -0.1902
 4976TIP3   OH236342   4.302   6.553  14.956 -0.1830  0.4444 -0.0654
 4976TIP3    H136343   4.397   6.560  14.951 -0.0639 -1.3838 -1.0043
 4976TIP3    H236344   4.285   6.460  14.968 -1.8211  0.9073  1.9580
 4977TIP3   OH236345   3.581   5.054  12.526  0.6343 -0.3945 -0.1929
 4977TIP3    H136346   3.522   4.983  12.551 -0.4059  0.9217  1.3727
 4977TIP3    H236347   3.605   5.095  12.610 -1.9560  3.4755 -1.0516
 4978TIP3   OH236348   5.807   3.829   0.393 -0.4290 -0.2953  0.3747
 4978TIP3    H136349   5.863   3.790   0.461 -0.3596 -1.2333 -0.2031
 4978TIP3    H236350   5.726   3.779   0.397 -0.5910 -0.0628  0.0538
 4979TIP3   OH236351   5.696   1.972   1.723 -0.3180  0.4147  0.5302
 4979TIP3    H136352   5.686   1.969   1.818  0.0329 -1.5359  0.5425
 4979TIP3    H236353   5.623   1.919   1.690  2.0227 -2.7419 -0.0153
 4980TIP3   OH236354   2.336   4.330   0.119 -0.3355  0.1929 -0.2330
 4980TIP3    H136355   2.277   4.355   0.190 -2.1791 -1.7059 -0.9692
 4980TIP3    H236356   2.285   4.344   0.039  0.3036 -1.1600 -0.9298
 4981TIP3   OH236357   6.744   4.430   3.277  0.4884 -0.2832 -0.0654
 4981TIP3    H136358   6.712   4.482   3.203  0.9401  0.2479  0.1055
 4981TIP3    H236359   6.839   4.427   3.266  0.8784  2.0159  1.8643
 4982TIP3   OH236360   0.084   5.950  15.774  0.1109  0.3327  0.3855
 4982TIP3    H136361   0.160   5.900  15.804  0.4380  0.5302 -0.1121
 4982TIP3    H236362   0.032   5.887  15.724 -0.1745  0.1381  0.9153
 4983TIP3   OH236363   6.502   4.044   2.733 -0.0546  0.1150 -0.1650
 4983TIP3    H136364   6.579   3.999   2.699 -0.1593 -0.2094  0.0236
 4983TIP3    H236365   6.429   3.985   2.713  0.0163 -0.6481  1.6489
 4984TIP3   OH236366   2.037   2.833   2.594 -0.1110 -0.2030  0.1654
 4984TIP3    H136367   2.078   2.769   2.653 -0.8259 -1.0539 -0.2478
 4984TIP3    H236368   1.957   2.860   2.639  0.6088  1.0726  0.7335
 4985TIP3   OH236369   3.107   1.260  15.131  0.4030 -0.5963 -0.0927
 4985TIP3    H136370   3.075   1.214  15.209  2.8565  0.0586  1.4196
 4985TIP3    H236371   3.069   1.347  15.138  0.4010 -0.6213  0.2384
 4986TIP3   OH236372   4.195   0.906  16.574  0.7488 -0.9209 -0.2306
 4986TIP3    H136373   4.155   0.983  16.613  2.2795  0.0755 -0.5144
 4986TIP3    H236374   4.138   0.884  16.500  0.1140 -0.2536  0.0510
 4987TIP3   OH236375   3.832   0.912  17.046 -0.1189 -0.0005  0.2628
 4987TIP3    H136376   3.881   0.858  16.984  0.7499  0.7610  0.2586
 4987TIP3    H236377   3.871   0.893  17.131  0.0315  0.4213  0.2942
 4988TIP3   OH236378   6.219   4.334   4.278 -0.0545 -0.3265 -0.3316
 4988TIP3    H136379   6.242   4.303   4.190 -0.1136 -0.3135 -0.3520
 4988TIP3    H236380   6.193   4.255   4.325  1.1288 -0.5081  0.0464
 4989TIP3   OH236381   0.554   1.280  13.889 -0.0159  0.1591  0.4239
 4989TIP3    H136382   0.481   1.340  13.900 -0.7221 -0.8089  1.1805
 4989TIP3    H236383   0.629   1.336  13.869 -0.9404  1.1706 -0.2944
 4990TIP3   OH236384   4.138   3.101   2.703 -0.0637 -0.0766 -0.3390
 4990TIP3    H136385   4.114   3.147   2.783  2.6244  0.7170  0.1061
 4990TIP3    H236386   4.122   3.164   2.633  1.2314  0.6496  0.0040
 4991TIP3   OH236387   5.343   5.367  16.553 -0.7133 -0.2461  0.1913
 4991TIP3    H136388   5.368   5.389  16.464  0.7331  0.4947  0.7493
 4991TIP3    H236389   5.294   5.443  16.584  0.2065  0.2292  0.5428
 4992TIP3   OH236390   1.165   5.587   3.082 -0.7332 -0.4182 -0.3028
 4992TIP3    H136391   1.259   5.572   3.080 -0.7306 -0.4172 -0.1801
 4992TIP3    H236392   1.151   5.663   3.025 -0.5316  0.2792  0.5677
 4993TIP3   OH236393   2.821   5.583   1.905 -0.1775  0.4273 -0.4227
 4993TIP3    H136394   2.914   5.573   1.929 -0.8816  0.5285  2.7438
 4993TIP3    H236395   2.777   5.511   1.949 -1.9369  1.9814  0.4852
 4994TIP3   OH236396   1.377   2.594  12.980 -0.2316 -0.5665  0.1523
 4994TIP3    H136397   1.295   2.557  13.012 -0.0448 -0.0979  1.2426
 4994TIP3    H236398   1.351   2.654  12.910 -0.7560 -0.8923  0.0642
 4995TIP3   OH236399   1.035   0.350   3.002 -0.5592  0.1975  0.1252
 4995TIP3    H136400   0.980   0.373   2.927  0.7764  0.4977 -0.7897
 4995TIP3    H236401   1.083   0.272   2.974 -0.4219  0.0090  0.8581
 4996TIP3   OH236402   0.448   2.975  14.172 -0.0633  0.1071  0.4465
 4996TIP3    H136403   0.499   3.017  14.104 -0.2483  0.6267  0.6229
 4996TIP3    H236404   0.474   3.019  14.253 -1.2908  0.8944  0.4535
 4997TIP3   OH236405   1.323   1.207  12.907  1.1512 -0.1934 -0.0007
 4997TIP3    H136406   1.284   1.130  12.865 -0.8662  0.9759 -0.4287
 4997TIP3    H236407   1.293   1.281  12.855  2.4144  0.9647  0.8393
 4998TIP3   OH236408   1.522   5.852   0.677  0.1845  0.4084 -0.1943
 4998TIP3    H136409   1.458   5.784   0.656  0.9254 -0.6358  0.7898
 4998TIP3    H236410   1.591   5.840   0.612 -1.0604  2.2384 -1.9426
 4999TIP3   OH236411   3.706   4.580   2.008 -0.0202  0.0707  0.2093
 4999TIP3    H136412   3.749   4.527   2.076  2.7369  0.6182 -0.9633
 4999TIP3    H236413   3.735   4.540   1.926 -1.2386  0.9510 -0.6791
 5000TIP3   OH236414   3.206   3.322   2.742 -0.1124  0.4150 -0.0601
 5000TIP3    H136415   3.289   3.276   2.728  0.1094  0.5570  0.7582
 5000TIP3    H236416   3.155   3.305   2.662  1.1946  1.4176 -1.1565
 5001TIP3   OH236417   5.012   4.581   3.257 -0.6041  0.0941  0.1326
 5001TIP3    H136418   4.925   4.617   3.240 -1.0195 -1.3089 -0.9287
 5001TIP3    H236419   5.046   4.557   3.170  0.7493  0.3923  0.5455
 5002TIP3   OH236420   0.791   5.559   0.179 -0.2538 -0.1862 -0.5738
 5002TIP3    H136421   0.793   5.467   0.153 -1.0225 -0.5791  0.6495
 5002TIP3    H236422   0.710   5.567   0.230  0.6089  0.7798  0.6815
 5003TIP3   OH236423   4.807   0.508   5.350  0.2251  0.4053  0.0644
 5003TIP3    H136424   4.818   0.518   5.255  0.1367  0.6649  0.0817
 5003TIP3    H236425   4.724   0.461   5.359  1.3412 -1.7468 -0.0775
 5004TIP3   OH236426   0.337   5.653  14.386 -0.0377  0.2449 -0.2129
 5004TIP3    H136427   0.275   5.709  14.340  0.5602  1.4796  0.4359
 5004TIP3    H236428   0.334   5.683  14.477  0.8882 -0.2374 -0.0082
 5005TIP3   OH236429   6.795   0.983  11.013 -0.1270  0.2317 -0.5607
 5005TIP3    H136430   6.870   0.923  11.007  1.3527  1.7851  1.2345
 5005TIP3    H236431   6.762   0.971  11.102 -0.4463  1.3358 -0.5169
 5006TIP3   OH236432   6.594   6.441   1.166  0.1729 -0.5357 -0.0276
 5006TIP3    H136433   6.508   6.447   1.125  0.8749  0.5949 -1.4425
 5006TIP3    H236434   6.581   6.475   1.254 -0.8058 -0.2336 -0.2774
 5007TIP3   OH236435   4.869   4.211  11.386  0.2360 -0.5848 -0.5055
 5007TIP3    H136436   4.951   4.244  11.350  0.6447 -0.8621  0.1594
 5007TIP3    H236437   4.864   4.120  11.357 -0.5070 -0.1912 -1.6788
 5008TIP3   OH236438   5.323   5.194  12.141  0.4788  0.4786 -0.6064
 5008TIP3    H136439   5.316   5.144  12.059 -1.0327 -0.2295 -0.0613
 5008TIP3    H236440   5.270   5.272  12.126 -1.2706 -0.4808  0.2669
 5009TIP3   OH236441   0.334   1.818   5.374 -0.5959  0.5514  0.0738
 5009TIP3    H136442   0.412   1.828   5.428 -0.4510 -1.8611  0.4134
 5009TIP3    H236443   0.275   1.887   5.402 -0.3180 -0.2883  2.9854
 5010TIP3   OH236444   1.296   4.248   4.204  0.1828 -0.2843  0.3616
 5010TIP3    H136445   1.327   4.214   4.120  1.0489 -0.9231  0.9224
 5010TIP3    H236446   1.349   4.327   4.219 -0.2992  0.0973  0.0971
 5011TIP3   OH236447   0.538   3.894   4.138 -0.1906  0.3619 -0.1422
 5011TIP3    H136448   0.595   3.886   4.215 -2.0894 -2.1875  1.1246
 5011TIP3    H236449   0.542   3.808   4.096 -2.6398  0.2547 -0.3041
 5012TIP3   OH236450   1.163   2.586  15.079  0.1517  0.4177 -0.1501
 5012TIP3    H136451   1.194   2.676  15.085 -1.0145  0.9185 -1.0197
 5012TIP3    H236452   1.080   2.586  15.126  2.0546 -1.2970  3.6278
 5013TIP3   OH236453   5.363   4.649   0.479  0.0579 -0.0746 -0.3828
 5013TIP3    H136454   5.439   4.629   0.423 -0.0903  0.6720 -0.8615
 5013TIP3    H236455   5.394   4.631   0.567  0.7520  0.0628 -0.5879
 5014TIP3   OH236456   5.202   2.426   3.925  0.1205  0.4180  0.3425
 5014TIP3    H136457   5.177   2.343   3.884 -2.2204 -0.3756  3.0281
 5014TIP3    H236458   5.258   2.401   3.998  1.7885  1.5339 -0.4853
 5015TIP3   OH236459   0.067   6.378  12.066  1.4923 -0.4172 -0.4150
 5015TIP3    H136460   0.059   6.319  11.991  0.2763  1.5270 -1.9366
 5015TIP3    H236461   0.138   6.438  12.042 -0.1539  1.4202 -0.9913
 5016TIP3   OH236462   0.824   2.687  13.195 -0.5088 -0.2244 -0.1070
 5016TIP3    H136463   0.916   2.713  13.188 -0.9552  1.1397 -1.4382
 5016TIP3    H236464   0.824   2.615  13.258  1.4600 -0.2243 -0.0521
 5017TIP3   OH236465   2.308   5.778  16.166 -0.0446  0.0027  0.4460
 5017TIP3    H136466   2.324   5.684  16.174  1.1736  0.1974  0.4575
 5017TIP3    H236467   2.383   5.811  16.116 -0.4056  0.9909  0.5381
 5018TIP3   OH236468   4.489   3.398   1.134  0.1508  0.3786  0.2460
 5018TIP3    H136469   4.454   3.346   1.206  1.2805  0.7897  1.1321
 5018TIP3    H236470   4.457   3.487   1.150 -0.3273  0.3093 -0.2776
 5019TIP3   OH236471   2.226   2.650  13.262  0.1852  0.6335 -0.0117
 5019TIP3    H136472   2.202   2.687  13.347  2.4239  0.8333  0.6044
 5019TIP3    H236473   2.209   2.556  13.271  3.2402  0.0935  1.9108
 5020TIP3   OH236474   5.767   0.956   1.702  0.2764 -0.4672 -0.0575
 5020TIP3    H136475   5.795   0.867   1.724  1.6477 -0.6210 -2.1517
 5020TIP3    H236476   5.751   0.954   1.608 -0.4192  1.3325 -0.0188
 5021TIP3   OH236477   1.941   5.503   1.395  0.1271  0.4106  0.3474
 5021TIP3    H136478   1.978   5.463   1.473 -2.2381 -0.2896  1.1883
 5021TIP3    H236479   1.916   5.591   1.423 -0.0144  0.4267  0.1753
 5022TIP3   OH236480   6.229   3.678  16.787 -0.2982  0.1614  0.4299
 5022TIP3    H136481   6.195   3.752  16.838  1.7513 -0.1413  2.3655
 5022TIP3    H236482   6.233   3.605  16.849 -1.7217 -1.5029 -1.2938
 5023TIP3   OH236483   2.852   3.062   6.806  0.6772 -0.2272 -0.6118
 5023TIP3    H136484   2.770   3.057   6.756 -0.2410 -1.1234  0.8971
 5023TIP3    H236485   2.914   3.008   6.757 -0.5512 -2.1169 -0.1975
 5024TIP3   OH236486   2.053   3.995  13.666 -0.5523 -0.5416  0.6700
 5024TIP3    H136487   2.075   3.909  13.703  2.0607 -1.0047 -1.6730
 5024TIP3    H236488   2.104   4.057  13.718  0.8335 -0.8899 -0.2290
 5025TIP3   OH236489   0.083   2.179  11.175  0.0196 -0.1430  0.9159
 5025TIP3    H136490   0.028   2.118  11.125  0.9095 -0.2492  0.0460
 5025TIP3    H236491   0.048   2.266  11.152  1.3892 -0.0694 -1.1936
 5026TIP3   OH236492   6.556   6.025   2.505  0.5786  0.1735  0.1066
 5026TIP3    H136493   6.636   5.974   2.503  2.0164  2.2939  0.1130
 5026TIP3    H236494   6.520   6.010   2.592  1.5373  0.0003  0.4810
 5027TIP3   OH236495   4.328   0.260   3.785  0.8483  0.2511  0.1136
 5027TIP3    H136496   4.397   0.319   3.754 -0.6097  1.0551 -1.8400
 5027TIP3    H236497   4.273   0.245   3.708  0.4081 -2.6783  0.8757
 5028TIP3   OH236498   0.847   2.845  10.537 -0.1680 -0.3264 -0.6994
 5028TIP3    H136499   0.899   2.779  10.582  1.7401  1.8864  0.5728
 5028TIP3    H236500   0.783   2.874  10.601  0.1230  0.2517 -0.6704
 5029TIP3   OH236501   2.929   1.286   1.462  0.3458  0.4678 -0.1210
 5029TIP3    H136502   2.840   1.317   1.445 -0.4175 -1.3256  0.3732
 5029TIP3    H236503   2.985   1.343   1.410 -0.9582  2.4804  0.5740
 5030TIP3   OH236504   5.939   2.649  13.075  0.1877 -0.1443 -0.4601
 5030TIP3    H136505   5.913   2.684  13.160  2.3699 -1.8881  1.0387
 5030TIP3    H236506   5.868   2.675  13.016 -2.2108 -0.1954  2.1713
 5031TIP3   OH236507   2.171   3.740  13.746 -0.0173 -0.2697  0.0749
 5031TIP3    H136508   2.121   3.718  13.825 -1.8031  1.1531 -0.6061
 5031TIP3    H236509   2.244   3.793  13.778 -0.6051  0.1191  0.8032
 5032TIP3   OH236510   1.639   5.666   2.702 -0.1467  0.5162  0.4964
 5032TIP3    H136511   1.731   5.685   2.685  0.2630  0.0280  1.9796
 5032TIP3    H236512   1.612   5.733   2.765 -1.3226  1.7094 -1.1932
 5033TIP3   OH236513   3.252   4.471  11.564 -0.2649 -0.7348  0.4298
 5033TIP3    H136514   3.198   4.549  11.580  3.1819  1.9466  0.2276
 5033TIP3    H236515   3.277   4.477  11.472  2.5139 -0.2301  1.1235
 5034TIP3   OH236516   0.659   2.605   3.497  0.7923  0.3414 -0.0272
 5034TIP3    H136517   0.651   2.701   3.495  1.7165  0.4196 -1.5083
 5034TIP3    H236518   0.732   2.586   3.437  1.2191 -1.2388  0.9456
 5035TIP3   OH236519   6.014   1.652  12.478 -0.0192 -0.4406 -0.2075
 5035TIP3    H136520   6.026   1.564  12.443  1.1479 -0.5136  0.3493
 5035TIP3    H236521   6.050   1.710  12.411  1.3364 -0.5313  0.4036
 5036TIP3   OH236522   3.438   2.343  14.675  0.5792 -0.4836 -0.1759
 5036TIP3    H136523   3.435   2.407  14.746  2.1595 -0.8824  0.2804
 5036TIP3    H236524   3.361   2.287  14.690 -0.2180  0.6499  0.0328
 5037TIP3   OH236525   6.151   6.061   5.789  0.0531 -0.2043 -0.2824
 5037TIP3    H136526   6.150   6.009   5.870 -1.3993  1.0496  0.5834
 5037TIP3    H236527   6.239   6.098   5.785 -0.2350  0.7708  1.4798
 5038TIP3   OH236528   2.015   4.144   0.430  0.4027  0.6856 -0.6661
 5038TIP3    H136529   1.963   4.204   0.485  0.2929  0.0774 -0.1006
 5038TIP3    H236530   2.011   4.060   0.476 -1.5312 -0.4351 -2.6736
 5039TIP3   OH236531   4.557   6.126   3.233  0.3561  0.3225 -0.2774
 5039TIP3    H136532   4.564   6.105   3.140  0.3452 -0.1549 -0.1777
 5039TIP3    H236533   4.643   6.102   3.268 -0.4786 -2.0594  0.3068
 5040TIP3   OH236534   3.039   4.126   5.505  0.2288 -0.2637 -0.0100
 5040TIP3    H136535   3.053   4.050   5.449 -2.6773 -0.9347 -0.0030
 5040TIP3    H236536   3.016   4.196   5.445  1.5375  0.2755  0.0861
 5041TIP3   OH236537   2.239   4.786  13.306 -0.3367  0.6464 -0.2764
 5041TIP3    H136538   2.161   4.812  13.356  0.3693  0.9516  0.6910
 5041TIP3    H236539   2.259   4.697  13.337 -2.0498 -0.7064 -2.7227
 5042TIP3   OH236540   4.156   4.571   1.019  0.3098  0.3790 -0.3388
 5042TIP3    H136541   4.184   4.614   0.938 -2.5962  2.0658 -0.6055
 5042TIP3    H236542   4.101   4.498   0.989 -2.0716  1.9312 -0.0387
 5043TIP3   OH236543   2.301   3.316  16.084  0.1533 -0.4385  0.4806
 5043TIP3    H136544   2.224   3.363  16.051  1.0888 -0.0117 -1.1722
 5043TIP3    H236545   2.375   3.371  16.059  1.1401 -1.8063  0.3349
 5044TIP3   OH236546   1.006   1.305   3.535  0.4990  0.0821 -0.0753
 5044TIP3    H136547   0.933   1.296   3.474  0.9292 -0.3910 -0.5315
 5044TIP3    H236548   0.985   1.246   3.607 -1.0362  2.1760  1.2951
 5045TIP3   OH236549   0.106   4.389  16.063  0.1575 -0.1427  0.7031
 5045TIP3    H136550   0.130   4.457  16.126 -2.1375  1.1859  0.2530
 5045TIP3    H236551   0.172   4.396  15.994  0.7612  0.6694  1.3414
 5046TIP3   OH236552   0.542   0.706  15.231  0.3105  0.4431  0.1826
 5046TIP3    H136553   0.457   0.746  15.211  0.3448  1.1573  1.3593
 5046TIP3    H236554   0.596   0.779  15.260  1.3441 -0.0108 -0.5349
 5047TIP3   OH236555   6.618   2.842  12.270 -0.2483  0.4744  0.1273
 5047TIP3    H136556   6.645   2.911  12.208  2.8678 -0.3297  0.4003
 5047TIP3    H236557   6.550   2.794  12.224  0.5836  1.1038 -1.8849
 5048TIP3   OH236558   0.223   4.540  11.448  0.6315 -0.2849 -0.3789
 5048TIP3    H136559   0.237   4.535  11.542 -2.0875  1.3377  0.2058
 5048TIP3    H236560   0.273   4.466  11.413  1.5652 -1.0549  2.3145
 5049TIP3   OH236561   1.561   2.099  16.994 -0.1305 -0.3293 -1.0334
 5049TIP3    H136562   1.566   2.194  16.993  0.4570 -0.3561 -1.0069
 5049TIP3    H236563   1.479   2.078  16.949  0.0392  0.1638 -1.5816
 5050TIP3   OH236564   6.387   6.647   4.393  0.0564 -0.2017  0.0994
 5050TIP3    H136565   6.341   6.574   4.354 -1.6807  1.7645 -1.7884
 5050TIP3    H236566   6.473   6.612   4.415 -1.1860 -3.1635  0.7581
 5051TIP3   OH236567   5.725   1.217  15.385  0.0898 -0.0753  0.6333
 5051TIP3    H136568   5.763   1.304  15.387 -1.0859  0.6575 -2.5586
 5051TIP3    H236569   5.634   1.230  15.412  0.1056 -0.4547  0.8797
 5052TIP3   OH236570   4.191   2.454   4.969 -0.3458 -0.3370  0.1024
 5052TIP3    H136571   4.196   2.538   4.924 -0.8192 -0.6704 -0.5860
 5052TIP3    H236572   4.196   2.476   5.062 -1.8848  0.5707 -0.0060
 5053TIP3   OH236573   4.268   3.788   5.011 -0.0750 -0.9222 -0.7791
 5053TIP3    H136574   4.293   3.701   4.980  2.1253 -1.1262  1.2875
 5053TIP3    H236575   4.177   3.779   5.038 -0.0783 -2.3875 -1.2157
 5054TIP3   OH236576   1.583   2.139   0.789 -0.5115 -0.2522  0.1506
 5054TIP3    H136577   1.544   2.208   0.842 -0.7959 -0.4921  0.2623
 5054TIP3    H236578   1.536   2.143   0.706 -1.6621 -1.3357  0.7086
 5055TIP3   OH236579   6.764   1.707  16.595 -0.0583  0.1003 -0.6045
 5055TIP3    H136580   6.678   1.669  16.577  0.0165  0.6766 -2.3766
 5055TIP3    H236581   6.813   1.636  16.637 -1.8822  0.2781  2.1238
 5056TIP3   OH236582   4.913   0.008  12.142 -0.0827 -0.8681 -0.3351
 5056TIP3    H136583   4.886  -0.042  12.065 -0.5116  1.2964 -1.6788
 5056TIP3    H236584   4.896   0.099  12.118  1.3443 -0.0008  1.7057
 5057TIP3   OH236585   0.885   5.372  13.781 -0.3156 -0.3436  0.1404
 5057TIP3    H136586   0.838   5.363  13.864 -0.1859 -1.0656  0.1348
 5057TIP3    H236587   0.962   5.317  13.791 -0.9076 -1.3910 -0.9162
 5058TIP3   OH236588   5.413   5.823  11.161  0.3418 -0.7103 -0.1285
 5058TIP3    H136589   5.460   5.766  11.222 -0.6128 -1.0891  0.2870
 5058TIP3    H236590   5.460   5.814  11.079  2.7076  1.1522  0.9114
 5059TIP3   OH236591   0.994   1.990  16.026  0.5312  0.3415  0.4587
 5059TIP3    H136592   1.039   1.912  16.057  1.9718  1.1522  0.5147
 5059TIP3    H236593   0.923   1.957  15.972  0.4046 -1.0129  1.4204
 5060TIP3   OH236594   3.199   4.743  14.629  0.3305 -0.1995 -0.6747
 5060TIP3    H136595   3.199   4.749  14.534 -0.2837 -0.4821 -0.6971
 5060TIP3    H236596   3.267   4.804  14.657  1.4327 -1.0641 -1.3470
 5061TIP3   OH236597   5.386   1.484  12.116  0.3185  0.5454  0.4804
 5061TIP3    H136598   5.291   1.468  12.113  0.6416 -1.5149 -1.0104
 5061TIP3    H236599   5.416   1.436  12.193  0.2269  0.7653  0.6541
 5062TIP3   OH236600   3.179   4.749   2.794  0.0997 -0.3525 -0.3864
 5062TIP3    H136601   3.189   4.837   2.832 -0.9726 -0.5788  0.4437
 5062TIP3    H236602   3.251   4.743   2.731  1.9399  0.0738  1.5193
 5063TIP3   OH236603   6.197   3.094  16.432 -0.1228  0.2482  0.1626
 5063TIP3    H136604   6.266   3.044  16.475  0.6110  0.8442 -0.2849
 5063TIP3    H236605   6.195   3.060  16.343 -0.9715 -0.3185  0.3887
 5064TIP3   OH236606   6.578   1.740  10.583 -0.1120 -0.5849 -0.2196
 5064TIP3    H136607   6.666   1.749  10.549 -0.7065  0.8091 -1.4800
 5064TIP3    H236608   6.535   1.678  10.524 -0.3497 -0.2899 -0.3551
 5065TIP3   OH236609   0.584   1.816   2.713  0.1275 -0.1662  0.1280
 5065TIP3    H136610   0.652   1.877   2.742  0.2567 -0.1340 -0.2300
 5065TIP3    H236611   0.568   1.759   2.788  0.7285 -0.3325  0.1272
 5066TIP3   OH236612   1.136   1.034   3.090  0.5439  0.2219  0.2538
 5066TIP3    H136613   1.146   1.111   3.034 -1.0043 -0.7305 -1.4247
 5066TIP3    H236614   1.225   1.003   3.104  0.9979  0.7033 -1.3940
 5067TIP3   OH236615   0.029   5.587   2.836 -0.2614  0.3565 -0.5223
 5067TIP3    H136616  -0.049   5.597   2.781 -0.6903 -0.2855 -0.0431
 5067TIP3    H236617  -0.002   5.602   2.925  0.3463  0.9694 -0.4059
 5068TIP3   OH236618   2.020   5.769  16.170  0.1478  0.2889 -0.3858
 5068TIP3    H136619   2.114   5.781  16.158  0.6404 -1.4028  1.3229
 5068TIP3    H236620   1.999   5.690  16.121 -0.4171  0.7044 -0.8271
 5069TIP3   OH236621   5.587   6.217  12.062  0.3565 -0.5051 -0.5721
 5069TIP3    H136622   5.577   6.124  12.080  3.0230 -0.9875 -1.0883
 5069TIP3    H236623   5.630   6.221  11.977  0.3573  1.1832 -0.5325
 5070TIP3   OH236624   3.587   5.091   0.735  0.1980  0.0367  0.4438
 5070TIP3    H136625   3.494   5.074   0.746  0.0903 -0.2412 -0.7356
 5070TIP3    H236626   3.594   5.186   0.728 -0.1028  0.0066 -0.3109
 5071TIP3   OH236627   1.225   3.748  10.685  0.2768 -0.2330 -0.4595
 5071TIP3    H136628   1.283   3.824  10.691  1.1516 -0.7985 -1.4336
 5071TIP3    H236629   1.260   3.696  10.613  0.2115 -1.9814  0.6801
 5072TIP3   OH236630   4.448   3.448  14.706  0.2474 -1.0747 -0.2614
 5072TIP3    H136631   4.379   3.388  14.735 -0.2109 -1.5626 -2.2202
 5072TIP3    H236632   4.403   3.531  14.690 -0.4078 -1.9269 -3.5205
 5073TIP3   OH236633   6.476   4.022   4.657  0.0415 -0.1714 -0.0022
 5073TIP3    H136634   6.483   4.039   4.564  1.6377  0.2945  0.1740
 5073TIP3    H236635   6.556   3.975   4.679 -0.7388 -1.1157  0.9718
 5074TIP3   OH236636   2.439   6.606  16.271 -0.0675  0.0788 -0.2597
 5074TIP3    H136637   2.508   6.547  16.301  1.1791  1.4573 -0.2728
 5074TIP3    H236638   2.448   6.607  16.175  0.2243  0.6316 -0.2297
 5075TIP3   OH236639   5.640   3.560  12.944 -1.0792 -0.5449  0.6822
 5075TIP3    H136640   5.723   3.582  12.986 -0.8447 -0.0652 -0.0003
 5075TIP3    H236641   5.663   3.548  12.852 -1.8049 -0.1559  0.4428
 5076TIP3   OH236642   4.710   1.053   5.000 -0.3856  0.1988 -0.0580
 5076TIP3    H136643   4.727   1.055   5.094 -0.0661 -0.2783 -0.1031
 5076TIP3    H236644   4.752   1.131   4.966 -1.3749  0.9333  0.3315
 5077TIP3   OH236645   3.554   0.738  11.102  0.1160  0.0138 -0.0854
 5077TIP3    H136646   3.536   0.698  11.016  0.2915 -1.4852  0.5385
 5077TIP3    H236647   3.469   0.770  11.132 -0.3044 -1.1111 -0.0319
 5078TIP3   OH236648   1.650   6.280  11.238  0.4363  0.0487  1.0080
 5078TIP3    H136649   1.605   6.227  11.304  0.5344 -1.9988 -0.4681
 5078TIP3    H236650   1.580   6.309  11.180  0.7550 -2.5704 -0.8980
 5079TIP3   OH236651   3.846   0.663   2.087 -0.5239 -0.0974 -1.0339
 5079TIP3    H136652   3.769   0.692   2.038 -0.9257  0.7704  0.0379
 5079TIP3    H236653   3.809   0.620   2.165 -0.0235  2.2445  0.6054
 5080TIP3   OH236654   1.216   5.268   5.322  0.1413 -0.0297 -0.1485
 5080TIP3    H136655   1.224   5.186   5.273 -1.0613 -0.1239 -0.2013
 5080TIP3    H236656   1.126   5.297   5.307  0.7555  1.7002 -0.7513
 5081TIP3   OH236657   4.239   4.727  16.969 -0.1299  0.0258  0.2244
 5081TIP3    H136658   4.179   4.688  17.033  0.3206  0.7611  1.1288
 5081TIP3    H236659   4.199   4.812  16.949 -0.2621 -0.1962 -0.4787
 5082TIP3   OH236660   4.923   2.380   2.969 -0.0328 -0.0043 -0.0870
 5082TIP3    H136661   4.834   2.375   2.935 -0.5941  0.5670  1.2092
 5082TIP3    H236662   4.915   2.353   3.060  1.3333 -1.0317 -0.2429
 5083TIP3   OH236663   0.183   2.287  15.641 -0.2734 -0.3309 -0.1625
 5083TIP3    H136664   0.191   2.366  15.695  1.7337  0.8113 -2.0035
 5083TIP3    H236665   0.111   2.306  15.581  1.5915  1.0843 -2.0483
 5084TIP3   OH236666   4.220   2.171  11.291  0.7144 -0.3570  0.0748
 5084TIP3    H136667   4.255   2.218  11.367  0.7949  0.8736 -0.7070
 5084TIP3    H236668   4.168   2.235  11.244  1.3473 -0.8475 -1.3682
 5085TIP3   OH236669   0.781   5.799  10.197  0.2609  0.1580 -0.2932
 5085TIP3    H136670   0.867   5.831  10.172  0.8982 -2.8420 -2.5424
 5085TIP3    H236671   0.719   5.861  10.158  1.3511  1.7822  0.4905
 5086TIP3   OH236672   6.486   3.286   0.995 -0.4870  0.1321 -0.2813
 5086TIP3    H136673   6.474   3.380   0.982  0.7328  0.1746 -1.3330
 5086TIP3    H236674   6.487   3.249   0.906  2.3821 -0.3875 -0.1559
 5087TIP3   OH236675   3.264   0.707  16.751  0.4741  0.2111 -0.0012
 5087TIP3    H136676   3.210   0.630  16.732  1.5483 -0.9691  1.4516
 5087TIP3    H236677   3.204   0.780  16.750 -1.2168 -1.0607  1.7117
 5088TIP3   OH236678   6.593   5.535   2.745 -0.0188  0.3239 -0.2016
 5088TIP3    H136679   6.583   5.581   2.662  1.1870 -0.3821 -0.7568
 5088TIP3    H236680   6.589   5.443   2.722 -1.4706  0.1213  0.7803
 5089TIP3   OH236681   0.736   1.072  12.181  0.0065 -0.5126  0.6278
 5089TIP3    H136682   0.650   1.067  12.140 -0.6609  2.8561  1.2719
 5089TIP3    H236683   0.722   1.039  12.270 -1.9479  3.7887  2.2163
 5090TIP3   OH236684   6.638   5.356  12.664  0.0049  0.0828 -0.4914
 5090TIP3    H136685   6.696   5.355  12.588 -0.1096 -0.3372 -0.5777
 5090TIP3    H236686   6.560   5.309  12.635 -0.4177  0.7144 -0.4008
 5091TIP3   OH236687   5.597   2.639   5.128  0.3385 -0.3697 -0.1379
 5091TIP3    H136688   5.560   2.726   5.116 -0.6907 -0.5258  1.6782
 5091TIP3    H236689   5.653   2.627   5.051  1.8116  2.5190  0.3426
 5092TIP3   OH236690   1.116   5.241   2.864  0.0674 -0.2352 -0.8888
 5092TIP3    H136691   1.066   5.288   2.797  0.1900  0.5470 -0.4327
 5092TIP3    H236692   1.084   5.276   2.947 -0.2788 -1.3967 -0.5146
 5093TIP3   OH236693   3.214   0.694   0.029 -0.4356  0.0273  0.2665
 5093TIP3    H136694   3.271   0.730  -0.038  0.2942  1.2492  1.4933
 5093TIP3    H236695   3.270   0.635   0.079 -0.8342 -0.4715  0.1321
 5094TIP3   OH236696   2.166   5.536  11.895 -0.3648  0.8683 -0.3305
 5094TIP3    H136697   2.260   5.554  11.900 -0.5778  2.2946 -1.0868
 5094TIP3    H236698   2.144   5.504  11.983  0.6644  1.3375  0.1286
 5095TIP3   OH236699   2.163   0.457   5.608 -0.2308  0.3766  0.2548
 5095TIP3    H136700   2.254   0.447   5.635 -0.2517 -0.6155 -0.0106
 5095TIP3    H236701   2.141   0.373   5.567 -0.9040  1.0246 -0.7457
 5096TIP3   OH236702   5.393   1.267   6.238 -0.1210 -0.4340  0.0412
 5096TIP3    H136703   5.396   1.215   6.318  0.1433 -0.0265  0.2976
 5096TIP3    H236704   5.485   1.285   6.218 -0.1970 -0.3592 -0.2379
 5097TIP3   OH236705   0.186   1.660  10.655 -0.0112  0.0021  0.1327
 5097TIP3    H136706   0.280   1.645  10.651 -0.2353 -2.1995  1.3902
 5097TIP3    H236707   0.148   1.583  10.613 -1.2535 -0.3225  1.7545
 5098TIP3   OH236708   6.503   3.962   2.016 -0.9746 -0.1342 -0.1601
 5098TIP3    H136709   6.599   3.962   2.014 -0.9757  0.0235 -0.2316
 5098TIP3    H236710   6.479   3.870   2.012 -0.8309 -0.1620 -0.4305
 5099TIP3   OH236711   4.455   0.495  13.558  0.5592  0.1199  0.6188
 5099TIP3    H136712   4.518   0.548  13.607  2.3390 -1.7315  0.4412
 5099TIP3    H236713   4.437   0.420  13.614  0.4452 -0.6283 -0.3934
 5100TIP3   OH236714   2.147   2.758  13.879  0.3864  0.1700  0.4594
 5100TIP3    H136715   2.216   2.818  13.907  1.0559 -0.3596 -0.0529
 5100TIP3    H236716   2.096   2.808  13.815  0.2662  0.5727  0.8638
 5101TIP3   OH236717   5.537   6.369   1.428 -0.3931  0.0791 -0.2717
 5101TIP3    H136718   5.535   6.340   1.519  0.0048  0.5291 -0.1162
 5101TIP3    H236719   5.625   6.405   1.416 -0.4208 -0.0285 -0.8497
 5102TIP3   OH236720   5.370   4.219   5.726  0.4901 -0.0404 -0.0888
 5102TIP3    H136721   5.372   4.308   5.690  1.5283  1.5504  3.4385
 5102TIP3    H236722   5.308   4.224   5.799  2.0374 -1.6265  1.4345
 5103TIP3   OH236723   3.861   2.109  13.307  0.0794 -0.0298  0.9623
 5103TIP3    H136724   3.846   2.102  13.213  1.9910  0.7907  0.5475
 5103TIP3    H236725   3.780   2.147  13.342 -0.9044 -0.9918 -0.2319
 5104TIP3   OH236726   3.185   4.416  16.067  0.0592  0.2056 -0.1483
 5104TIP3    H136727   3.251   4.351  16.045 -0.1111  0.2631 -0.8414
 5104TIP3    H236728   3.105   4.365  16.080 -0.5926  0.4158 -2.7800
 5105TIP3   OH236729   0.446   3.889   5.736  0.1929  0.0265  0.0916
 5105TIP3    H136730   0.434   3.977   5.773 -1.4746  0.0149 -0.3615
 5105TIP3    H236731   0.445   3.831   5.811 -1.1434  0.1915  0.2261
 5106TIP3   OH236732   6.746   5.981   3.338 -0.1876 -0.2662 -0.3725
 5106TIP3    H136733   6.786   5.951   3.256 -1.3294 -1.0213 -0.6842
 5106TIP3    H236734   6.807   6.045   3.372  1.6841 -1.9187 -0.4116
 5107TIP3   OH236735   4.624   0.645  16.367 -0.1483 -0.0686 -0.0639
 5107TIP3    H136736   4.553   0.655  16.431 -1.5786 -1.1556 -1.3911
 5107TIP3    H236737   4.692   0.597  16.415  0.4836  2.4421  1.7466
 5108TIP3   OH236738   3.577   4.430  15.628 -0.1398 -0.6791 -0.1967
 5108TIP3    H136739   3.659   4.395  15.661  0.0543  0.9557  1.1727
 5108TIP3    H236740   3.533   4.467  15.705 -1.5754 -0.4097 -1.1000
 5109TIP3   OH236741   5.219   0.111  14.168 -0.1968  0.0632 -0.4146
 5109TIP3    H136742   5.279   0.121  14.242 -1.2395 -0.8749  0.6064
 5109TIP3    H236743   5.163   0.037  14.193 -0.8306 -0.0216 -1.9795
 5110TIP3   OH236744   6.058   4.683   1.570  0.0023  0.1578  0.6584
 5110TIP3    H136745   5.978   4.728   1.545 -0.6064  0.1855  2.4690
 5110TIP3    H236746   6.089   4.730   1.648  0.9535 -0.7556  0.8625
 5111TIP3   OH236747   3.649   5.910  15.086 -0.5805  0.5783 -1.1374
 5111TIP3    H136748   3.670   6.002  15.069  1.0473  0.2814 -0.8944
 5111TIP3    H236749   3.580   5.913  15.152 -1.0479  1.6144 -1.6433
 5112TIP3   OH236750   3.882   1.173   2.642 -0.3080  0.0460  0.8362
 5112TIP3    H136751   3.827   1.251   2.653  1.0079  1.3268 -1.0749
 5112TIP3    H236752   3.971   1.205   2.653  0.2172 -1.3713  0.8598
 5113TIP3   OH236753   2.466   6.361  13.974 -0.4491  0.1142  0.8394
 5113TIP3    H136754   2.543   6.402  13.934 -1.5557  0.2269 -1.3071
 5113TIP3    H236755   2.484   6.267  13.969  0.1972  0.1632  1.8125
 5114TIP3   OH236756   6.492   6.161  14.361  0.5300  0.1384 -0.1154
 5114TIP3    H136757   6.498   6.069  14.335 -1.2077  0.4914 -2.0510
 5114TIP3    H236758   6.399   6.181  14.356  0.9675  2.2282 -0.6175
 5115TIP3   OH236759   5.814   2.214   1.770 -0.2030  0.0947 -0.0633
 5115TIP3    H136760   5.899   2.200   1.729  0.0397  1.0138  0.1184
 5115TIP3    H236761   5.770   2.129   1.761  0.5405 -0.2541 -0.5800
 5116TIP3   OH236762   3.801   4.152  11.881 -0.4454  0.6829 -0.0089
 5116TIP3    H136763   3.845   4.070  11.904  0.0335  1.0784  0.5179
 5116TIP3    H236764   3.713   4.126  11.856 -0.3876  0.0321  0.4350
 5117TIP3   OH236765   1.782   1.847   2.549  0.6102 -0.0546  0.3507
 5117TIP3    H136766   1.750   1.793   2.477  1.8470  0.4457 -0.6053
 5117TIP3    H236767   1.732   1.818   2.626 -0.3586 -0.9518 -0.5976
 5118TIP3   OH236768   1.063   1.176  16.378  0.9593 -0.1864  0.0867
 5118TIP3    H136769   1.129   1.131  16.324  0.2258 -0.4778 -0.5895
 5118TIP3    H236770   1.103   1.181  16.465  2.1851  0.3145 -0.4767
 5119TIP3   OH236771   4.056   4.630  13.634 -0.2411  0.4117  0.0248
 5119TIP3    H136772   3.995   4.664  13.569  0.6164  1.7020 -0.1414
 5119TIP3    H236773   4.043   4.685  13.711  0.3350  0.3559  0.1693
 5120TIP3   OH236774   1.730   1.413   6.065  0.1865  0.0633  0.6473
 5120TIP3    H136775   1.812   1.446   6.027 -0.0179 -0.9795 -0.7965
 5120TIP3    H236776   1.679   1.492   6.084  0.5955  0.6616 -0.6381
 5121TIP3   OH236777   4.700   6.026   3.814 -0.0947  0.5356 -0.0350
 5121TIP3    H136778   4.699   6.082   3.892  0.8377 -0.7969  0.9727
 5121TIP3    H236779   4.608   6.018   3.789 -0.5519 -0.0273  1.6842
 5122TIP3   OH236780   3.987   3.400  16.755  0.0765 -0.1919  0.1623
 5122TIP3    H136781   3.956   3.345  16.827  0.9884 -1.0042 -0.0524
 5122TIP3    H236782   3.941   3.483  16.767  0.9064  0.0259  2.2523
 5123TIP3   OH236783   0.000   2.672   0.632  0.2361 -0.2081  0.3312
 5123TIP3    H136784   0.014   2.752   0.581  0.7633 -0.0713  0.6803
 5123TIP3    H236785  -0.076   2.691   0.686 -1.4479 -0.9797 -1.6380
 5124TIP3   OH236786   6.574   1.976  16.248 -0.6371  0.0427 -0.0114
 5124TIP3    H136787   6.646   2.012  16.300  1.8149 -2.3610 -1.4540
 5124TIP3    H236788   6.546   1.898  16.297 -1.3969  0.2273 -0.1318
 5125TIP3   OH236789   2.273   0.016   5.395 -0.3458 -0.0126  0.6637
 5125TIP3    H136790   2.235   0.026   5.483 -1.6670 -2.6700  0.5164
 5125TIP3    H236791   2.301  -0.075   5.392 -1.9382 -0.5158 -2.2236
 5126TIP3   OH236792   2.374   1.999   1.725  0.0771 -0.2669 -0.4821
 5126TIP3    H136793   2.304   2.059   1.748 -0.9486 -1.9025  0.8891
 5126TIP3    H236794   2.336   1.911   1.734  1.6763 -1.1754 -1.8276
 5127TIP3   OH236795   2.325   5.720  10.598  0.7224  0.0945  0.1053
 5127TIP3    H136796   2.403   5.768  10.570 -0.0367  1.1209 -0.2878
 5127TIP3    H236797   2.356   5.630  10.609  1.4008 -0.0658 -2.5348
 5128TIP3   OH236798   2.995   0.773   5.469  0.0379  0.0188 -0.5629
 5128TIP3    H136799   3.073   0.815   5.431 -0.8221  1.1980 -1.1054
 5128TIP3    H236800   2.948   0.845   5.512 -1.8572 -0.2148 -2.1076
 5129TIP3   OH236801   6.084   4.866  15.785  0.4041  0.2702 -0.0854
 5129TIP3    H136802   6.159   4.812  15.763 -0.0050 -1.1452  1.7480
 5129TIP3    H236803   6.041   4.820  15.857 -0.0270  2.9796  1.5555
 5130TIP3   OH236804   5.676   6.319   0.006  0.0738 -0.0643  0.1946
 5130TIP3    H136805   5.750   6.269   0.040  0.7262  1.9309  1.9403
 5130TIP3    H236806   5.707   6.355  -0.077  0.1038 -1.2835 -0.3493
 5131TIP3   OH236807   3.008   1.689  16.444  0.2729 -0.5699 -0.3217
 5131TIP3    H136808   2.981   1.773  16.408  2.8817  0.2274 -0.5942
 5131TIP3    H236809   3.013   1.704  16.539 -0.4028 -0.7975 -0.2411
 5132TIP3   OH236810   1.745   2.462   3.486 -0.3748 -0.2208 -0.1893
 5132TIP3    H136811   1.743   2.485   3.393 -0.9140  0.1456 -0.0941
 5132TIP3    H236812   1.826   2.499   3.519  1.6962 -3.3745 -1.2515
 5133TIP3   OH236813   1.981   3.576   5.919 -0.4969 -0.1988  0.2645
 5133TIP3    H136814   2.050   3.642   5.907 -0.7291  0.3445  1.7186
 5133TIP3    H236815   2.017   3.515   5.984  0.2120 -2.2709 -1.9288
 5134TIP3   OH236816   4.522   0.408   3.663  0.1408 -0.7098  0.0124
 5134TIP3    H136817   4.617   0.398   3.651  0.0218 -0.5055 -1.3759
 5134TIP3    H236818   4.493   0.454   3.583 -1.0111 -0.0247  0.7921
 5135TIP3   OH236819   0.150   5.231  12.681  0.0287  0.3107 -0.2200
 5135TIP3    H136820   0.155   5.262  12.591  0.8158  0.8069 -0.0094
 5135TIP3    H236821   0.236   5.192  12.698  0.6689  2.1555  1.0116
 5136TIP3   OH236822   0.472   1.015  14.017 -0.2790 -0.3555  0.4526
 5136TIP3    H136823   0.556   1.037  14.056  0.0811 -1.4177  0.3260
 5136TIP3    H236824   0.448   1.091  13.964  0.6873 -0.1180  0.3511
 5137TIP3   OH236825   4.993   3.119   1.028  0.0851 -0.2243 -0.4277
 5137TIP3    H136826   5.080   3.157   1.027  0.6227 -0.9890  3.1725
 5137TIP3    H236827   4.947   3.166   1.098 -2.0577 -0.5456 -1.5313
 5138TIP3   OH236828   5.033   1.723  16.964 -0.1054 -0.3669 -0.3810
 5138TIP3    H136829   5.043   1.776  16.885 -0.8758 -1.8537 -1.5466
 5138TIP3    H236830   5.121   1.718  17.001  0.5899 -0.8058 -1.9722
 5139TIP3   OH236831   6.403   6.384   4.652 -0.0358 -0.5564 -0.1986
 5139TIP3    H136832   6.332   6.444   4.675  1.1087  0.9819 -0.5277
 5139TIP3    H236833   6.416   6.331   4.730  0.4462  1.1895  0.9729
 5140TIP3   OH236834   3.897   1.803  11.363 -0.6082  0.4650 -0.1637
 5140TIP3    H136835   3.985   1.773  11.385 -0.4798  0.4919 -0.6285
 5140TIP3    H236836   3.842   1.726  11.371 -0.2492  0.0384 -1.5330
 5141TIP3   OH236837   4.917   2.605  15.540  0.0609  0.3802 -0.1297
 5141TIP3    H136838   4.924   2.700  15.527  1.8898  0.1188 -1.4076
 5141TIP3    H236839   4.909   2.595  15.635  0.1914  1.8006  0.0599
 5142TIP3   OH236840   6.745   0.509   0.247 -0.0538  0.0831  0.0397
 5142TIP3    H136841   6.726   0.520   0.340  1.0519  0.2166  0.2631
 5142TIP3    H236842   6.695   0.431   0.222  1.3295 -1.2847  1.2929
 5143TIP3   OH236843   1.912   6.247  11.107 -0.4180  0.1278 -0.4122
 5143TIP3    H136844   1.903   6.188  11.032  0.1908 -1.9083  1.0181
 5143TIP3    H236845   1.824   6.253  11.144 -0.2218 -1.2290  0.3450
 5144TIP3   OH236846   4.056   4.234  12.399  0.0240  0.6733 -0.2898
 5144TIP3    H136847   4.039   4.182  12.320  0.0288  1.9215 -1.1323
 5144TIP3    H236848   4.151   4.248  12.397  0.1325  0.0625  0.3587
 5145TIP3   OH236849   2.420   0.442  12.851 -0.1998 -0.3961 -0.5351
 5145TIP3    H136850   2.376   0.510  12.800 -0.5442 -0.9737 -1.0330
 5145TIP3    H236851   2.352   0.411  12.911 -0.3573 -0.9787 -0.9969
 5146TIP3   OH236852   5.255   2.167   2.697  0.2547  0.8910  0.3312
 5146TIP3    H136853   5.205   2.124   2.767  0.7833 -0.0543  0.1599
 5146TIP3    H236854   5.308   2.096   2.660 -0.8095  1.1223 -1.7775
 5147TIP3   OH236855   5.671   5.913   4.896 -0.3564  0.6422 -0.2066
 5147TIP3    H136856   5.599   5.864   4.935 -0.0992 -0.2433 -0.8304
 5147TIP3    H236857   5.707   5.964   4.969  1.0122 -2.0270  1.1254
 5148TIP3   OH236858   1.002   2.164  11.777  0.6004 -0.3118  0.6113
 5148TIP3    H136859   0.996   2.234  11.842  0.1479  0.1832  0.0479
 5148TIP3    H236860   1.094   2.138  11.778  0.8364  0.4933  0.6266
 5149TIP3   OH236861   6.010   2.551  16.621 -0.4794 -0.9883  0.3733
 5149TIP3    H136862   5.937   2.494  16.646 -0.5084 -0.5658  1.3181
 5149TIP3    H236863   6.080   2.528  16.682  0.3052 -1.6130 -0.7373
 5150TIP3   OH236864   1.985   1.528   6.009 -0.4444 -0.2697 -0.2189
 5150TIP3    H136865   1.997   1.511   5.915  0.5110  0.5073 -0.2513
 5150TIP3    H236866   2.065   1.572   6.035 -0.0815 -1.7277  1.2779
 5151TIP3   OH236867   3.154   5.373   1.132 -0.3908  0.0997 -0.4302
 5151TIP3    H136868   3.197   5.404   1.211 -1.0298 -1.6713  0.6629
 5151TIP3    H236869   3.225   5.344   1.076  0.2833  3.5283 -1.6371
 5152TIP3   OH236870   5.286   0.392  12.495 -0.1499 -0.3747 -0.4647
 5152TIP3    H136871   5.293   0.348  12.580  0.1185  0.4990 -0.0203
 5152TIP3    H236872   5.192   0.394  12.477 -0.3587  0.8862  0.6117
 5153TIP3   OH236873   0.031   0.063  15.440  0.4365 -0.0488  0.2254
 5153TIP3    H136874   0.069   0.042  15.526 -0.8766  0.2738  0.9152
 5153TIP3    H236875   0.020  -0.022  15.397  1.2834 -0.1984  0.2897
 5154TIP3   OH236876   2.473   6.055   5.617  0.0012 -0.1406  0.2455
 5154TIP3    H136877   2.526   6.086   5.543  0.7508 -1.5310  0.1484
 5154TIP3    H236878   2.528   5.988   5.658 -1.7835 -1.8568 -0.0209
 5155TIP3   OH236879   3.635   5.558   4.819 -0.3801 -0.3400  0.1277
 5155TIP3    H136880   3.711   5.591   4.868 -0.3074 -0.3484  0.0198
 5155TIP3    H236881   3.672   5.503   4.750 -0.5381 -1.3781  0.8472
 5156TIP3   OH236882   0.625   2.452   6.338 -0.3739 -0.6178 -0.3631
 5156TIP3    H136883   0.659   2.409   6.417  0.2124 -0.4210 -0.4975
 5156TIP3    H236884   0.530   2.440   6.343 -0.3740 -0.3569  0.5244
 5157TIP3   OH236885   1.117   4.958  14.670 -0.3338 -0.2597  0.1146
 5157TIP3    H136886   1.172   4.998  14.737 -0.4069 -0.6931  0.4368
 5157TIP3    H236887   1.137   5.007  14.590  2.1502 -1.7640 -0.2806
 5158TIP3   OH236888   5.567   1.342   3.595  0.0935  0.3930  0.2788
 5158TIP3    H136889   5.485   1.294   3.607 -0.0237 -0.4222 -2.8401
 5158TIP3    H236890   5.541   1.434   3.587 -1.0166 -0.0807 -3.3098
 5159TIP3   OH236891   2.816   2.966   3.111 -0.4748 -0.1354 -0.1787
 5159TIP3    H136892   2.742   2.910   3.087  0.4415 -0.3736 -2.6852
 5159TIP3    H236893   2.870   2.970   3.032  0.6190  2.5369  0.5998
 5160TIP3   OH236894   2.347   1.782  16.280  0.2920  0.2934  0.7198
 5160TIP3    H136895   2.415   1.770  16.214  0.7012  1.4807  0.8983
 5160TIP3    H236896   2.327   1.875  16.278 -0.1624  0.2416  1.8112
 5161TIP3   OH236897   0.161   6.740  12.132 -0.0893 -0.8934 -0.0782
 5161TIP3    H136898   0.130   6.812  12.077  0.6525 -0.4373  0.0812
 5161TIP3    H236899   0.122   6.757  12.218 -1.4467 -1.7418 -0.5001
 5162TIP3   OH236900   2.160   4.300  14.143  0.0207 -0.3311 -0.1586
 5162TIP3    H136901   2.176   4.366  14.075  1.4116 -0.0031  0.4721
 5162TIP3    H236902   2.247   4.274  14.173 -0.4717  1.6233  3.5087
 5163TIP3   OH236903   3.728   3.925   6.103 -0.5759  0.5437 -0.5391
 5163TIP3    H136904   3.808   3.977   6.113 -0.6882  0.7267 -0.5953
 5163TIP3    H236905   3.671   3.956   6.173 -0.0218 -0.6677  0.4965
 5164TIP3   OH236906   2.664   1.136  13.648  0.4959  0.3289  0.3898
 5164TIP3    H136907   2.678   1.155  13.741  2.0675  1.0415  0.0452
 5164TIP3    H236908   2.696   1.046  13.637 -0.5621 -0.1047  0.6914
 5165TIP3   OH236909   4.162   4.353   5.616  0.2262 -0.1639 -0.3421
 5165TIP3    H136910   4.075   4.377   5.584 -0.4987  0.2455  1.7518
 5165TIP3    H236911   4.222   4.386   5.549 -1.1341  1.2898 -0.9186
 5166TIP3   OH236912   2.410   2.618   4.950 -0.3604 -0.0930 -0.4976
 5166TIP3    H136913   2.406   2.564   4.871 -1.2262  0.9193 -1.1745
 5166TIP3    H236914   2.488   2.673   4.937 -0.6790  0.2933 -0.8114
 5167TIP3   OH236915   2.186   4.991   4.713 -0.0479  0.0584 -0.4897
 5167TIP3    H136916   2.228   5.006   4.629  0.0287  0.0350 -0.4556
 5167TIP3    H236917   2.231   5.050   4.773 -0.3711  0.3660 -0.5481
 5168TIP3   OH236918   6.171   0.882   0.098  0.4708 -0.2109  0.0408
 5168TIP3    H136919   6.104   0.950   0.096 -0.8533 -1.4551 -0.1302
 5168TIP3    H236920   6.155   0.830   0.019  0.5744 -1.4898  0.8250
 5169TIP3   OH236921   5.795   4.168   4.440  0.2277 -0.0851  0.1621
 5169TIP3    H136922   5.823   4.258   4.457  3.0076 -0.6727 -0.8160
 5169TIP3    H236923   5.797   4.126   4.526 -0.0913  0.5211  0.4730
 5170TIP3   OH236924   6.354   4.000   5.452  0.0570 -0.1463  0.3731
 5170TIP3    H136925   6.358   3.935   5.523 -1.0974 -0.9857 -0.3010
 5170TIP3    H236926   6.342   4.084   5.497  2.7596 -0.1762  1.3237
 5171TIP3   OH236927   1.639   5.313   0.092  0.1989 -0.0064 -0.0206
 5171TIP3    H136928   1.657   5.232   0.139  1.4586  0.9887  1.3165
 5171TIP3    H236929   1.702   5.313   0.020  1.9467  0.9134  1.4503
 5172TIP3   OH236930   0.625   1.543  14.914  0.5193  0.4008  0.0364
 5172TIP3    H136931   0.643   1.505  14.828  0.4382 -0.7935  0.5223
 5172TIP3    H236932   0.541   1.504  14.940  1.2354 -0.3909  1.2627
 5173TIP3   OH236933   5.993   6.534   4.093  0.2530  0.0049 -0.0856
 5173TIP3    H136934   5.966   6.538   4.185  0.2190  0.1707 -0.1010
 5173TIP3    H236935   5.929   6.477   4.052  1.4295 -1.7466  0.3849
 5174TIP3   OH236936   5.756   3.597  11.669  0.2657  0.2708  0.0360
 5174TIP3    H136937   5.709   3.626  11.591  2.2600  0.7751 -1.0480
 5174TIP3    H236938   5.714   3.644  11.741 -2.4491 -1.1640 -0.4854
 5175TIP3   OH236939   0.344   0.028  11.474  0.3920  0.3327  0.0424
 5175TIP3    H136940   0.347   0.088  11.399 -1.9595 -1.5118 -1.6861
 5175TIP3    H236941   0.371  -0.056  11.438 -1.6781 -0.8085  0.9756
 5176TIP3   OH236942   3.568   3.667  14.230  0.3223 -0.0223  0.4937
 5176TIP3    H136943   3.597   3.707  14.148 -2.4636 -1.6587 -1.4899
 5176TIP3    H236944   3.522   3.737  14.276  0.7954  0.5923  0.0423
 5177TIP3   OH236945   2.676   1.768  13.090  0.0738 -0.0562 -0.4661
 5177TIP3    H136946   2.591   1.728  13.074  0.0967 -0.4667  0.3855
 5177TIP3    H236947   2.674   1.849  13.039 -0.6559 -0.2701 -0.7925
 5178TIP3   OH236948   3.093   6.344  11.430  0.0223  0.3145  0.2510
 5178TIP3    H136949   3.098   6.437  11.407  0.3967  0.7590  2.0013
 5178TIP3    H236950   3.005   6.333  11.465  0.2113  0.1811  0.6925
 5179TIP3   OH236951   3.828   6.198   1.820  0.0477  0.3249 -0.3713
 5179TIP3    H136952   3.796   6.171   1.906  0.2173 -1.5471 -0.8444
 5179TIP3    H236953   3.902   6.139   1.803 -0.7066 -0.1494 -2.2641
 5180TIP3   OH236954   4.994   3.889  12.546  0.0193 -0.1952 -0.1459
 5180TIP3    H136955   5.057   3.957  12.523 -1.8067  1.8649  0.5036
 5180TIP3    H236956   5.000   3.884  12.642 -0.0840 -0.7209 -0.1689
 5181TIP3   OH236957   4.144   5.347   1.668  0.1834  0.5484 -0.0390
 5181TIP3    H136958   4.096   5.399   1.732 -0.3302 -0.5322  0.4782
 5181TIP3    H236959   4.221   5.400   1.648 -1.3041  2.4295 -1.0906
 5182TIP3   OH236960   3.055   2.613   3.061  0.6388  0.0548 -0.0591
 5182TIP3    H136961   3.078   2.700   3.094  1.7902 -0.3563  0.2519
 5182TIP3    H236962   3.023   2.566   3.138  0.5104  0.0378 -0.1231
 5183TIP3   OH236963   2.368   6.062  15.542 -0.0425  0.5779 -0.2665
 5183TIP3    H136964   2.428   6.125  15.502  0.0945 -0.0796 -1.1222
 5183TIP3    H236965   2.417   6.027  15.617  0.8350 -0.2481 -1.1848
 5184TIP3   OH236966   2.840   3.181   3.271 -0.0200 -0.3515  0.6355
 5184TIP3    H136967   2.826   3.111   3.207 -0.8221  1.4889 -1.3259
 5184TIP3    H236968   2.828   3.262   3.221  1.8639  1.2416  2.5582
 5185TIP3   OH236969   1.407   3.570   1.830  0.3232 -0.5167  0.0606
 5185TIP3    H136970   1.444   3.635   1.771 -1.6159  1.2144  0.6377
 5185TIP3    H236971   1.331   3.535   1.784  1.2329 -2.3267 -0.1719
 5186TIP3   OH236972   4.508   3.628   4.797  0.7022  0.1137 -0.9354
 5186TIP3    H136973   4.514   3.617   4.702 -0.4102 -0.6173 -0.9323
 5186TIP3    H236974   4.504   3.539   4.832 -2.5942  0.3241 -0.4894
 5187TIP3   OH236975   4.895   5.884   2.935 -1.0930 -0.0149 -0.7753
 5187TIP3    H136976   4.890   5.790   2.920 -1.2770 -0.1004 -0.1747
 5187TIP3    H236977   4.982   5.909   2.903 -1.7220 -0.0551 -2.7082
 5188TIP3   OH236978   0.363   0.067  12.722  0.3112  0.0217  0.3373
 5188TIP3    H136979   0.424  -0.007  12.726 -3.3425 -3.4743 -0.9730
 5188TIP3    H236980   0.355   0.085  12.628 -0.9790  0.0614  0.4429
 5189TIP3   OH236981   5.015   2.526   1.142 -0.2007  0.3392 -0.0440
 5189TIP3    H136982   4.984   2.578   1.216 -0.3671  0.5422 -0.2549
 5189TIP3    H236983   4.995   2.579   1.065 -0.2802  0.0073 -0.2559
 5190TIP3   OH236984   4.347   5.419   3.114 -0.3767  0.3157  0.1185
 5190TIP3    H136985   4.287   5.361   3.066  0.1426 -1.2349  1.2958
 5190TIP3    H236986   4.428   5.416   3.064 -0.6351  0.8312 -0.3548
 5191TIP3   OH236987   6.639   6.347  10.649  0.2406 -0.0478  0.0837
 5191TIP3    H136988   6.601   6.324  10.565 -1.4006  1.2885  0.4094
 5191TIP3    H236989   6.635   6.443  10.653  1.0943 -0.0277  1.3238
 5192TIP3   OH236990   5.135   0.129   0.961  0.4552  0.3871  0.5342
 5192TIP3    H136991   5.048   0.147   0.998 -1.0921 -0.1277 -2.5431
 5192TIP3    H236992   5.159   0.043   0.996 -0.4036  0.3954  1.1725
 5193TIP3   OH236993   4.757   6.009  15.501  0.0581  0.2253 -0.1392
 5193TIP3    H136994   4.706   6.043  15.574  1.5806 -0.0249  1.1031
 5193TIP3    H236995   4.822   6.077  15.482  1.7457 -0.9914  0.9492
 5194TIP3   OH236996   5.310   4.039  14.272  0.2151  0.1034 -0.5290
 5194TIP3    H136997   5.268   4.095  14.207 -2.2241  0.7890  1.4579
 5194TIP3    H236998   5.284   3.950  14.249 -1.1460  0.3979 -0.1911
 5195TIP3   OH236999   6.442   0.966   5.535  0.2769 -0.8002 -0.1780
 5195TIP3    H137000   6.478   1.004   5.456 -0.1983 -2.2691 -1.1459
 5195TIP3    H237001   6.348   0.984   5.529  0.5984  2.5664  2.0739
 5196TIP3   OH237002   5.550   6.147   5.226  0.1700  0.7767 -0.1922
 5196TIP3    H137003   5.616   6.083   5.252 -0.4609 -0.2371 -1.0338
 5196TIP3    H237004   5.572   6.169   5.136  0.7287  2.2269  0.2596
 5197TIP3   OH237005   3.349   4.966   6.619 -0.3585  0.1786  0.2060
 5197TIP3    H137006   3.333   5.030   6.550  0.9136  0.7891  0.4336
 5197TIP3    H237007   3.392   4.893   6.575  0.1044  0.4024  0.2801
 5198TIP3   OH237008   5.334   4.790   5.903 -0.1796  0.3400 -0.2180
 5198TIP3    H137009   5.402   4.768   5.967  0.0479  0.9120 -0.2552
 5198TIP3    H237010   5.253   4.757   5.941 -0.3090  2.1195  1.1582
 5199TIP3   OH237011   1.019   5.015   2.304  0.2664  0.7815 -0.0881
 5199TIP3    H137012   1.081   5.005   2.232 -1.4318  1.5889 -1.7470
 5199TIP3    H237013   0.957   5.081   2.273 -2.2853 -1.0376  0.8427
 5200TIP3   OH237014   6.337   1.623  15.284 -0.0809  0.0657  0.2822
 5200TIP3    H137015   6.312   1.548  15.338  1.9561  0.8260  2.4358
 5200TIP3    H237016   6.417   1.657  15.324  1.1782  1.1876 -2.8084
 5201TIP3   OH237017   1.341   6.319   4.817 -0.1034  0.1556 -0.2928
 5201TIP3    H137018   1.407   6.304   4.884  0.4978 -1.0446 -1.1026
 5201TIP3    H237019   1.344   6.413   4.800 -0.4360  0.5272  1.4947
 5202TIP3   OH237020   5.261   4.883   0.037  0.0348 -0.3528 -0.5000
 5202TIP3    H137021   5.351   4.864   0.011  1.1112  1.3264  1.6735
 5202TIP3    H237022   5.218   4.797   0.039  1.2623 -1.0897 -2.4748
 5203TIP3   OH237023   4.686   1.985   1.755  0.4389 -0.2522  0.2705
 5203TIP3    H137024   4.692   1.892   1.733  0.1461 -0.8046  2.3092
 5203TIP3    H237025   4.776   2.014   1.763  0.5319 -0.4842  0.0828
 5204TIP3   OH237026   5.750   1.881   0.525 -0.2516  0.3441 -0.2280
 5204TIP3    H137027   5.742   1.848   0.615 -0.3450  2.5498  0.6256
 5204TIP3    H237028   5.826   1.835   0.490 -0.4223 -0.8195  0.8477
 5205TIP3   OH237029   5.026   1.369  15.292 -0.3209 -0.1041  0.6154
 5205TIP3    H137030   5.004   1.414  15.211 -2.8209  1.7421  2.1948
 5205TIP3    H237031   5.044   1.439  15.355  1.2505 -1.4683  1.8075
 5206TIP3   OH237032   4.144   4.575  12.025 -0.6850 -0.1314 -0.4170
 5206TIP3    H137033   4.149   4.520  11.946 -1.3062 -2.4589  1.0527
 5206TIP3    H237034   4.050   4.591  12.035 -0.4453  2.4669 -1.5491
 5207TIP3   OH237035   6.079   2.775  16.909  0.2028 -0.8213  0.5376
 5207TIP3    H137036   6.041   2.786  16.821 -0.7099 -1.0304  0.8895
 5207TIP3    H237037   6.022   2.710  16.951 -0.0457  0.0891  1.6552
 5208TIP3   OH237038   5.702   5.496  14.134  0.2829 -0.1534  0.2885
 5208TIP3    H137039   5.632   5.431  14.144 -0.9398  1.2180  0.9658
 5208TIP3    H237040   5.701   5.545  14.216  1.3423  0.5743 -0.1157
 5209TIP3   OH237041   5.115   6.622   6.362  0.5091 -0.0890  0.0428
 5209TIP3    H137042   5.115   6.543   6.308  2.0801  1.2244 -2.0680
 5209TIP3    H237043   5.024   6.652   6.361  0.0465 -1.4443  0.2489
 5210TIP3   OH237044   3.922   6.422   6.364 -0.3981 -0.0923  0.3096
 5210TIP3    H137045   3.890   6.363   6.294 -1.4885  0.9866 -0.1402
 5210TIP3    H237046   4.005   6.456   6.330 -0.1269 -0.7873  0.2497
 5211TIP3   OH237047   2.073   1.957  13.214 -0.6517  0.0455  0.2928
 5211TIP3    H137048   1.995   2.014  13.215 -1.3261 -0.8457 -0.4848
 5211TIP3    H237049   2.039   1.870  13.234  0.2264 -0.2774  0.4176
 5212TIP3   OH237050   1.903   5.249  14.327  1.0554 -0.1701 -0.2814
 5212TIP3    H137051   1.969   5.275  14.391 -0.8367 -0.2459  1.8360
 5212TIP3    H237052   1.900   5.153  14.333  0.1468 -0.1159  0.3369
 5213TIP3   OH237053   2.701   3.667  12.880  0.0085 -0.5505 -0.3037
 5213TIP3    H137054   2.713   3.577  12.849  0.0015 -0.5853 -0.2046
 5213TIP3    H237055   2.699   3.659  12.975 -1.0179 -0.5715 -0.3164
 5214TIP3   OH237056   5.338   3.893  16.720 -0.5127  0.7763  0.1006
 5214TIP3    H137057   5.291   3.835  16.780 -0.9498 -0.1494 -1.0958
 5214TIP3    H237058   5.271   3.924  16.659 -0.0993  1.8038  0.1437
 5215TIP3   OH237059   5.385   5.686  13.734 -0.1435 -0.3891 -0.1595
 5215TIP3    H137060   5.341   5.640  13.806 -0.7783  0.1159 -0.2178
 5215TIP3    H237061   5.389   5.621  13.664  1.1134 -1.1093  0.5527
 5216TIP3   OH237062   3.758   0.951   4.015 -0.4325 -0.3728  0.1277
 5216TIP3    H137063   3.755   1.046   4.004 -1.1406 -0.3443  0.5394
 5216TIP3    H237064   3.718   0.917   3.936 -1.2079 -0.2931  0.4784
 5217TIP3   OH237065   3.258   2.115   1.296  0.0596  0.5345 -0.6111
 5217TIP3    H137066   3.334   2.139   1.242 -0.2349 -0.5290 -1.5383
 5217TIP3    H237067   3.291   2.046   1.354  0.0863  0.8847 -0.2062
 5218TIP3   OH237068   0.426   4.485   1.440  0.2063 -0.1210  0.0220
 5218TIP3    H137069   0.482   4.526   1.375  0.4869 -1.6416 -0.7394
 5218TIP3    H237070   0.447   4.529   1.522  0.4161  1.2849 -0.7630
 5219TIP3   OH237071   5.803   0.896  11.500 -0.1284  0.2576  0.4915
 5219TIP3    H137072   5.879   0.868  11.449  0.1158  0.6877  0.6113
 5219TIP3    H237073   5.832   0.893  11.591 -0.4496 -0.1621  0.5856
 5220TIP3   OH237074   5.038   4.269   0.030  0.2527 -0.0856 -0.5563
 5220TIP3    H137075   5.093   4.197   0.000 -0.6102 -0.3330 -1.6422
 5220TIP3    H237076   5.072   4.346  -0.016  0.9217  0.1402  0.2953
 5221TIP3   OH237077   2.146   4.272   5.111 -0.0113 -0.3332 -0.1413
 5221TIP3    H137078   2.123   4.242   5.023  1.4833 -0.9995 -0.3254
 5221TIP3    H237079   2.103   4.210   5.170 -1.8799  0.7046 -0.3201
 5222TIP3   OH237080   2.600   4.748   4.396 -0.9651 -0.1390 -0.3143
 5222TIP3    H137081   2.582   4.701   4.477  2.1764  0.6969  1.0360
 5222TIP3    H237082   2.620   4.679   4.332 -0.5785 -0.7612  0.4640
 5223TIP3   OH237083   4.607   5.941   0.318  0.3184  0.1182 -0.6091
 5223TIP3    H137084   4.622   6.033   0.295 -0.3344  0.7227  1.2022
 5223TIP3    H237085   4.688   5.913   0.359  0.0094  0.3702  0.2011
 5224TIP3   OH237086   3.567   1.626  12.366  0.4137 -0.0113  0.4286
 5224TIP3    H137087   3.643   1.671  12.403  0.5742 -0.3451  0.5093
 5224TIP3    H237088   3.533   1.686  12.300  0.5726  0.2663  0.5983
 5225TIP3   OH237089   2.711   1.523   0.370  0.0891  0.2917  0.5141
 5225TIP3    H137090   2.683   1.608   0.402  0.0123 -0.5214  2.7447
 5225TIP3    H237091   2.638   1.464   0.389  0.4011 -0.4181 -0.3814
 5226TIP3   OH237092   4.194   1.653  16.309  0.7666 -0.1380 -0.1224
 5226TIP3    H137093   4.286   1.646  16.332  0.3046  0.2040  2.1039
 5226TIP3    H237094   4.152   1.685  16.389 -1.4580 -1.4605 -0.6674
 5227TIP3   OH237095   4.115   3.236   5.376  0.0708  0.1118  0.2536
 5227TIP3    H137096   4.162   3.186   5.442 -1.1649  0.6988  1.6262
 5227TIP3    H237097   4.057   3.172   5.334 -0.4132  0.0830  0.9584
 5228TIP3   OH237098   0.649   0.746   4.777 -0.1553  0.5582 -0.2229
 5228TIP3    H137099   0.631   0.783   4.690  0.4156  0.4161 -0.4074
 5228TIP3    H237100   0.744   0.731   4.777 -0.0611  1.1171  0.6517
 5229TIP3   OH237101   2.433   0.678  11.702 -0.4522 -0.2034 -0.5356
 5229TIP3    H137102   2.425   0.748  11.638  0.9950 -0.1787 -0.7240
 5229TIP3    H237103   2.492   0.713  11.769 -1.1256 -0.6037  0.2939
 5230TIP3   OH237104   2.303   6.165   1.784  0.1635  0.6067 -0.2718
 5230TIP3    H137105   2.364   6.097   1.756  0.2273  0.1538  0.9205
 5230TIP3    H237106   2.288   6.218   1.705 -0.5291 -1.2681 -1.4699
 5231TIP3   OH237107   6.812   3.496   2.171  0.3301 -0.1271  0.2924
 5231TIP3    H137108   6.859   3.537   2.244  0.4865  0.0351  0.1042
 5231TIP3    H237109   6.827   3.402   2.183  0.5477 -0.0873  0.3399
 5232TIP3   OH237110   1.051   0.144   1.520  0.2957 -0.5591  0.0482
 5232TIP3    H137111   1.039   0.057   1.558 -2.1539  0.8395  2.8569
 5232TIP3    H237112   0.973   0.158   1.466  0.5945 -0.0004 -0.2487
 5233TIP3   OH237113   4.334   6.429   0.059  0.1279 -0.1246 -0.5018
 5233TIP3    H137114   4.425   6.405   0.077  1.2777  1.8092 -3.0942
 5233TIP3    H237115   4.287   6.346   0.055  1.2570 -1.0915  2.8769
 5234TIP3   OH237116   3.754   6.464  12.165  0.2503 -0.0625 -0.0932
 5234TIP3    H137117   3.702   6.505  12.235  0.4166  2.0180 -1.1102
 5234TIP3    H237118   3.742   6.522  12.090 -1.2524 -3.0887 -2.3769
 5235TIP3   OH237119   2.516   2.309   6.727 -0.2706 -0.0791 -0.4423
 5235TIP3    H137120   2.426   2.333   6.706 -0.0421 -0.2145 -1.6162
 5235TIP3    H237121   2.561   2.392   6.741 -0.2358  0.0614 -1.3294
 5236TIP3   OH237122   4.701   6.430   3.946 -0.2680  0.4747 -0.5444
 5236TIP3    H137123   4.730   6.345   3.978 -0.4910  0.9340  0.9903
 5236TIP3    H237124   4.733   6.435   3.856 -1.2787 -1.7134 -1.0779
 5237TIP3   OH237125   4.951   2.872  15.494  0.0643  0.0819  0.1258
 5237TIP3    H137126   4.909   2.903  15.574  1.3547 -0.5674  1.0808
 5237TIP3    H237127   5.040   2.906  15.498  0.6521 -1.3575 -0.1858
 5238TIP3   OH237128   0.834   6.349  13.823 -0.4022 -0.0990  0.0592
 5238TIP3    H137129   0.780   6.312  13.753 -0.3645 -1.1907  0.5888
 5238TIP3    H237130   0.804   6.306  13.903  0.8518 -0.3145  0.4473
 5239TIP3   OH237131   6.076   6.198  13.467  0.3842  0.0841  0.4063
 5239TIP3    H137132   6.095   6.166  13.379 -1.4391 -0.0069  0.0035
 5239TIP3    H237133   6.161   6.224  13.502  1.3726 -1.4133 -0.7572
 5240TIP3   OH237134   6.452   3.892  16.536 -0.5838  0.0160  0.4263
 5240TIP3    H137135   6.412   3.963  16.486 -1.0249 -1.8508 -2.1183
 5240TIP3    H237136   6.377   3.841  16.568 -0.3731 -1.4816 -1.2781
 5241TIP3   OH237137   4.585   1.141   4.469 -0.0174 -0.2292 -0.1257
 5241TIP3    H137138   4.565   1.053   4.502  1.8908 -1.3898 -1.8160
 5241TIP3    H237139   4.547   1.142   4.380 -0.8024  1.0220  0.2013
 5242TIP3   OH237140   3.782   1.788  10.934  0.8101  0.3097  0.1916
 5242TIP3    H137141   3.761   1.732  10.860 -0.0057 -1.0093  1.3584
 5242TIP3    H237142   3.792   1.728  11.008  3.8908  1.3167  0.7683
 5243TIP3   OH237143   3.532   2.152  11.845 -0.6026 -0.6336 -0.3378
 5243TIP3    H137144   3.594   2.199  11.901 -0.2462 -1.2713 -0.1895
 5243TIP3    H237145   3.482   2.221  11.802  1.5968  0.0128 -2.0894
 5244TIP3   OH237146   3.995   0.862   3.741 -0.0666 -0.0022 -0.0568
 5244TIP3    H137147   4.012   0.956   3.738  1.6859 -0.3211 -2.3786
 5244TIP3    H237148   4.010   0.838   3.833  0.0367  1.8424  0.4499
 5245TIP3   OH237149   6.400   0.622   0.834  0.0706 -0.3153 -0.5693
 5245TIP3    H137150   6.482   0.640   0.880 -0.8146 -0.4521  1.1421
 5245TIP3    H237151   6.407   0.531   0.805  0.6155 -0.2435 -0.6600
 5246TIP3   OH237152   1.073   4.086  13.373 -0.1543 -0.1706 -0.5507
 5246TIP3    H137153   1.093   4.155  13.437 -1.7849 -0.8970  0.8281
 5246TIP3    H237154   1.151   4.031  13.373  0.2524  0.3858  0.1101
 5247TIP3   OH237155   2.265   3.670  11.641 -0.3223 -0.4743  0.4670
 5247TIP3    H137156   2.241   3.707  11.726 -0.7832  0.1907  0.0573
 5247TIP3    H237157   2.270   3.746  11.582  1.5835 -0.7371  0.2442
 5248TIP3   OH237158   1.990   0.740   4.979  0.7219 -0.4430 -0.2148
 5248TIP3    H137159   2.013   0.648   4.990  0.2173 -0.4438  0.9434
 5248TIP3    H237160   2.071   0.788   4.998  1.2946 -0.6651 -1.9219
 5249TIP3   OH237161   1.869   2.749  10.789 -0.1257 -0.0582 -0.5040
 5249TIP3    H137162   1.933   2.726  10.856 -0.1875  1.0167 -0.0678
 5249TIP3    H237163   1.914   2.730  10.706  0.6025  0.2683 -0.1922
 5250TIP3   OH237164   0.249   5.736   0.648  0.3410 -0.2704 -0.1734
 5250TIP3    H137165   0.328   5.702   0.606 -0.3657 -1.0342 -0.9061
 5250TIP3    H237166   0.199   5.659   0.674 -1.0968  0.1702 -1.4994
 5251TIP3   OH237167   3.428   6.682  13.006  0.0068  0.2688  0.0605
 5251TIP3    H137168   3.397   6.717  13.089 -1.3054 -2.5698  0.9112
 5251TIP3    H237169   3.454   6.592  13.026 -1.5852 -0.9558 -2.7936
 5252TIP3   OH237170   5.644   2.354  13.595 -0.1291 -0.0607 -0.1840
 5252TIP3    H137171   5.625   2.376  13.686 -1.8471 -0.9982 -0.2964
 5252TIP3    H237172   5.648   2.259  13.593 -0.9103 -0.0841 -1.2344
 5253TIP3   OH237173   6.700   4.128   1.204  0.1479  0.4586 -0.3250
 5253TIP3    H137174   6.616   4.145   1.247 -0.7978 -0.4666 -1.7278
 5253TIP3    H237175   6.679   4.068   1.133  1.4894  2.5616 -2.6483
 5254TIP3   OH237176   5.784   4.832   3.619 -0.1255 -0.3099  0.5131
 5254TIP3    H137177   5.720   4.850   3.550  1.0013  0.6529 -0.3220
 5254TIP3    H237178   5.742   4.767   3.675 -1.1445 -0.9807 -0.9819
 5255TIP3   OH237179   5.860   2.924   4.620  0.4879  0.0412 -0.5687
 5255TIP3    H137180   5.768   2.921   4.644  0.2089  0.3979 -1.5399
 5255TIP3    H237181   5.897   2.997   4.670 -0.0046  0.5686 -0.9646
 5256TIP3   OH237182   4.535   3.785   4.143 -0.1569 -0.4363  0.8557
 5256TIP3    H137183   4.629   3.801   4.142 -0.3131  0.6304 -0.8308
 5256TIP3    H237184   4.525   3.703   4.192  1.6109 -0.4783  1.2181
 5257TIP3   OH237185   3.977   3.671  14.526 -0.2106  0.2363 -0.2813
 5257TIP3    H137186   3.953   3.623  14.447  1.8892 -1.5811  0.0766
 5257TIP3    H237187   4.052   3.725  14.499 -0.4453  0.7688  0.1182
 5258TIP3   OH237188   5.175   6.655   2.658  0.3737  0.0436  0.1581
 5258TIP3    H137189   5.180   6.583   2.721  1.1822 -0.9154 -0.9564
 5258TIP3    H237190   5.225   6.726   2.698  1.0664 -0.6275  0.5053
 5259TIP3   OH237191   0.224   0.591  13.389  0.6367 -0.5187 -0.0196
 5259TIP3    H137192   0.183   0.572  13.304  1.4247  0.2615 -0.5875
 5259TIP3    H237193   0.232   0.686  13.391  0.9077 -0.5526  0.8008
 5260TIP3   OH237194   5.930   4.984   2.482  0.2605  0.0556  0.4066
 5260TIP3    H137195   5.911   4.941   2.565 -1.3694 -0.8547 -0.3936
 5260TIP3    H237196   5.984   5.059   2.506  1.7843 -1.4529  2.0404
 5261TIP3   OH237197   1.464   0.319  12.782  0.1243 -0.5978 -0.1769
 5261TIP3    H137198   1.423   0.249  12.732  0.5256 -1.5547  0.7870
 5261TIP3    H237199   1.406   0.394  12.770 -1.4557 -1.6527  0.4113
 5262TIP3   OH237200   3.775   3.184  11.039  0.8172 -0.3608  0.4339
 5262TIP3    H137201   3.679   3.186  11.041  0.8331  0.9293  1.1487
 5262TIP3    H237202   3.800   3.153  11.126  1.0671 -1.8847 -0.1441
 5263TIP3   OH237203   6.439   5.573   3.221  0.8356 -0.4817  0.0497
 5263TIP3    H137204   6.521   5.592   3.266  1.7470 -0.5332 -1.4924
 5263TIP3    H237205   6.464   5.564   3.129 -1.0496  0.5768 -0.6329
 5264TIP3   OH237206   2.090   5.478  12.184 -0.1023 -0.4786  0.6255
 5264TIP3    H137207   2.131   5.422  12.249 -0.0014  0.2623  1.2168
 5264TIP3    H237208   1.997   5.455  12.187 -0.2662  0.2695  1.7905
 5265TIP3   OH237209   3.701   5.169   4.258  0.3790  0.1013  0.0980
 5265TIP3    H137210   3.644   5.109   4.307  0.7925 -0.9230 -0.6444
 5265TIP3    H237211   3.783   5.169   4.308  1.2547 -1.9519 -1.1954
 5266TIP3   OH237212   4.622   4.513   1.791 -0.6966 -0.4929  0.2898
 5266TIP3    H137213   4.616   4.572   1.865 -2.3211  0.3735 -0.4755
 5266TIP3    H237214   4.648   4.569   1.717 -2.3054 -0.6709 -0.4518
 5267TIP3   OH237215   4.929   3.431  14.162 -0.2508 -0.0541 -0.5249
 5267TIP3    H137216   4.874   3.353  14.166  1.5670 -1.6010 -3.0299
 5267TIP3    H237217   4.867   3.503  14.154 -1.9552 -1.3651  0.0933
 5268TIP3   OH237218   3.049   2.085   0.312  0.0277  0.1154  0.1266
 5268TIP3    H137219   3.069   2.084   0.219 -0.5920 -0.3618 -0.0040
 5268TIP3    H237220   2.980   2.020   0.323  0.7791 -0.5536  1.0747
 5269TIP3   OH237221   6.088   1.926  13.681 -0.1418  0.0000 -0.3254
 5269TIP3    H137222   6.066   1.852  13.738 -1.6666 -0.1149 -1.0202
 5269TIP3    H237223   6.042   1.907  13.598  0.6465  0.9983 -1.0148
 5270TIP3   OH237224   5.777   2.997   3.773  0.4761 -0.5763 -0.5083
 5270TIP3    H137225   5.828   2.959   3.844  1.1692 -1.0000 -1.2104
 5270TIP3    H237226   5.754   2.922   3.717 -0.2504 -0.2803 -0.6198
 5271TIP3   OH237227   4.217   2.813  11.211  0.6100  0.0027  0.2408
 5271TIP3    H137228   4.261   2.803  11.127 -0.0462 -0.8137 -0.0203
 5271TIP3    H237229   4.143   2.752  11.207  0.5740 -0.0584  1.4064
 5272TIP3   OH237230   3.533   1.384  16.008 -0.3531 -0.5072 -0.3043
 5272TIP3    H137231   3.490   1.453  15.958  0.3052 -0.6549 -1.0879
 5272TIP3    H237232   3.460   1.334  16.046 -0.8379  0.2810 -0.1848
 5273TIP3   OH237233   4.663   4.209  14.923  0.1458  0.0525 -0.2820
 5273TIP3    H137234   4.659   4.275  14.992  0.2298 -0.7531  0.5051
 5273TIP3    H237235   4.675   4.126  14.969 -0.1695 -0.5459 -1.2452
 5274TIP3   OH237236   4.444   5.527  14.837  0.2036 -0.1663 -0.0165
 5274TIP3    H137237   4.425   5.516  14.930 -0.4920 -0.0565 -0.1405
 5274TIP3    H237238   4.478   5.442  14.809 -1.4900 -0.8546 -0.1030
 5275TIP3   OH237239   1.927   2.437  16.883 -0.1486 -0.3540  0.1192
 5275TIP3    H137240   1.957   2.349  16.860 -0.1122  0.1478 -1.9616
 5275TIP3    H237241   1.983   2.496  16.832 -1.9363  0.7527 -0.7135
 5276TIP3   OH237242   5.299   0.151  17.085 -0.6166  0.4951 -0.0664
 5276TIP3    H137243   5.326   0.083  17.024 -2.3755 -3.8978  3.4913
 5276TIP3    H237244   5.209   0.172  17.060 -1.2710 -1.1658  0.7498
 5277TIP3   OH237245   3.676   4.621   5.572 -0.4442  0.1590 -0.1337
 5277TIP3    H137246   3.663   4.610   5.666 -1.9260  0.4709 -0.2816
 5277TIP3    H237247   3.617   4.558   5.532 -0.1869  0.3688 -0.8632
 5278TIP3   OH237248   2.911   3.696  12.028 -0.4884 -0.0078  0.3664
 5278TIP3    H137249   2.905   3.700  12.124  0.1817 -0.3745  0.4318
 5278TIP3    H237250   2.884   3.607  12.006  0.4752 -0.3000  0.3215
 5279TIP3   OH237251   4.004   0.791  16.347 -0.0158 -0.4840  0.2928
 5279TIP3    H137252   3.913   0.769  16.365 -0.3745  0.4144 -0.3380
 5279TIP3    H237253   4.000   0.876  16.302  1.1980  0.1844  1.3666
 5280TIP3   OH237254   3.494   1.980  16.541 -0.4911 -0.0480 -0.0530
 5280TIP3    H137255   3.544   1.902  16.567  2.5223  0.9836 -2.1585
 5280TIP3    H237256   3.405   1.947  16.524 -0.2869 -2.2700  2.5245
 5281TIP3   OH237257   5.357   0.268   2.644  0.4259 -0.0386 -0.3548
 5281TIP3    H137258   5.309   0.345   2.677  1.0780 -0.4524  1.7247
 5281TIP3    H237259   5.449   0.288   2.662  0.7146 -0.8189 -0.9161
 5282TIP3   OH237260   4.475   4.830   0.104 -0.1242 -0.3874 -0.0850
 5282TIP3    H137261   4.390   4.789   0.123 -1.2503  2.6994  2.4874
 5282TIP3    H237262   4.515   4.842   0.190  3.3070 -2.1706 -1.2484
 5283TIP3   OH237263   4.900   4.061  16.332 -0.0661 -0.3375  0.7124
 5283TIP3    H137264   4.811   4.028  16.319  0.0822 -0.3211 -0.4277
 5283TIP3    H237265   4.889   4.153  16.355 -0.3136 -0.1509 -0.1528
 5284TIP3   OH237266   0.965   3.696  12.156  0.3687 -0.5260 -0.3415
 5284TIP3    H137267   0.892   3.645  12.119 -1.4386  1.3963  0.3944
 5284TIP3    H237268   0.979   3.767  12.094  0.5023  0.0343  0.3148
 5285TIP3   OH237269   5.677   4.844   5.973 -0.2848  0.0914  0.4416
 5285TIP3    H137270   5.713   4.878   6.055 -1.1709  1.2367  0.3939
 5285TIP3    H237271   5.617   4.774   6.001 -1.0689  0.8969  0.8612
 5286TIP3   OH237272   3.105   3.733   4.612 -0.0430 -0.1386  0.0809
 5286TIP3    H137273   3.126   3.719   4.520  0.4944 -1.9361  0.4431
 5286TIP3    H237274   3.129   3.824   4.629 -0.1517  0.2176 -1.5419
 5287TIP3   OH237275   3.566   0.764   1.960 -0.6381  0.2070 -0.2240
 5287TIP3    H137276   3.590   0.838   2.016 -0.8925  0.2316 -0.1445
 5287TIP3    H237277   3.558   0.803   1.872  2.4594 -0.3141 -0.8487
 5288TIP3   OH237278   2.880   5.850   3.426 -0.2012  0.3574 -0.5356
 5288TIP3    H137279   2.951   5.791   3.399 -0.9661 -0.8548  0.0169
 5288TIP3    H237280   2.916   5.900   3.499 -0.3580 -1.3584  0.7954
 5289TIP3   OH237281   5.079   0.133   0.400  0.3769  0.2188  0.2476
 5289TIP3    H137282   5.129   0.196   0.452 -0.5179  1.3638 -0.2318
 5289TIP3    H237283   5.024   0.187   0.343 -0.4236 -1.0060 -0.1843
 5290TIP3   OH237284   2.461   4.457   1.628 -0.3289 -0.3590  0.0806
 5290TIP3    H137285   2.449   4.424   1.539 -0.6468 -1.7543  0.6252
 5290TIP3    H237286   2.378   4.500   1.649 -0.1377  0.2629 -0.3993
 5291TIP3   OH237287   3.321   6.159   2.602  0.1555  0.0288  0.3544
 5291TIP3    H137288   3.393   6.209   2.641  0.2300  0.9844 -0.9633
 5291TIP3    H237289   3.354   6.131   2.517 -0.8342 -0.0103 -0.0254
 5292TIP3   OH237290   1.043   5.191   1.314  0.1086 -0.0859  0.3871
 5292TIP3    H137291   1.126   5.176   1.360  0.6569 -1.2420 -0.9256
 5292TIP3    H237292   1.066   5.251   1.243 -0.3336  0.1524  0.4438
 5293TIP3   OH237293   1.961   5.327  14.045  0.2823  0.3569 -0.2011
 5293TIP3    H137294   1.880   5.276  14.040 -0.0291  0.8520 -0.2446
 5293TIP3    H237295   1.974   5.342  14.138  1.1633 -1.0318 -0.0615
 5294TIP3   OH237296   0.212   6.584   4.019 -0.2614 -0.0079 -0.4902
 5294TIP3    H137297   0.155   6.519   4.060 -1.2950  0.9280 -0.3715
 5294TIP3    H237298   0.290   6.586   4.075 -0.9546  0.0738  0.5115
 5295TIP3   OH237299   4.571   0.053  14.304  0.2744 -0.2031  0.1531
 5295TIP3    H137300   4.570  -0.042  14.295 -0.7122 -0.1531 -0.3659
 5295TIP3    H237301   4.641   0.071  14.368  0.5541 -1.2559  0.1511
 5296TIP3   OH237302   2.127   4.299  11.401  0.4959 -0.3179 -0.2598
 5296TIP3    H137303   2.186   4.363  11.441  0.5589  0.4362 -1.5190
 5296TIP3    H237304   2.180   4.221  11.389  0.0500 -1.2091  2.6433
 5297TIP3   OH237305   5.114   3.142  12.388 -0.2073 -0.0739 -0.2298
 5297TIP3    H137306   5.164   3.098  12.320 -0.0224  1.7181 -1.3363
 5297TIP3    H237307   5.023   3.131  12.363 -0.1060  2.7591 -2.3721
 5298TIP3   OH237308   6.752   6.660  10.423 -0.2207  0.1515  0.1452
 5298TIP3    H137309   6.706   6.580  10.449  0.7274 -0.5031 -0.1189
 5298TIP3    H237310   6.829   6.628  10.376 -0.1968  1.2459 -0.5868
 5299TIP3   OH237311   0.046   6.115  16.016 -0.4762 -0.4644  0.6293
 5299TIP3    H137312   0.027   6.060  15.939 -1.4930  0.0659  0.4863
 5299TIP3    H237313   0.033   6.204  15.985  3.4747  0.1424  0.1570
 5300TIP3   OH237314   1.306   2.360  14.950  0.3555 -0.5344 -0.4121
 5300TIP3    H137315   1.334   2.429  14.889 -1.6871 -0.4444 -1.3161
 5300TIP3    H237316   1.250   2.405  15.013  0.3473 -1.0916 -0.0131
 5301TIP3   OH237317   3.633   3.009   5.199  0.1312  0.4889  0.2134
 5301TIP3    H137318   3.627   3.092   5.152 -0.4043  0.5763  0.4387
 5301TIP3    H237319   3.584   3.023   5.280  1.1138  0.3681  0.8475
 5302TIP3   OH237320   4.807   6.085   1.872  0.7997  0.4741 -0.6362
 5302TIP3    H137321   4.902   6.088   1.869  0.9066 -1.8019 -0.8508
 5302TIP3    H237322   4.787   6.013   1.931 -0.8132  1.1059 -0.3578
 5303TIP3   OH237323   1.855   1.240  15.562  0.0548  0.3927  0.1771
 5303TIP3    H137324   1.794   1.305  15.527 -0.0500  0.5224  0.5951
 5303TIP3    H237325   1.799   1.168  15.592  0.1530  0.2234 -0.0375
 5304TIP3   OH237326   3.450   4.560   2.866 -0.1436  0.4939 -0.8518
 5304TIP3    H137327   3.516   4.575   2.934  0.6228  1.4276 -1.7774
 5304TIP3    H237328   3.468   4.626   2.800  0.0850 -1.3244 -2.6961
 5305TIP3   OH237329   3.448   1.199   2.906  0.2372  0.2372 -0.6190
 5305TIP3    H137330   3.478   1.115   2.873 -0.3319 -0.3228  0.2607
 5305TIP3    H237331   3.363   1.213   2.862  0.2691  0.2949 -0.6633
 5306TIP3   OH237332   0.965   5.650  11.843 -0.3165  0.2187 -0.0482
 5306TIP3    H137333   0.963   5.738  11.806  1.0284  0.2231 -0.1817
 5306TIP3    H237334   0.996   5.594  11.772  0.1918 -0.1264  0.4318
 5307TIP3   OH237335   3.499   3.667  13.547  0.0196  0.1202  0.1968
 5307TIP3    H137336   3.431   3.614  13.589  0.8506  0.1131  1.5846
 5307TIP3    H237337   3.523   3.732  13.613  1.9995 -0.4573  0.1117
 5308TIP3   OH237338   4.379   0.046  12.985  0.1683 -0.2364 -0.0465
 5308TIP3    H137339   4.358   0.133  13.018  0.1149  0.4413 -1.7373
 5308TIP3    H237340   4.315  -0.011  13.027 -0.5646  0.7295  0.2010
 5309TIP3   OH237341   3.079   0.307   0.630  0.0628 -0.2291  0.4494
 5309TIP3    H137342   3.031   0.298   0.712 -2.5741  0.7436 -0.8740
 5309TIP3    H237343   3.145   0.375   0.649 -0.6092  0.1079  1.7033
 5310TIP3   OH237344   1.433   1.411   3.530 -0.4383  0.1850  0.2144
 5310TIP3    H137345   1.396   1.477   3.471  1.1828  0.1813 -0.8432
 5310TIP3    H237346   1.409   1.442   3.618  0.3013  2.2223 -0.2440
 5311TIP3   OH237347   3.244   3.585  16.017 -0.2291  0.0495  0.5440
 5311TIP3    H137348   3.292   3.610  15.938  0.1370 -0.3367  0.6375
 5311TIP3    H237349   3.308   3.593  16.087 -0.3510 -0.3113  0.6960
 5312TIP3   OH237350   0.472   3.978  14.872 -0.0149 -0.4167 -0.4172
 5312TIP3    H137351   0.485   3.888  14.901 -0.3779 -0.4814 -0.4585
 5312TIP3    H237352   0.466   3.972  14.777  1.3459 -0.1850 -0.5345
 5313TIP3   OH237353   6.371   4.226   5.607 -0.2614  0.1215  0.0673
 5313TIP3    H137354   6.387   4.218   5.701  1.0656  0.7542 -0.0776
 5313TIP3    H237355   6.281   4.255   5.600 -0.1318  0.8362  1.1909
 5314TIP3   OH237356   5.440   4.268   6.210  0.0594  1.0283 -0.2236
 5314TIP3    H137357   5.446   4.325   6.287 -0.6448  0.9676 -0.1124
 5314TIP3    H237358   5.358   4.219   6.223  2.3863 -2.8180  1.6035
 5315TIP3   OH237359   4.863   3.037   2.048 -0.8643 -0.3655  0.9286
 5315TIP3    H137360   4.905   2.978   1.986 -0.7387  0.7422 -0.0765
 5315TIP3    H237361   4.810   3.095   1.994 -0.6519  0.7158  1.8374
 5316TIP3   OH237362   3.840   1.530  11.049  0.7173 -0.9530 -0.1119
 5316TIP3    H137363   3.899   1.507  10.978  2.0208  1.7841 -0.0530
 5316TIP3    H237364   3.885   1.500  11.128  0.2508 -2.1315 -0.2752
 5317TIP3   OH237365   4.513   5.512   4.061 -0.2781 -0.6132 -0.3960
 5317TIP3    H137366   4.568   5.567   4.117  0.1207 -0.2386 -1.1394
 5317TIP3    H237367   4.573   5.450   4.021 -0.5489 -0.8383 -0.4516
 5318TIP3   OH237368   6.187   4.760  10.680 -0.4477  0.4771  0.7162
 5318TIP3    H137369   6.231   4.777  10.597  0.3821 -1.1522  0.7819
 5318TIP3    H237370   6.098   4.791  10.667  0.1641  2.0184 -0.1073
 5319TIP3   OH237371   3.198   5.763   0.667 -0.1430 -0.1543 -0.0895
 5319TIP3    H137372   3.183   5.853   0.696  1.7221  0.4107 -0.7653
 5319TIP3    H237373   3.284   5.764   0.626 -0.1772 -2.2078 -0.3485
 5320TIP3   OH237374   2.833   6.316   1.923 -0.3693  0.8027 -0.9287
 5320TIP3    H137375   2.746   6.329   1.885 -1.2402 -0.0172  0.6426
 5320TIP3    H237376   2.829   6.361   2.008  0.9512  1.2407 -1.0821
 5321TIP3   OH237377   5.562   5.281  11.247 -0.1337 -0.2758 -0.1399
 5321TIP3    H137378   5.479   5.327  11.234 -0.3193 -0.4886  0.2813
 5321TIP3    H237379   5.555   5.203  11.192 -0.2635 -0.3529 -0.0168
 5322TIP3   OH237380   3.465   6.704   0.123  0.0756 -0.3704  0.3528
 5322TIP3    H137381   3.504   6.734   0.205 -2.4733 -1.6099  2.1191
 5322TIP3    H237382   3.382   6.751   0.117 -0.1644 -0.9359 -1.1154
 5323TIP3   OH237383   1.853   1.714   0.272 -0.3728  0.0890  0.1183
 5323TIP3    H137384   1.848   1.637   0.217  0.1787  1.5911 -2.1681
 5323TIP3    H237385   1.780   1.769   0.242  0.4320  1.2884  0.3044
 5324TIP3   OH237386   4.769   1.685  11.564 -0.0575  0.1586  0.2951
 5324TIP3    H137387   4.722   1.611  11.603  2.3828 -1.3600  0.5211
 5324TIP3    H237388   4.777   1.748  11.635 -0.3224 -0.2583  0.6999
 5325TIP3   OH237389   5.166   0.418  13.261  0.1867 -0.2781 -0.1647
 5325TIP3    H137390   5.129   0.504  13.279 -0.7949 -0.7628  0.2012
 5325TIP3    H237391   5.202   0.426  13.172  2.1795  1.1684  0.6970
 5326TIP3   OH237392   4.818   3.503  16.159  0.3368 -0.7431 -0.4154
 5326TIP3    H137393   4.743   3.550  16.121  1.4295  1.3258 -0.1818
 5326TIP3    H237394   4.891   3.523  16.101  1.6814  1.1303  1.7335
 5327TIP3   OH237395   1.885   6.236   5.255 -0.0684  0.1863 -0.2575
 5327TIP3    H137396   1.850   6.148   5.251  0.8804 -0.2354  0.3140
 5327TIP3    H237397   1.966   6.232   5.204  0.9029  0.2545  1.2339
 5328TIP3   OH237398   5.756   6.132   4.165  0.6005 -0.6006 -0.3083
 5328TIP3    H137399   5.700   6.136   4.243 -0.2542  1.0772 -0.9648
 5328TIP3    H237400   5.695   6.118   4.092  1.3157 -1.3634 -0.7820
 5329TIP3   OH237401   3.800   4.190   3.071  0.7685  0.4591  0.2785
 5329TIP3    H137402   3.882   4.230   3.039  1.3559  0.0615  1.2519
 5329TIP3    H237403   3.734   4.258   3.058  1.0382  0.4485 -1.4226
 5330TIP3   OH237404   1.429   3.065  15.034  0.0226 -0.1033 -0.0339
 5330TIP3    H137405   1.446   3.064  14.939  0.7221  1.2271  0.0636
 5330TIP3    H237406   1.369   3.138  15.046  0.8876  0.4925  0.7049
 5331TIP3   OH237407   6.078   0.365  14.063  0.0313  0.1334  0.4762
 5331TIP3    H137408   6.157   0.403  14.023 -0.6108  0.9905 -0.0158
 5331TIP3    H237409   6.008   0.384  14.001 -0.5590 -0.7158  0.8543
 5332TIP3   OH237410   2.385   1.742   3.367  0.2671 -0.4127  0.1408
 5332TIP3    H137411   2.297   1.717   3.341  0.7138  0.5845 -2.6134
 5332TIP3    H237412   2.382   1.743   3.463 -2.4524 -1.1970  0.1430
 5333TIP3   OH237413   0.221   3.289  14.180  0.0239 -0.1798  0.3358
 5333TIP3    H137414   0.180   3.337  14.253 -0.1689  1.7432 -0.9569
 5333TIP3    H237415   0.219   3.351  14.107 -0.8056 -2.4326 -1.6564
 5334TIP3   OH237416   3.554   6.745  12.278 -0.3576  0.2198  0.0147
 5334TIP3    H137417   3.473   6.769  12.323 -0.2827 -0.2817  0.4288
 5334TIP3    H237418   3.605   6.700  12.345  1.4181  2.8514  0.5572
 5335TIP3   OH237419   4.892   5.774   5.967  0.1488  0.1053 -0.3278
 5335TIP3    H137420   4.960   5.830   6.006  1.0801 -0.4877 -1.0615
 5335TIP3    H237421   4.859   5.722   6.040  0.3546  0.5189  0.0677
 5336TIP3   OH237422   6.526   5.952   1.635  0.6080  0.1789  0.1452
 5336TIP3    H137423   6.504   5.965   1.542  0.7736  0.6454  0.1679
 5336TIP3    H237424   6.442   5.944   1.679  0.5111  0.5929  0.0408
 5337TIP3   OH237425   4.826   5.537  15.377  0.1974  0.3462  0.1316
 5337TIP3    H137426   4.756   5.585  15.421  0.1411 -0.1768  0.6264
 5337TIP3    H237427   4.840   5.585  15.295 -1.6481 -0.2651 -0.6089
 5338TIP3   OH237428   1.300   3.458   5.955 -0.1544  0.3475 -0.0607
 5338TIP3    H137429   1.335   3.372   5.979 -0.3532  0.9837  2.9523
 5338TIP3    H237430   1.212   3.441   5.923 -0.0813 -0.6088  0.2232
 5339TIP3   OH237431   1.359   2.583  16.690  0.1945 -0.3576 -0.0704
 5339TIP3    H137432   1.350   2.678  16.688  0.5632 -0.3274 -0.6210
 5339TIP3    H237433   1.306   2.555  16.764  1.1654  0.3972  0.9444
 5340TIP3   OH237434   3.429   5.761  13.049 -0.5591 -0.5009  0.0406
 5340TIP3    H137435   3.338   5.730  13.040 -0.4221 -1.0746  0.5733
 5340TIP3    H237436   3.457   5.778  12.959 -1.3350  0.1034 -0.0953
 5341TIP3   OH237437   6.798   6.368  12.659 -0.1845  0.2895 -0.4755
 5341TIP3    H137438   6.856   6.377  12.734  0.1445 -0.0083 -0.6892
 5341TIP3    H237439   6.760   6.281  12.668 -0.8485  0.6028 -0.1644
 5342TIP3   OH237440   4.949   4.990  16.740 -0.1835  0.7262 -0.1375
 5342TIP3    H137441   4.994   4.969  16.821 -0.2540 -0.0887 -0.2951
 5342TIP3    H237442   4.926   4.904  16.703  1.2694  0.9978 -1.8086
 5343TIP3   OH237443   2.636   4.291  16.287 -0.3556 -0.1166  0.2021
 5343TIP3    H137444   2.625   4.316  16.379 -3.4141  0.8796 -0.3115
 5343TIP3    H237445   2.551   4.254  16.262 -0.6490  2.2560 -2.9305
 5344TIP3   OH237446   6.451   5.856  11.013  0.3796  0.1542  0.0708
 5344TIP3    H137447   6.478   5.897  10.931  0.3545 -1.1733 -0.6316
 5344TIP3    H237448   6.471   5.763  11.001 -0.3285 -0.1775  1.2750
 5345TIP3   OH237449   3.220   0.554  12.429 -0.2478 -0.2882  0.2442
 5345TIP3    H137450   3.134   0.557  12.389 -0.1819 -0.7977  0.0529
 5345TIP3    H237451   3.281   0.557  12.355 -0.0818  0.7170  0.4081
 5346TIP3   OH237452   5.183   0.489   2.723 -0.4008 -0.1350 -0.1005
 5346TIP3    H137453   5.237   0.519   2.796 -1.7573 -0.3624  1.0418
 5346TIP3    H237454   5.115   0.556   2.714 -0.3019 -0.1556 -1.1097
 5347TIP3   OH237455   4.082   1.432   3.951 -0.1662 -0.0967 -0.1467
 5347TIP3    H137456   4.158   1.473   3.909  1.1465 -1.9037  0.3240
 5347TIP3    H237457   4.085   1.341   3.922 -2.1277 -0.2378 -0.0188
 5348TIP3   OH237458   1.504   2.638   4.591 -0.2236 -0.3253  0.6869
 5348TIP3    H137459   1.521   2.554   4.634  2.7513 -0.9827 -1.4768
 5348TIP3    H237460   1.536   2.627   4.502 -0.7158  2.8140 -0.0189
 5349TIP3   OH237461   4.340   4.664   2.258 -0.3824 -0.3907 -0.6705
 5349TIP3    H137462   4.271   4.716   2.300  0.3654  0.7296 -0.7789
 5349TIP3    H237463   4.341   4.695   2.167  0.4651 -0.1708 -0.5906
 5350TIP3   OH237464   4.492   3.442  13.326  0.1063  0.1998  0.1528
 5350TIP3    H137465   4.416   3.419  13.271  0.5487  1.8270 -1.2504
 5350TIP3    H237466   4.453   3.482  13.404 -0.5149  0.1281 -0.1083
 5351TIP3   OH237467   4.441   0.177  11.644  0.1589 -0.2925  0.1500
 5351TIP3    H137468   4.493   0.235  11.700 -0.4204  0.0443  0.3456
 5351TIP3    H237469   4.379   0.135  11.703 -0.2053 -0.2236 -0.1773
 5352TIP3   OH237470   0.950   4.584  16.713  0.6114 -0.0257  0.8249
 5352TIP3    H137471   0.976   4.591  16.622  1.6845  1.6877  1.2098
 5352TIP3    H237472   0.984   4.664  16.754  0.0408 -0.6775  2.6940
 5353TIP3   OH237473   1.198   2.438  13.312  0.3672 -0.0888 -0.5870
 5353TIP3    H137474   1.111   2.451  13.273  0.7121  1.3613 -0.9666
 5353TIP3    H237475   1.184   2.373  13.380 -0.7328 -0.9376 -1.5746
 5354TIP3   OH237476   3.640   0.139  11.174  0.3530 -0.0362  0.1102
 5354TIP3    H137477   3.599   0.127  11.259  0.2006 -0.4841 -0.0208
 5354TIP3    H237478   3.566   0.154  11.114  0.5134  1.2789  0.2100
 5355TIP3   OH237479   0.780   0.296  14.815 -0.0368 -0.0400 -0.2419
 5355TIP3    H137480   0.694   0.295  14.773  0.0873  0.7708 -0.5210
 5355TIP3    H237481   0.780   0.218  14.870 -1.5947  0.7826  1.0174
 5356TIP3   OH237482   0.597   0.817   3.510 -0.5733  0.6296 -0.0328
 5356TIP3    H137483   0.641   0.864   3.581  0.5987 -0.7371  0.1943
 5356TIP3    H237484   0.663   0.811   3.441 -1.0348  0.1604 -0.4384
 5357TIP3   OH237485   6.453   3.499   2.757 -0.1999 -0.4135 -0.0644
 5357TIP3    H137486   6.442   3.502   2.852 -0.1469  1.3207 -0.0836
 5357TIP3    H237487   6.485   3.586   2.734 -1.4407 -0.3804 -1.8272
 5358TIP3   OH237488   3.812   1.886   0.243 -0.3645  0.2243  0.1539
 5358TIP3    H137489   3.843   1.823   0.178  3.5255  0.1464  1.7986
 5358TIP3    H237490   3.851   1.856   0.325 -2.4432  2.1061  1.9368
 5359TIP3   OH237491   0.400   6.675   0.078 -0.0659  0.2696 -0.2201
 5359TIP3    H137492   0.467   6.733   0.041  1.1870  0.3501  1.9831
 5359TIP3    H237493   0.359   6.727   0.147 -1.3690 -0.3102 -0.5358
 5360TIP3   OH237494   5.204   0.796  14.616  0.7255  0.0160 -0.0651
 5360TIP3    H137495   5.213   0.880  14.661  0.7477 -0.0359  0.0284
 5360TIP3    H237496   5.178   0.735  14.685 -0.8853  0.2596 -0.4270
 5361TIP3   OH237497   5.244   0.254  16.221 -0.3594 -0.3254 -0.2252
 5361TIP3    H137498   5.238   0.324  16.286 -0.1805 -1.4015  0.9865
 5361TIP3    H237499   5.154   0.229  16.203 -0.3777 -1.4187  1.2078
 5362TIP3   OH237500   6.683   2.039   6.817  0.6234 -0.9320  0.8306
 5362TIP3    H137501   6.743   1.970   6.847 -1.1161 -4.2406 -2.4520
 5362TIP3    H237502   6.728   2.081   6.745  0.9372  0.1262  1.6281
 5363TIP3   OH237503   2.044   0.276  13.110  0.1366  0.2181  0.5179
 5363TIP3    H137504   1.963   0.249  13.067  0.7254  0.8291 -1.0512
 5363TIP3    H237505   2.112   0.222  13.070  0.6095  0.2314  1.2855
 5364TIP3   OH237506   6.186   2.171   0.468 -0.1480 -0.2054 -0.6165
 5364TIP3    H137507   6.226   2.173   0.555 -0.2559 -0.3862 -0.5620
 5364TIP3    H237508   6.228   2.097   0.424  2.2448  1.7378 -1.8543
 5365TIP3   OH237509   5.474   1.293   3.131 -0.5919  1.2285 -0.5148
 5365TIP3    H137510   5.488   1.383   3.104  0.5326  1.9605  2.1643
 5365TIP3    H237511   5.389   1.293   3.174 -1.5362  0.4974 -2.2975
 5366TIP3   OH237512   1.290   3.620  11.033  0.1672 -0.7525  0.5146
 5366TIP3    H137513   1.359   3.555  11.021  1.0049 -0.4283  3.0158
 5366TIP3    H237514   1.326   3.701  10.996  0.2763 -1.0633 -0.0603
 5367TIP3   OH237515   4.440   1.642   4.748  0.0839 -0.1003 -0.2296
 5367TIP3    H137516   4.499   1.567   4.738  0.3968  0.3904 -2.7619
 5367TIP3    H237517   4.367   1.624   4.689  0.4791  1.8192 -1.4010
 5368TIP3   OH237518   1.341   5.913   0.160 -0.6271 -0.0667 -0.5390
 5368TIP3    H137519   1.377   5.853   0.225 -0.0272 -0.4566 -1.2205
 5368TIP3    H237520   1.416   5.961   0.126 -1.0418  0.7383 -0.3513
 5369TIP3   OH237521   6.596   6.647   4.797 -0.2337  0.2164 -0.2707
 5369TIP3    H137522   6.564   6.627   4.885 -0.3193  1.3163 -0.0421
 5369TIP3    H237523   6.690   6.629   4.802 -0.1556  0.7193  0.1861
 5370TIP3   OH237524   5.831   3.628  15.663 -0.0032 -0.0719 -0.3515
 5370TIP3    H137525   5.774   3.608  15.738 -0.8288  1.4998 -0.5073
 5370TIP3    H237526   5.874   3.710  15.688 -1.0640  1.0301 -1.9780
 5371TIP3   OH237527   0.920   5.435   1.503 -0.3566 -0.5066 -0.2757
 5371TIP3    H137528   0.838   5.483   1.517  0.3164  1.0607 -1.5266
 5371TIP3    H237529   0.942   5.450   1.412  0.2885 -2.6385 -0.5313
 5372TIP3   OH237530   4.363   6.662  15.782 -0.7502 -0.3333 -0.3785
 5372TIP3    H137531   4.272   6.673  15.756 -0.1233  1.6111 -2.0281
 5372TIP3    H237532   4.402   6.610  15.712  0.1200  1.7871 -1.5695
 5373TIP3   OH237533   4.440   4.054  13.061 -0.1521  0.3112 -0.1486
 5373TIP3    H137534   4.520   4.103  13.043 -0.4241  0.6836 -0.3722
 5373TIP3    H237535   4.446   4.031  13.153  0.8429 -0.8373 -0.4729
 5374TIP3   OH237536   3.432   1.507  16.297  0.2592 -0.7493  0.5490
 5374TIP3    H137537   3.508   1.508  16.356 -0.0078 -0.2136  0.8924
 5374TIP3    H237538   3.365   1.557  16.344 -0.1868 -0.9077  0.0881
 5375TIP3   OH237539   5.849   3.869   4.598 -0.1514  0.0789 -0.7877
 5375TIP3    H137540   5.920   3.811   4.570  0.5326 -0.0416  1.0838
 5375TIP3    H237541   5.805   3.821   4.667 -0.8327  0.9765 -0.5902
 5376TIP3   OH237542   3.052   0.118  14.528  0.1036  0.2904  0.8314
 5376TIP3    H137543   3.015   0.091  14.444  1.3634 -0.2946  0.4446
 5376TIP3    H237544   2.982   0.168  14.570 -1.0717 -0.6629  0.0734
 5377TIP3   OH237545   3.047   3.615  16.657 -0.1723  0.5138  0.2798
 5377TIP3    H137546   3.039   3.520  16.670  0.1732  0.5897  1.0870
 5377TIP3    H237547   3.029   3.652  16.743 -1.4995  1.2615 -0.3002
 5378TIP3   OH237548   5.578   0.938  14.599  0.2234 -0.7544  0.1998
 5378TIP3    H137549   5.516   0.952  14.670  0.3100 -1.1437  0.3560
 5378TIP3    H237550   5.589   0.843  14.595  0.5970 -0.7055 -0.0067
 5379TIP3   OH237551   3.570   0.397   2.782 -0.7002 -0.2048  0.3113
 5379TIP3    H137552   3.612   0.377   2.866  0.1583 -0.0801 -0.0801
 5379TIP3    H237553   3.501   0.331   2.773 -0.1302 -0.8600  0.6357
 5380TIP3   OH237554   4.698   0.948   5.332 -0.6350  0.1918 -0.0359
 5380TIP3    H137555   4.749   1.021   5.368  0.6040 -0.6121 -0.1098
 5380TIP3    H237556   4.716   0.875   5.391 -1.4094 -0.2038 -0.2834
 5381TIP3   OH237557   5.756   1.410   5.651 -0.1105 -0.5818  0.1642
 5381TIP3    H137558   5.739   1.400   5.745 -0.9057  1.9103  0.3726
 5381TIP3    H237559   5.670   1.401   5.610 -0.3502  1.6156  0.0815
 5382TIP3   OH237560   3.880   4.669  11.638  0.1731 -0.2326  0.4371
 5382TIP3    H137561   3.857   4.745  11.584 -1.0980  0.6200  2.1049
 5382TIP3    H237562   3.797   4.625  11.655  0.2183  0.5730  3.1822
 5383TIP3   OH237563   1.410   6.077  16.207  0.1792 -0.4751  0.0662
 5383TIP3    H137564   1.403   6.154  16.264  0.0153 -0.2385 -0.2678
 5383TIP3    H237565   1.469   6.018  16.253  0.5867 -0.0004  0.1603
 5384TIP3   OH237566   3.338   5.654   5.869 -0.2551  0.2639 -0.2531
 5384TIP3    H137567   3.353   5.573   5.917  0.8758 -0.1167 -1.2148
 5384TIP3    H237568   3.396   5.718   5.910 -1.3959  0.7251  0.7331
 5385TIP3   OH237569   5.262   5.118   2.023  0.1117  0.0413 -0.0860
 5385TIP3    H137570   5.247   5.162   2.106 -1.3871 -1.3670  0.4358
 5385TIP3    H237571   5.265   5.025   2.044 -1.5200 -0.4588 -1.7010
 5386TIP3   OH237572   4.829   3.976   2.782 -0.2633 -0.1240 -0.9895
 5386TIP3    H137573   4.771   3.956   2.708 -2.1566 -1.7442  0.7957
 5386TIP3    H237574   4.853   3.890   2.817  0.0976  0.5933  0.6114
 5387TIP3   OH237575   3.236   3.027   4.269  0.3342  0.1346  0.1928
 5387TIP3    H137576   3.182   3.009   4.346  1.0284 -1.7217  0.3019
 5387TIP3    H237577   3.306   3.084   4.301  0.3097 -0.1808  0.8178
 5388TIP3   OH237578   4.229   1.040  11.552 -0.4842  0.2592 -0.1030
 5388TIP3    H137579   4.247   1.099  11.479  1.4064 -0.7232 -0.5001
 5388TIP3    H237580   4.149   1.074  11.591 -0.5715  1.8575 -1.5488
 5389TIP3   OH237581   5.313   6.527   2.163 -0.9851  0.0017 -0.1709
 5389TIP3    H137582   5.251   6.461   2.196 -0.3024 -0.1025  0.9526
 5389TIP3    H237583   5.284   6.544   2.073 -0.4008 -2.8382 -1.0038
 5390TIP3   OH237584   4.463   4.681   2.720  1.0792 -0.3283  0.2063
 5390TIP3    H137585   4.467   4.728   2.636 -0.3074 -1.6283 -0.6395
 5390TIP3    H237586   4.505   4.740   2.782  0.3456  1.5838 -1.0073
 5391TIP3   OH237587   3.958   3.931   4.824 -0.4868  0.6083  1.0203
 5391TIP3    H137588   4.025   3.898   4.764 -1.4996  0.8362 -0.2862
 5391TIP3    H237589   4.007   3.962   4.900  0.8965  0.9439  0.0296
 5392TIP3   OH237590   0.181   3.355   3.557  0.1878 -0.0288 -0.5342
 5392TIP3    H137591   0.196   3.449   3.565  0.9555 -0.1609 -0.3074
 5392TIP3    H237592   0.088   3.347   3.535  0.2527  0.8042 -1.1321
 5393TIP3   OH237593   4.878   3.575  11.308  0.1013  0.1745  0.6903
 5393TIP3    H137594   4.888   3.517  11.232 -1.3791  1.8581 -0.8889
 5393TIP3    H237595   4.805   3.538  11.357 -1.6555  1.2272 -0.9660
 5394TIP3   OH237596   2.309   0.754   0.956 -0.6216  0.5139  0.7745
 5394TIP3    H137597   2.382   0.714   1.004 -0.2873 -3.2534 -2.2903
 5394TIP3    H237598   2.231   0.713   0.993 -0.5647 -0.4799 -0.1604
 5395TIP3   OH237599   0.011   3.776   2.790 -0.3001  0.3026 -0.4388
 5395TIP3    H137600   0.021   3.681   2.789 -0.8901  0.2386 -0.6576
 5395TIP3    H237601   0.098   3.809   2.813  0.0609 -0.2633 -0.9547
 5396TIP3   OH237602   6.704   3.404   4.180 -0.7132 -0.2532 -0.4221
 5396TIP3    H137603   6.666   3.366   4.260 -0.1069 -1.1125 -0.5211
 5396TIP3    H237604   6.639   3.385   4.112 -0.6992 -0.5837 -0.3487
 5397TIP3   OH237605   2.903   0.687   3.686 -0.2421  0.4481 -0.6695
 5397TIP3    H137606   2.915   0.631   3.609 -1.7320 -1.8782  0.6520
 5397TIP3    H237607   2.819   0.730   3.671 -1.3068 -1.1982  0.2417
 5398TIP3   OH237608   6.289   6.738  16.687 -0.0483 -0.0610 -0.2303
 5398TIP3    H137609   6.361   6.732  16.749  0.1639 -1.8802 -0.5891
 5398TIP3    H237610   6.296   6.827  16.650  0.2581  0.7882  1.7547
 5399TIP3   OH237611   6.217   2.461  16.763 -0.0498 -0.2217 -0.6510
 5399TIP3    H137612   6.223   2.393  16.696 -1.5104 -1.9019  0.8149
 5399TIP3    H237613   6.226   2.414  16.846  0.3427  1.5976  0.4005
 5400TIP3   OH237614   6.551   3.280   5.694 -0.8316  0.4812  0.6583
 5400TIP3    H137615   6.514   3.325   5.618 -2.6096 -0.9951  0.5772
 5400TIP3    H237616   6.506   3.319   5.769 -0.0943  0.9652  0.8635
 5401TIP3   OH237617   1.452   2.407   3.426  0.0068 -0.4129  0.0281
 5401TIP3    H137618   1.503   2.332   3.396 -1.1889 -1.0148 -0.5820
 5401TIP3    H237619   1.393   2.427   3.353 -0.6296  0.2491  0.7057
 5402TIP3   OH237620   3.242   0.228   1.623  0.1833 -0.0947 -0.4317
 5402TIP3    H137621   3.155   0.226   1.663 -0.0360  0.5484 -0.8543
 5402TIP3    H237622   3.302   0.239   1.697 -0.2592  1.7579 -0.2964
 5403TIP3   OH237623   4.243   6.506   3.440  0.1831 -0.0759  0.0403
 5403TIP3    H137624   4.228   6.411   3.443  1.9872 -0.3733  0.7940
 5403TIP3    H237625   4.334   6.517   3.467 -0.1817  1.9379  0.6194
 5404TIP3   OH237626   4.909   5.727  16.134  0.3100  0.2451 -0.1328
 5404TIP3    H137627   4.836   5.675  16.100 -0.0709  1.2735 -0.9345
 5404TIP3    H237628   4.878   5.759  16.219 -0.6246  1.5572 -0.9363
 5405TIP3   OH237629   2.905   0.354  16.375 -0.0612  0.0060  0.3624
 5405TIP3    H137630   2.866   0.439  16.355  1.4968  0.6952  0.0741
 5405TIP3    H237631   2.915   0.311  16.291 -1.5992 -0.8370  0.5856
 5406TIP3   OH237632   4.121   3.867  11.485  0.1133 -0.4547 -0.0235
 5406TIP3    H137633   4.197   3.865  11.543  0.2825  0.1942 -0.2134
 5406TIP3    H237634   4.153   3.827  11.404  0.8412  1.4867 -0.7605
 5407TIP3   OH237635   3.253   1.956  16.412  0.1488 -0.1048  0.0567
 5407TIP3    H137636   3.283   1.966  16.321  0.1417 -0.5944 -0.0028
 5407TIP3    H237637   3.179   2.016  16.419 -1.3208 -1.7026 -0.9521
 5408TIP3   OH237638   3.658   4.418   0.320  0.1582 -0.0479 -0.0832
 5408TIP3    H137639   3.658   4.405   0.415  0.4049 -3.2751 -0.4001
 5408TIP3    H237640   3.591   4.484   0.305 -1.3866 -0.9585  2.2154
 5409TIP3   OH237641   4.406   0.491  11.658  0.1022 -1.2339  0.6283
 5409TIP3    H137642   4.418   0.509  11.751  0.5725  1.1380  0.1678
 5409TIP3    H237643   4.312   0.478  11.647 -0.1767  0.1101  1.2213
 5410TIP3   OH237644   0.150   2.736  11.985 -0.6565  0.2893 -0.2866
 5410TIP3    H137645   0.160   2.825  12.018  1.2213  0.1514 -0.3467
 5410TIP3    H237646   0.060   2.712  12.005 -0.6008  1.4766  1.5665
 5411TIP3   OH237647   2.905   1.251  14.626 -0.1851 -0.5324  0.0629
 5411TIP3    H137648   2.910   1.222  14.535 -0.9310  0.3660 -0.2897
 5411TIP3    H237649   2.870   1.176  14.674 -0.9176 -0.6313 -0.6024
 5412TIP3   OH237650   2.434   0.862  13.631  0.0377  0.0510  0.2639
 5412TIP3    H137651   2.398   0.882  13.717 -0.1766  1.5302 -0.1456
 5412TIP3    H237652   2.520   0.904  13.630  0.3774 -0.6387  0.0365
 5413TIP3   OH237653   6.193   0.014  12.195 -0.2615  0.5322  0.3832
 5413TIP3    H137654   6.104  -0.007  12.224  0.4631 -0.9202  1.6903
 5413TIP3    H237655   6.235   0.051  12.273  0.2053  1.5748 -0.3346
 5414TIP3   OH237656   0.007   3.501  12.358 -0.2685  0.3799 -0.0916
 5414TIP3    H137657   0.085   3.533  12.312  0.6592  0.8196  1.7065
 5414TIP3    H237658   0.037   3.423  12.404 -0.4133  1.4442  1.9127
 5415TIP3   OH237659   5.838   2.767   3.054 -0.0655 -0.3899 -0.0243
 5415TIP3    H137660   5.875   2.797   2.971  1.2794  0.7451  0.9401
 5415TIP3    H237661   5.888   2.689   3.076 -0.3758 -0.6509 -0.2235
 5416TIP3   OH237662   5.701   5.545   0.047 -0.6704 -0.0789  0.1174
 5416TIP3    H137663   5.737   5.617  -0.004  1.5709 -0.6581  0.7706
 5416TIP3    H237664   5.717   5.569   0.138 -2.2882 -0.2274  0.4638
 5417TIP3   OH237665   6.093   4.903  12.236 -0.1173  0.6141 -0.4372
 5417TIP3    H137666   6.158   4.959  12.277  0.5309 -0.9899  0.8124
 5417TIP3    H237667   6.011   4.953  12.242  0.1021  0.7899  2.1553
 5418TIP3   OH237668   3.661   5.837   4.915 -0.0992  0.2197  0.0072
 5418TIP3    H137669   3.724   5.870   4.851  0.0868  2.5089  1.2802
 5418TIP3    H237670   3.711   5.777   4.970  0.1075 -0.5503 -0.9736
 5419TIP3   OH237671   3.813   6.521  11.700  0.1322  0.3491  0.0476
 5419TIP3    H137672   3.747   6.483  11.758 -0.1947  0.4368 -0.2581
 5419TIP3    H237673   3.787   6.492  11.613  0.3539  0.5933 -0.0998
 5420TIP3   OH237674   3.812   3.366  11.450  0.7546  0.1753 -0.8130
 5420TIP3    H137675   3.758   3.314  11.509 -1.9082  2.1503 -1.3232
 5420TIP3    H237676   3.864   3.422  11.507  2.6423 -1.9578 -0.3049
 5421TIP3   OH237677   6.052   4.363  15.610 -0.2375  0.2372 -0.1370
 5421TIP3    H137678   6.129   4.396  15.565 -1.7582  1.0795 -2.2718
 5421TIP3    H237679   6.039   4.424  15.683  0.8292  0.3437 -0.0187
 5422TIP3   OH237680   2.550   2.399   2.602  0.0494 -0.2033  0.2602
 5422TIP3    H137681   2.608   2.405   2.678 -0.4281 -0.5364  0.6591
 5422TIP3    H237682   2.607   2.413   2.527  0.2699  1.6860  0.7448
 5423TIP3   OH237683   6.095   5.692  14.257  0.4592 -0.5657  0.5842
 5423TIP3    H137684   6.148   5.751  14.204  0.2518 -0.0481  0.9526
 5423TIP3    H237685   6.043   5.749  14.313 -0.0111 -1.0858  0.6898
 5424TIP3   OH237686   1.315   3.793   2.661 -0.1780 -0.7000 -0.3948
 5424TIP3    H137687   1.277   3.752   2.584  0.1508  1.1725 -1.6252
 5424TIP3    H237688   1.409   3.780   2.652 -0.2037 -1.5357  0.3656
 5425TIP3   OH237689   3.855   0.959   6.419  0.1778 -0.0860 -0.2573
 5425TIP3    H137690   3.818   0.900   6.353  1.0071  1.4377 -2.1699
 5425TIP3    H237691   3.904   0.901   6.478  2.0980 -1.2592 -2.8348
 5426TIP3   OH237692   4.954   2.233  16.164  0.5386 -0.1559  0.3520
 5426TIP3    H137693   4.898   2.305  16.194  0.3317  0.0955 -0.5821
 5426TIP3    H237694   4.904   2.154  16.185  1.0794 -0.0978  2.0288
 5427TIP3   OH237695   5.071   6.143   5.083  0.7995  0.2361 -0.8317
 5427TIP3    H137696   5.138   6.180   5.141  0.4438 -1.6698  0.8775
 5427TIP3    H237697   5.118   6.078   5.031  0.8478  1.0254 -1.8026
 5428TIP3   OH237698   1.931   4.265  11.158 -0.4661  0.3720  0.4253
 5428TIP3    H137699   1.983   4.297  11.232 -0.6685 -2.1860  1.7890
 5428TIP3    H237700   1.867   4.333  11.142  0.6748  1.7467  1.4615
 5429TIP3   OH237701   2.027   2.376  14.732  0.3992 -0.2563 -0.0543
 5429TIP3    H137702   2.111   2.344  14.699  0.3918  0.8974 -1.2634
 5429TIP3    H237703   1.962   2.342  14.671  0.0496 -0.5294  0.4576
 5430TIP3   OH237704   4.272   0.373   0.121  0.0328  0.6956  0.0756
 5430TIP3    H137705   4.219   0.294   0.112 -1.0139  1.3173  0.6692
 5430TIP3    H237706   4.325   0.376   0.040 -1.0769  0.2506 -0.6843
 5431TIP3   OH237707   6.467   1.055  14.743  0.1433  0.3174 -0.0546
 5431TIP3    H137708   6.457   1.009  14.826  0.8617 -2.2538 -1.2937
 5431TIP3    H237709   6.562   1.062  14.731  0.1200 -1.3153 -1.6024
 5432TIP3   OH237710   4.121   5.904   2.911  0.7925  0.0201 -0.0381
 5432TIP3    H137711   4.031   5.925   2.885  0.3496 -0.0073  1.3817
 5432TIP3    H237712   4.130   5.942   2.999  1.1616 -2.5321  1.1209
 5433TIP3   OH237713   2.944   3.126   4.928  0.4617 -0.2090 -0.0755
 5433TIP3    H137714   2.978   3.187   4.863 -0.3924 -0.6485 -0.9561
 5433TIP3    H237715   3.003   3.050   4.923  1.2724  0.3531  0.7226
 5434TIP3   OH237716   5.955   6.032   2.049  0.3216 -0.4629 -1.3666
 5434TIP3    H137717   5.908   5.985   2.118  0.9675 -2.3376 -2.1300
 5434TIP3    H237718   5.889   6.087   2.008 -0.1490  0.4369  0.4947
 5435TIP3   OH237719   3.279   0.602   0.860 -0.6194 -0.0624 -0.2144
 5435TIP3    H137720   3.332   0.573   0.786 -0.5863 -0.0914 -0.1793
 5435TIP3    H237721   3.341   0.644   0.919 -0.4795 -0.9336  0.2664
 5436TIP3   OH237722   2.309   0.134  11.898 -0.4520 -0.0515 -0.4559
 5436TIP3    H137723   2.263   0.216  11.888  1.2115  0.7685 -2.0690
 5436TIP3    H237724   2.327   0.127  11.992 -1.5803  0.8529 -0.1581
 5437TIP3   OH237725   5.437   0.600  12.243 -0.1159  0.2788 -0.1449
 5437TIP3    H137726   5.403   0.673  12.294 -1.3455 -0.3375 -0.0350
 5437TIP3    H237727   5.531   0.613  12.241 -0.2571  1.4823  0.4575
 5438TIP3   OH237728   0.710   2.030  15.561  0.7720 -0.2929 -0.5227
 5438TIP3    H137729   0.650   2.009  15.489  0.0527  2.7262 -0.9212
 5438TIP3    H237730   0.795   2.045  15.519  0.3961  1.2723 -0.7960
 5439TIP3   OH237731   4.597   1.936   3.450 -0.1950  0.2104  0.1662
 5439TIP3    H137732   4.597   1.994   3.527  0.6470 -0.5243  0.7441
 5439TIP3    H237733   4.679   1.888   3.457 -0.5436 -0.5272 -0.7007
 5440TIP3   OH237734   6.815   2.247  16.379 -0.1524 -0.8007  0.2568
 5440TIP3    H137735   6.881   2.180  16.360  1.3325  1.0213 -1.4618
 5440TIP3    H237736   6.758   2.245  16.302 -0.4345 -0.4591  0.4591
 5441TIP3   OH237737   0.286   4.388   5.406  0.1876  0.5272 -0.5547
 5441TIP3    H137738   0.191   4.397   5.408  0.2258  1.1667  2.2605
 5441TIP3    H237739   0.305   4.316   5.466  1.4824  0.4315 -1.0452
 5442TIP3   OH237740   5.758   3.879   1.878 -0.3509 -0.1576 -0.0734
 5442TIP3    H137741   5.718   3.844   1.957 -0.2572 -1.2367 -0.4793
 5442TIP3    H237742   5.807   3.805   1.842  2.7488  1.2371  0.8419
 5443TIP3   OH237743   5.625   3.671   6.071  0.0712 -0.6199 -0.0835
 5443TIP3    H137744   5.680   3.749   6.060 -1.6590  0.7056  0.1249
 5443TIP3    H237745   5.626   3.629   5.985  1.4900 -0.7174 -0.0438
 5444TIP3   OH237746   1.765   3.498   1.716 -0.0455 -0.6629  0.1754
 5444TIP3    H137747   1.718   3.580   1.703  0.1963 -0.7016 -1.0196
 5444TIP3    H237748   1.760   3.483   1.811 -0.1497  0.6800  0.4022
 5445TIP3   OH237749   1.501   5.908  13.045  0.0981 -0.1284 -0.3581
 5445TIP3    H137750   1.466   5.997  13.041 -0.3282 -0.1650  1.5360
 5445TIP3    H237751   1.428   5.855  13.077  0.8639 -0.8362  0.2665
 5446TIP3   OH237752   3.670   6.453  15.399 -0.1573 -0.2295 -0.3678
 5446TIP3    H137753   3.715   6.533  15.426 -1.8392  0.7248 -0.2531
 5446TIP3    H237754   3.737   6.385  15.404  0.8979  0.8584  1.1938
 5447TIP3   OH237755   5.160   4.640   0.071 -0.1189 -0.3228 -0.2788
 5447TIP3    H137756   5.181   4.573   0.136  2.5085  0.6554 -0.0084
 5447TIP3    H237757   5.136   4.590  -0.008  1.4117 -1.6079  0.0202
 5448TIP3   OH237758   6.811   5.152   5.953  0.1519 -0.0493  0.1867
 5448TIP3    H137759   6.717   5.168   5.961  0.2938  0.2610  1.4430
 5448TIP3    H237760   6.834   5.186   5.867 -0.7092  0.8580  0.2933
 5449TIP3   OH237761   0.839   2.876   3.231 -0.5876 -0.1414 -0.0559
 5449TIP3    H137762   0.923   2.916   3.211 -0.3640 -1.3784 -1.7873
 5449TIP3    H237763   0.861   2.797   3.280 -0.8202  0.0507  0.3680
 5450TIP3   OH237764   2.811   0.557   4.398  0.0649  0.0754 -0.1252
 5450TIP3    H137765   2.877   0.498   4.362 -1.2616 -0.7254 -1.3568
 5450TIP3    H237766   2.792   0.618   4.327 -0.1362  0.6432  0.4028
 5451TIP3   OH237767   4.478   0.810   2.588 -0.1153 -0.2167 -0.5344
 5451TIP3    H137768   4.391   0.828   2.623 -0.5775  0.2005 -1.8138
 5451TIP3    H237769   4.469   0.826   2.494  0.7381 -2.4610 -1.0510
 5452TIP3   OH237770   2.993   3.349  13.010 -0.3735  0.4000  0.1141
 5452TIP3    H137771   3.013   3.345  12.917 -0.7253 -0.3718  0.0659
 5452TIP3    H237772   3.067   3.306  13.052  0.7049  2.3844  0.3490
 5453TIP3   OH237773   0.875   0.117   1.091 -0.2259 -0.6739 -0.0808
 5453TIP3    H137774   0.953   0.080   1.133 -0.6291 -0.1236  1.2152
 5453TIP3    H237775   0.904   0.141   1.003  0.5761 -2.1453 -0.2524
 5454TIP3   OH237776   0.050   0.562   3.142  0.2060  0.4732  0.4798
 5454TIP3    H137777   0.072   0.493   3.204  0.3986  0.7339  0.7052
 5454TIP3    H237778   0.097   0.639   3.174 -2.2918  1.5229  1.9806
 5455TIP3   OH237779   5.162   0.451   3.595  0.1336  0.3628  0.5145
 5455TIP3    H137780   5.168   0.390   3.669  1.0593 -0.1328  0.0471
 5455TIP3    H237781   5.070   0.449   3.570 -0.1489  0.3533  1.4910
 5456TIP3   OH237782   6.034   3.894  16.259  0.3341 -0.3111 -0.2455
 5456TIP3    H137783   5.987   3.813  16.242  0.5409 -0.2287 -1.2675
 5456TIP3    H237784   6.023   3.909  16.353 -2.5599  0.2718 -0.5890
 5457TIP3   OH237785   4.487   4.567  14.988 -0.3500 -0.1281 -0.7326
 5457TIP3    H137786   4.518   4.558  14.898 -0.8796  3.0968 -1.3524
 5457TIP3    H237787   4.420   4.635  14.984 -0.1279  0.4012  2.1609
 5458TIP3   OH237788   1.858   4.068  16.752  0.5628 -0.3963  0.6265
 5458TIP3    H137789   1.763   4.079  16.740  0.3955 -1.3101  1.0247
 5458TIP3    H237790   1.892   4.054  16.663  0.3628  0.1662  0.4566
 5459TIP3   OH237791   1.229   4.189   1.709  0.7721  0.4448 -0.0584
 5459TIP3    H137792   1.186   4.224   1.631  1.4818  0.7965 -0.2940
 5459TIP3    H237793   1.157   4.158   1.764  0.2851 -0.2110 -1.0428
 5460TIP3   OH237794   4.833   5.787  15.688 -0.4443 -0.4855 -0.0695
 5460TIP3    H137795   4.828   5.817  15.778  0.1503  1.8782 -0.7429
 5460TIP3    H237796   4.759   5.830  15.644 -0.7817 -1.6681 -0.6988
 5461TIP3   OH237797   5.482   4.847   1.778  0.3966 -0.1440 -0.3523
 5461TIP3    H137798   5.412   4.900   1.740  0.3378 -0.2354 -0.3692
 5461TIP3    H237799   5.467   4.759   1.745 -0.4945 -0.5373  1.0115
 5462TIP3   OH237800   5.053   4.150  16.766 -0.0834 -0.3252 -0.3150
 5462TIP3    H137801   5.114   4.107  16.827  0.6716 -0.3862 -1.0885
 5462TIP3    H237802   5.108   4.211  16.717 -0.2766 -1.6124 -2.2362
 5463TIP3   OH237803   2.326   3.246   4.140  0.2279  0.1029  0.2300
 5463TIP3    H137804   2.321   3.338   4.116  0.4521  0.0456 -0.0371
 5463TIP3    H237805   2.236   3.214   4.132  0.4924 -0.2415 -1.8047
 5464TIP3   OH237806   2.827   6.379   2.183  0.4199 -0.0922  0.8534
 5464TIP3    H137807   2.741   6.343   2.205 -0.4373  1.4865  0.2737
 5464TIP3    H237808   2.861   6.413   2.266  0.3441 -0.4401  1.0265
 5465TIP3   OH237809   1.327   1.938  12.669  0.3277 -0.0083 -0.1514
 5465TIP3    H137810   1.404   1.898  12.710  0.0040 -0.4259  0.0562
 5465TIP3    H237811   1.255   1.918  12.729  0.2939  1.6173  0.4059
 5466TIP3   OH237812   5.771   2.410   5.426  0.0881  0.0424  0.1508
 5466TIP3    H137813   5.755   2.415   5.332  1.6106 -0.5662 -0.1526
 5466TIP3    H237814   5.776   2.317   5.445 -0.0220  0.1655  0.8156
 5467TIP3   OH237815   1.051   4.868  16.056 -0.0158 -0.0580  0.1051
 5467TIP3    H137816   1.070   4.955  16.091  0.9819 -0.2840  0.1617
 5467TIP3    H237817   1.048   4.880  15.961  0.4254 -0.0060  0.0922
 5468TIP3   OH237818   4.650   4.876   0.373 -0.1376  0.4232  0.0048
 5468TIP3    H137819   4.709   4.951   0.362  1.5204 -0.1185  3.5920
 5468TIP3    H237820   4.614   4.888   0.461 -1.9091 -1.6319 -0.3682
 5469TIP3   OH237821   5.067   4.583   4.375  0.0936  0.0793 -0.0322
 5469TIP3    H137822   5.112   4.627   4.302  1.4134  0.5665  1.0193
 5469TIP3    H237823   4.998   4.644   4.401  1.0594  0.9594  0.5472
 5470TIP3   OH237824   4.239   2.323   2.469 -0.3155  0.1512 -0.3873
 5470TIP3    H137825   4.316   2.361   2.428 -0.8825  1.1232 -0.5857
 5470TIP3    H237826   4.195   2.397   2.510 -1.5632 -0.2455 -0.9540
 5471TIP3   OH237827   2.057   2.685  14.415  0.2289 -0.1945  0.0190
 5471TIP3    H137828   2.058   2.644  14.329  3.0601  0.1172 -0.1830
 5471TIP3    H237829   2.082   2.776  14.399 -0.8185  0.2995  1.0188
 5472TIP3   OH237830   4.548   0.777  14.858 -0.0804 -0.5008 -0.2780
 5472TIP3    H137831   4.504   0.825  14.928  1.1365  1.5645 -0.8537
 5472TIP3    H237832   4.640   0.776  14.884  0.0937 -1.5449 -0.8728
 5473TIP3   OH237833   3.107   3.796   2.440  0.1498  0.0008 -0.2687
 5473TIP3    H137834   3.013   3.783   2.435  0.3242 -1.0701 -1.2009
 5473TIP3    H237835   3.131   3.835   2.356  0.3321  1.9588  0.6332
 5474TIP3   OH237836   2.724   0.769   2.072 -0.5493  0.3037  0.0310
 5474TIP3    H137837   2.695   0.678   2.062  0.3317  0.1560 -1.4884
 5474TIP3    H237838   2.812   0.762   2.109  0.0313  0.4634 -1.2831
 5475TIP3   OH237839   5.179   4.165  10.798 -0.0450 -0.0928  0.0722
 5475TIP3    H137840   5.228   4.117  10.865 -0.7668 -2.2362 -0.8489
 5475TIP3    H237841   5.103   4.200  10.844 -0.3955 -1.3208  0.4634
 5476TIP3   OH237842   3.838   6.652  12.988 -0.1599 -0.0951  0.4265
 5476TIP3    H137843   3.829   6.620  13.078 -0.1707 -0.4559  0.3014
 5476TIP3    H237844   3.891   6.585  12.945 -0.7246 -0.2676 -0.0141
 5477TIP3   OH237845   5.276   5.740   5.614 -0.0334 -0.4497  0.1421
 5477TIP3    H137846   5.314   5.653   5.632  0.0258 -0.5859 -0.6021
 5477TIP3    H237847   5.314   5.797   5.680  0.9063 -0.7399 -0.1267
 5478TIP3   OH237848   0.862   2.986   5.802 -0.4153 -0.3682 -0.2888
 5478TIP3    H137849   0.823   3.056   5.750  0.0656 -0.8874 -1.3852
 5478TIP3    H237850   0.846   3.011   5.893  0.1580  1.4054 -0.6436
 5479TIP3   OH237851   0.379   5.204   3.757  0.0496 -0.2079 -0.4022
 5479TIP3    H137852   0.342   5.131   3.707 -0.2030  0.7541 -1.6796
 5479TIP3    H237853   0.328   5.280   3.730  0.8251  0.5837  0.2948
 5480TIP3   OH237854   0.010   2.766  16.430 -0.3716  0.4084  0.1867
 5480TIP3    H137855  -0.071   2.813  16.453  0.5568  1.7311  0.8680
 5480TIP3    H237856   0.010   2.763  16.335 -0.1239  2.4350  0.0934
 5481TIP3   OH237857   4.690   3.522   5.925 -0.3743 -0.3209 -0.4278
 5481TIP3    H137858   4.758   3.458   5.941  0.7165  0.9580  0.1872
 5481TIP3    H237859   4.630   3.514   5.999  1.1212  1.0429  1.0321
 5482TIP3   OH237860   0.874   6.540   4.777  0.3616 -0.3787  0.4005
 5482TIP3    H137861   0.940   6.473   4.759  0.8012  0.5787 -1.8123
 5482TIP3    H237862   0.908   6.620   4.738 -2.0065  0.1905 -0.7219
 5483TIP3   OH237863   1.139   3.435   3.641 -0.3907  0.5616 -0.1612
 5483TIP3    H137864   1.166   3.353   3.683  1.9956  1.5414  0.3583
 5483TIP3    H237865   1.133   3.498   3.712  0.4963  1.4775 -0.8705
 5484TIP3   OH237866   3.685   1.760  13.981  0.2881 -0.5013  0.5478
 5484TIP3    H137867   3.703   1.688  14.042  0.2041  0.1107  1.3227
 5484TIP3    H237868   3.763   1.816  13.986  0.0629 -0.1766  0.4921
 5485TIP3   OH237869   2.189   0.777   2.235  0.2439  0.4281 -0.8274
 5485TIP3    H137870   2.119   0.740   2.182 -0.3162  0.5789 -0.2134
 5485TIP3    H237871   2.265   0.782   2.177  0.3237 -1.5843 -0.9475
 5486TIP3   OH237872   5.226   2.530   5.993 -0.3435  0.3077 -0.1430
 5486TIP3    H137873   5.234   2.622   6.019  1.3254  0.8808 -2.3848
 5486TIP3    H237874   5.298   2.486   6.039 -0.3491  0.3887 -0.0573
 5487TIP3   OH237875   6.435   4.077   0.776 -0.1579  0.3348 -0.5189
 5487TIP3    H137876   6.341   4.091   0.792 -0.2448 -0.6487 -0.0788
 5487TIP3    H237877   6.437   4.005   0.713  0.2990  0.8208 -1.0718
 5488TIP3   OH237878   0.011   1.466  13.246 -0.1681  0.0428 -0.1117
 5488TIP3    H137879   0.018   1.374  13.222  1.0936  0.0890  0.0030
 5488TIP3    H237880  -0.037   1.466  13.329  1.6378 -0.7197  0.9991
 5489TIP3   OH237881   4.926   5.264   5.159  0.1045 -0.0209 -0.2780
 5489TIP3    H137882   4.967   5.191   5.113 -1.0932 -0.9416  0.0415
 5489TIP3    H237883   4.881   5.313   5.090  1.9094  1.1772 -0.6773
 5490TIP3   OH237884   0.537   5.525  13.514 -0.6569 -0.1362 -0.3313
 5490TIP3    H137885   0.477   5.545  13.442 -1.2234 -1.2403 -0.1866
 5490TIP3    H237886   0.607   5.589  13.505  0.5702 -1.7317 -3.3635
 5491TIP3   OH237887   6.669   1.612   6.070  0.3384  0.1187  0.4575
 5491TIP3    H137888   6.605   1.562   6.120  0.3993 -0.0322  0.3880
 5491TIP3    H237889   6.752   1.566   6.086  0.7084  1.1660  1.7438
 5492TIP3   OH237890   0.457   0.281   1.364  0.1553  0.1917  0.1830
 5492TIP3    H137891   0.411   0.210   1.318 -0.2226  0.1433  0.6310
 5492TIP3    H237892   0.398   0.306   1.435  1.0516 -0.2121  1.0834
 5493TIP3   OH237893   5.277   5.270  15.445  0.7557 -0.1838 -0.0697
 5493TIP3    H137894   5.333   5.336  15.485  0.1709  0.1887  0.1524
 5493TIP3    H237895   5.190   5.311  15.443  0.6153 -0.5058 -0.9726
 5494TIP3   OH237896   4.844   0.616  14.735  0.5126  0.5260 -0.1392
 5494TIP3    H137897   4.842   0.662  14.651  1.2526 -2.5388 -2.0185
 5494TIP3    H237898   4.753   0.594  14.752  0.4897 -0.0272 -0.9122
 5495TIP3   OH237899   1.999   0.224  14.772  0.0527 -0.1199 -0.0000
 5495TIP3    H137900   1.910   0.190  14.765 -0.3770  0.6175  1.5080
 5495TIP3    H237901   1.991   0.316  14.748  0.4319 -0.0785  0.0229
 5496TIP3   OH237902   1.941   2.606   4.231  0.0381 -0.3916  0.4189
 5496TIP3    H137903   1.893   2.569   4.305 -0.4338 -3.0738 -1.0902
 5496TIP3    H237904   1.930   2.542   4.160  2.4593  0.8540 -1.2535
 5497TIP3   OH237905   3.299   2.907   0.384  0.4592  0.1951  0.2381
 5497TIP3    H137906   3.302   2.856   0.466 -0.1381 -0.4833 -0.1476
 5497TIP3    H237907   3.366   2.974   0.395  0.9570 -0.4022  0.9468
 5498TIP3   OH237908   4.613   5.641   5.608  0.6211 -0.2705 -0.1010
 5498TIP3    H137909   4.570   5.676   5.685  1.5791 -1.2426  0.9125
 5498TIP3    H237910   4.706   5.636   5.632  1.1177  0.5135 -1.7395
 5499TIP3   OH237911   5.735   5.791  11.573 -0.6846  0.1285  0.2197
 5499TIP3    H137912   5.809   5.734  11.555 -0.9801 -0.1931  0.0227
 5499TIP3    H237913   5.755   5.830  11.658  1.0577  2.1674 -0.9922
 5500TIP3   OH237914   5.971   3.031   5.458  0.0123  0.2669  0.4072
 5500TIP3    H137915   5.940   3.058   5.372  0.8545 -1.6480 -0.5758
 5500TIP3    H237916   6.062   3.060   5.461  0.6260 -1.4341 -0.2636
 5501TIP3   OH237917   3.333   3.777   1.041 -0.0796 -0.3735 -0.3600
 5501TIP3    H137918   3.326   3.845   0.975 -0.6600  0.4082  0.4814
 5501TIP3    H237919   3.301   3.698   0.997  1.4792 -0.3495 -1.6363
 5502TIP3   OH237920   3.685   2.296  11.497 -0.4365  0.3874 -0.1709
 5502TIP3    H137921   3.712   2.243  11.572 -2.3520  0.3361  0.5475
 5502TIP3    H237922   3.767   2.326  11.458  0.6609 -1.6170  0.4609
 5503TIP3   OH237923   1.256   5.372  14.414 -0.6591 -0.1240  0.0878
 5503TIP3    H137924   1.180   5.431  14.406 -0.9225 -0.6861 -2.2896
 5503TIP3    H237925   1.217   5.285  14.419 -0.1845 -0.3188  0.3890
 5504TIP3   OH237926   3.254   1.145   1.617  0.0887  0.0794  0.0196
 5504TIP3    H137927   3.324   1.162   1.553 -0.3093 -0.1422 -0.4876
 5504TIP3    H237928   3.222   1.232   1.641  0.2299  0.1655 -0.1000
 5505TIP3   OH237929   2.724   3.723  17.013  0.0982  0.5364  0.0183
 5505TIP3    H137930   2.672   3.646  17.033 -0.0512  0.3602 -0.9827
 5505TIP3    H237931   2.726   3.773  17.095 -1.0029  0.1749  0.2839
 5506TIP3   OH237932   5.830   0.697   2.843 -0.0919 -0.2586  0.4535
 5506TIP3    H137933   5.844   0.688   2.938 -0.9733  0.3222  0.6468
 5506TIP3    H237934   5.907   0.655   2.804  1.3738  1.3564  1.4386
 5507TIP3   OH237935   4.547   4.776   2.974  0.2644  0.4179  0.2243
 5507TIP3    H137936   4.546   4.745   3.064 -0.8575  0.6342  0.2951
 5507TIP3    H237937   4.533   4.870   2.980  1.6575  0.6710 -0.1071
 5508TIP3   OH237938   2.972   5.281   5.635  0.1787  0.1383  0.3399
 5508TIP3    H137939   2.883   5.314   5.640  0.7764  1.8047  0.5549
 5508TIP3    H237940   3.007   5.290   5.724 -0.3871 -3.5610  1.1242
 5509TIP3   OH237941   1.444   2.342  14.601 -0.1707 -0.5629  0.6251
 5509TIP3    H137942   1.388   2.325  14.676  2.5935 -0.2510  2.9525
 5509TIP3    H237943   1.483   2.257  14.581 -0.3204 -0.4971  0.0531
 5510TIP3   OH237944   5.774   5.855  11.191  0.3275 -0.6603  0.2335
 5510TIP3    H137945   5.830   5.921  11.232  1.6410 -2.3093  1.1745
 5510TIP3    H237946   5.788   5.867  11.097  0.5469  0.3603  0.3792
 5511TIP3   OH237947   5.819   0.269   4.724 -0.6300  0.1118  0.0452
 5511TIP3    H137948   5.881   0.275   4.652  0.7716 -0.9398  1.1161
 5511TIP3    H237949   5.745   0.220   4.687  0.7593 -1.8605 -0.2830
 5512TIP3   OH237950   0.383   2.195  14.575  0.1179 -0.4786 -0.6312
 5512TIP3    H137951   0.332   2.183  14.656  0.7261  0.0685 -0.1507
 5512TIP3    H237952   0.384   2.109  14.534 -1.3047 -0.4745 -0.7289
 5513TIP3   OH237953   4.514   0.793  12.182  0.3584 -0.1600 -0.4080
 5513TIP3    H137954   4.435   0.827  12.224  1.0602 -1.8932  2.6120
 5513TIP3    H237955   4.483   0.717  12.133  0.0039 -0.2734 -0.0199
 5514TIP3   OH237956   1.536   0.181   3.676 -0.8113 -0.0624 -0.6811
 5514TIP3    H137957   1.611   0.202   3.621 -0.3040 -2.5654 -1.0608
 5514TIP3    H237958   1.545   0.237   3.752  1.0439  0.2142 -1.0699
 5515TIP3   OH237959   4.834   4.477  16.920  0.9194 -0.0236 -0.4323
 5515TIP3    H137960   4.827   4.553  16.977  2.9552 -1.0842  1.3867
 5515TIP3    H237961   4.744   4.457  16.895  0.0254  1.0206  1.7296
 5516TIP3   OH237962   6.399   6.493  14.194  0.2934  0.1941  0.0305
 5516TIP3    H137963   6.366   6.480  14.283 -0.8113 -1.2909 -0.5599
 5516TIP3    H237964   6.451   6.415  14.176  0.0654  0.2325 -0.8233
 5517TIP3   OH237965   6.816   1.620   4.266  0.3407  0.3739 -0.2776
 5517TIP3    H137966   6.889   1.634   4.326 -0.6703  2.3146  0.6040
 5517TIP3    H237967   6.795   1.527   4.274 -0.7689  0.7762  3.6986
 5518TIP3   OH237968   5.867   0.925  11.757 -0.3755 -0.1276  0.4970
 5518TIP3    H137969   5.875   1.019  11.747 -2.3555 -0.0259 -0.6055
 5518TIP3    H237970   5.776   0.911  11.785 -1.0800 -1.8090 -2.2082
 5519TIP3   OH237971   5.680   2.856  15.140  0.5043 -0.0769  0.4759
 5519TIP3    H137972   5.588   2.841  15.164  0.4354 -0.7149 -0.1484
 5519TIP3    H237973   5.693   2.950  15.154 -0.0462 -0.1002  1.2118
 5520TIP3   OH237974   0.294   3.794   4.286 -0.1910 -0.0491 -0.4844
 5520TIP3    H137975   0.218   3.824   4.237  0.7148  0.0087 -1.9016
 5520TIP3    H237976   0.369   3.812   4.229  0.7360 -1.6419  0.1459
 5521TIP3   OH237977   4.137   5.743   3.425 -0.1189 -0.0723 -0.3203
 5521TIP3    H137978   4.171   5.744   3.515 -1.2353 -0.1669  0.1241
 5521TIP3    H237979   4.206   5.702   3.374  2.2877  3.5055 -0.2812
 5522TIP3   OH237980   4.334   4.307  13.857 -0.2929 -0.3741 -0.0984
 5522TIP3    H137981   4.381   4.389  13.870  1.3034 -1.3195  0.4862
 5522TIP3    H237982   4.243   4.328  13.876 -0.2172  1.6473 -1.6852
 5523TIP3   OH237983   5.884   6.595   0.276 -0.3837  0.0700 -0.2472
 5523TIP3    H137984   5.970   6.629   0.250  0.5030 -1.2720  0.7763
 5523TIP3    H237985   5.826   6.671   0.270  1.1444  1.3636  0.3455
 5524TIP3   OH237986   2.059   1.648  12.747 -0.0394  0.2305  0.5121
 5524TIP3    H137987   1.986   1.613  12.696 -1.2772  2.6419  0.4713
 5524TIP3    H237988   2.133   1.593  12.724 -1.6015 -1.6831 -0.2462
 5525TIP3   OH237989   1.017   4.749  11.249 -0.9658 -0.2814 -0.3542
 5525TIP3    H137990   0.922   4.762  11.248 -0.7392  1.6540 -0.8797
 5525TIP3    H237991   1.043   4.761  11.158 -0.0463  0.8939  0.0449
 5526TIP3   OH237992   1.327   2.579   1.623 -0.0435  0.2051 -1.1831
 5526TIP3    H137993   1.356   2.668   1.646 -2.1464  0.9028 -0.9798
 5526TIP3    H237994   1.284   2.547   1.702  0.2566 -0.8243 -1.4231
 5527TIP3   OH237995   0.020   5.257  16.544  0.4571 -0.4404  0.6119
 5527TIP3    H137996   0.093   5.308  16.578 -0.0916 -1.0556  2.8718
 5527TIP3    H237997   0.034   5.169  16.579 -0.5102 -0.9763 -0.2780
 5528TIP3   OH237998   0.850   0.243   2.374 -0.1845  0.4695 -0.0323
 5528TIP3    H137999   0.769   0.193   2.382  1.4853 -2.4448  0.0794
 5528TIP3    H238000   0.893   0.234   2.459  0.1819  2.2307  0.0119
 5529TIP3   OH238001   0.511   6.148   6.165 -0.0145  0.6504  0.6365
 5529TIP3    H138002   0.592   6.168   6.119 -0.5099  2.6057  0.5283
 5529TIP3    H238003   0.530   6.067   6.213  2.3128  1.5339  1.3595
 5530TIP3   OH238004   2.197   5.133  15.841 -0.0422  0.3469 -0.1089
 5530TIP3    H138005   2.149   5.111  15.762  1.2134 -1.8308 -0.3352
 5530TIP3    H238006   2.191   5.054  15.896  3.3642 -0.1796 -0.2554
 5531TIP3   OH238007   6.435   6.142  16.817  0.0718 -0.0873  0.7512
 5531TIP3    H138008   6.431   6.190  16.735  1.2117  0.0637  0.7712
 5531TIP3    H238009   6.498   6.190  16.870 -0.3308 -0.4239  1.5660
 5532TIP3   OH238010   6.276   4.006   1.161 -0.8895  0.5751 -0.0148
 5532TIP3    H138011   6.196   4.054   1.179 -0.2245  1.8209 -0.2548
 5532TIP3    H238012   6.338   4.037   1.226 -0.7554 -0.8352  0.5642
 5533TIP3   OH238013   3.263   3.252   0.241  0.1966  0.0444 -0.1542
 5533TIP3    H138014   3.247   3.313   0.169 -0.9206  1.0613  0.9120
 5533TIP3    H238015   3.332   3.194   0.208  1.1293  1.7076 -1.3034
 5534TIP3   OH238016   4.176   6.303  11.509 -0.2243 -0.0883 -0.4856
 5534TIP3    H138017   4.169   6.343  11.596  0.1111  0.9727 -0.9336
 5534TIP3    H238018   4.085   6.289  11.482 -0.3375 -0.0568 -0.1316
 5535TIP3   OH238019   5.966   6.540   5.245 -0.5506  0.2581 -0.0789
 5535TIP3    H138020   5.939   6.624   5.207 -1.3199  0.3248  0.5801
 5535TIP3    H238021   5.885   6.488   5.247 -0.1297 -0.4176 -0.2624
 5536TIP3   OH238022   1.212   5.475   1.523  0.0140 -0.1069 -0.5637
 5536TIP3    H138023   1.119   5.490   1.538  0.2439  0.5462  0.2446
 5536TIP3    H238024   1.246   5.559   1.493  0.1638 -0.6009 -1.8358
 5537TIP3   OH238025   1.864   0.930  16.658  0.3402 -0.0558  0.0891
 5537TIP3    H138026   1.896   0.962  16.573 -0.1492  0.9456  0.2660
 5537TIP3    H238027   1.916   0.851  16.675  0.3548 -0.3484 -1.1992
 5538TIP3   OH238028   2.228   4.037  15.347  0.2993 -0.2134 -0.3523
 5538TIP3    H138029   2.269   4.076  15.425 -0.9497  1.0182 -0.2526
 5538TIP3    H238030   2.147   3.998  15.381 -1.1481  1.8690 -1.2287
 5539TIP3   OH238031   2.253   2.060  16.216  0.7137 -0.1449  0.0435
 5539TIP3    H138032   2.220   2.052  16.127  0.9000 -0.9060  0.0314
 5539TIP3    H238033   2.186   2.018  16.270  0.5709  0.3720  0.2739
 5540TIP3   OH238034   2.452   5.146  16.547  0.0088  0.2980  1.1102
 5540TIP3    H138035   2.512   5.165  16.475 -1.4867 -1.1657 -0.6107
 5540TIP3    H238036   2.502   5.089  16.605  0.3236 -0.9803 -0.3369
 5541TIP3   OH238037   0.530   6.253  15.783  0.2489  0.0573 -0.0934
 5541TIP3    H138038   0.500   6.224  15.869  0.1664  0.8707  0.1641
 5541TIP3    H238039   0.479   6.201  15.721 -0.5068  0.2651  0.3453
 5542TIP3   OH238040   4.864   1.887   0.549  0.5338 -0.6326  0.0571
 5542TIP3    H138041   4.811   1.860   0.474 -3.2563  1.3495  1.7504
 5542TIP3    H238042   4.927   1.950   0.513 -1.0966  0.1701 -1.5317
 5543TIP3   OH238043   0.729   1.345  11.194 -0.3574 -0.2544  0.4434
 5543TIP3    H138044   0.654   1.323  11.138 -1.3276  0.4256  1.4387
 5543TIP3    H238045   0.695   1.341  11.283  0.6642  0.5848  0.8926
 5544TIP3   OH238046   5.862   3.452   2.789 -0.3202  0.1661  0.4651
 5544TIP3    H138047   5.877   3.404   2.870 -0.4127 -1.1604 -0.2649
 5544TIP3    H238048   5.897   3.394   2.721 -0.9111  0.9163 -0.5010
 5545TIP3   OH238049   0.384   3.295  12.314 -0.2975  0.4413  0.0984
 5545TIP3    H138050   0.361   3.292  12.407  2.8611  0.1848  0.9844
 5545TIP3    H238051   0.475   3.264  12.311  0.1379  1.7185 -2.9115
 5546TIP3   OH238052   1.343   5.016   5.185  0.4705  0.2791 -0.2463
 5546TIP3    H138053   1.289   4.938   5.176  0.8965 -0.0653  0.1347
 5546TIP3    H238054   1.358   5.046   5.095  0.0955  0.0703 -0.3775
 5547TIP3   OH238055   1.934   0.347  14.400 -0.7691 -0.1175  0.2381
 5547TIP3    H138056   1.929   0.352  14.496  2.0221 -0.6267  0.5015
 5547TIP3    H238057   1.934   0.438  14.371 -1.2509  0.0504  0.7572
 5548TIP3   OH238058   6.087   1.139   3.704 -0.1627  0.3322 -0.0949
 5548TIP3    H138059   6.030   1.071   3.668 -0.3014  0.0634  0.6219
 5548TIP3    H238060   6.027   1.209   3.730 -0.2107 -0.1082  1.0094
 5549TIP3   OH238061   4.382   4.606   3.690 -0.8969 -0.4422  0.3517
 5549TIP3    H138062   4.389   4.607   3.595  0.2123 -0.6568  0.4175
 5549TIP3    H238063   4.374   4.514   3.713  0.2145 -0.5171  0.5281
 5550TIP3   OH238064   0.821   0.818  14.058  0.0861 -0.4142 -0.7663
 5550TIP3    H138065   0.878   0.802  13.983  0.3142 -1.1605 -0.4470
 5550TIP3    H238066   0.813   0.732  14.101 -0.2547 -0.0549 -0.0941
 5551TIP3   OH238067   0.433   3.214   3.852  0.8447 -0.3711 -0.4466
 5551TIP3    H138068   0.486   3.141   3.885 -0.0920  0.3808  3.1806
 5551TIP3    H238069   0.360   3.172   3.806  0.9455 -1.7078  0.5437
 5552TIP3   OH238070   0.495   2.172   3.657 -0.3089 -0.5935  0.0475
 5552TIP3    H138071   0.493   2.233   3.731  0.4487 -1.9500  1.2403
 5552TIP3    H238072   0.413   2.123   3.663 -1.2227  0.6832 -1.2983
 5553TIP3   OH238073   6.206   5.275   3.660  0.5520  0.0355  0.2357
 5553TIP3    H138074   6.236   5.260   3.750 -3.2597  0.6150  1.8170
 5553TIP3    H238075   6.151   5.353   3.667 -3.0263 -2.0760 -1.6998
 5554TIP3   OH238076   4.412   2.189   1.216 -0.0415 -0.0379  0.5663
 5554TIP3    H138077   4.459   2.250   1.272 -1.5722  1.2430  0.5432
 5554TIP3    H238078   4.402   2.110   1.270 -1.7751  1.2699  2.3064
 5555TIP3   OH238079   5.867   5.298  12.568  0.3233 -0.5087  0.1626
 5555TIP3    H138080   5.935   5.234  12.546 -0.8569 -1.7608  0.0353
 5555TIP3    H238081   5.820   5.312  12.486 -0.5226 -0.8214  0.5880
 5556TIP3   OH238082   1.559   0.081   4.554 -0.2909 -0.5621 -0.0779
 5556TIP3    H138083   1.523  -0.006   4.536  0.7159 -1.2332  1.0211
 5556TIP3    H238084   1.558   0.125   4.469 -3.2750 -0.6524 -0.2002
 5557TIP3   OH238085   5.099   0.619   5.597  0.7740 -0.2985  0.4874
 5557TIP3    H138086   5.131   0.648   5.682  0.3273  1.0004  0.2327
 5557TIP3    H238087   5.178   0.602   5.546  1.0605  0.4314  0.6756
 5558TIP3   OH238088   1.491   3.380  16.998  0.3445  0.4622 -0.1885
 5558TIP3    H138089   1.419   3.423  16.953  0.5661  0.0101 -0.9846
 5558TIP3    H238090   1.568   3.399  16.944  0.2040 -2.2484 -1.4572
 5559TIP3   OH238091   3.933   5.348   1.142  0.3176  0.0292 -0.2726
 5559TIP3    H138092   3.892   5.300   1.214  0.8199  0.0220  0.0185
 5559TIP3    H238093   3.882   5.429   1.134 -1.3532 -1.0777 -1.6214
 5560TIP3   OH238094   3.572   4.994  12.881 -0.0337  0.8383  0.1625
 5560TIP3    H138095   3.542   5.072  12.834 -0.9505  0.7464  0.5701
 5560TIP3    H238096   3.534   5.003  12.968 -0.9424 -0.5223 -0.0637
 5561TIP3   OH238097   0.296   2.783   1.917 -0.1919  0.1037 -0.5895
 5561TIP3    H138098   0.333   2.694   1.921 -0.8281 -0.1421 -0.0886
 5561TIP3    H238099   0.271   2.794   1.825 -0.8900 -0.5585 -0.4847
 5562TIP3   OH238100   0.843   4.862  15.586  0.0595 -0.0822 -0.2010
 5562TIP3    H138101   0.752   4.892  15.580 -0.3242 -0.9731  0.7455
 5562TIP3    H238102   0.836   4.766  15.586  1.0207 -0.1561 -0.3593
 5563TIP3   OH238103   6.563   4.027  14.001 -0.5926 -0.0908 -0.3109
 5563TIP3    H138104   6.592   4.100  14.055 -0.8518  2.2665 -3.1099
 5563TIP3    H238105   6.619   3.954  14.026  0.7937  1.4957  1.4799
 5564TIP3   OH238106   4.627   4.843   4.622 -0.3758  0.0052 -0.5613
 5564TIP3    H138107   4.692   4.857   4.691  0.9528 -1.5952 -1.4344
 5564TIP3    H238108   4.583   4.928   4.613 -0.2168  0.4013  1.8453
 5565TIP3   OH238109   4.600   0.710   3.889 -0.0864 -0.0958 -0.3444
 5565TIP3    H138110   4.588   0.677   3.800  0.8622 -0.2823 -0.4115
 5565TIP3    H238111   4.676   0.768   3.883  1.1100 -1.4858  0.6731
 5566TIP3   OH238112   1.303   2.047   2.615  0.1902 -0.2407 -0.6119
 5566TIP3    H138113   1.297   2.092   2.531 -1.7583 -0.3034 -0.5510
 5566TIP3    H238114   1.270   2.111   2.678 -2.4873 -1.5735 -0.5009
 5567TIP3   OH238115   0.025   1.603   2.886  0.2908  0.1063 -0.2371
 5567TIP3    H138116   0.102   1.584   2.832 -1.2720 -2.2441 -1.8561
 5567TIP3    H238117  -0.028   1.662   2.832  0.3989  0.7708  0.3690
 5568TIP3   OH238118   1.419   4.697   2.686  0.5929 -0.0168 -0.2297
 5568TIP3    H138119   1.414   4.747   2.605  1.0939  0.0473 -0.2240
 5568TIP3    H238120   1.379   4.755   2.752 -4.3347 -1.8689 -1.1932
 5569TIP3   OH238121   4.413   6.007  15.006 -0.3953  0.1714 -0.6174
 5569TIP3    H138122   4.416   6.012  14.911 -1.9831  2.1200 -0.6371
 5569TIP3    H238123   4.433   6.096  15.035 -2.5239  0.2825  0.7210
 5570TIP3   OH238124   5.158   0.326  15.275  0.3070 -0.1733 -0.0533
 5570TIP3    H138125   5.065   0.333  15.294  0.3078  2.2231 -0.6455
 5570TIP3    H238126   5.164   0.256  15.209 -1.1296  0.0242 -0.4264
 5571TIP3   OH238127   1.990   1.836  11.765 -0.2783 -0.0423 -0.4218
 5571TIP3    H138128   1.993   1.758  11.819 -4.1646 -0.2971 -0.2683
 5571TIP3    H238129   2.007   1.908  11.826 -0.5566 -0.5760  0.3006
 5572TIP3   OH238130   1.749   6.569   6.304 -0.0614 -0.3640  0.2324
 5572TIP3    H138131   1.802   6.571   6.383  1.8648 -3.8339 -0.7730
 5572TIP3    H238132   1.664   6.535   6.333  0.1968 -0.3775  0.9966
 5573TIP3   OH238133   4.309   5.111  11.611 -0.4595  0.1430 -0.1589
 5573TIP3    H138134   4.263   5.185  11.651 -2.2676 -1.7370  1.5279
 5573TIP3    H238135   4.298   5.123  11.517 -4.3546  0.0090  0.1137
 5574TIP3   OH238136   2.132   4.367   2.503  0.0373  0.0010 -0.8157
 5574TIP3    H138137   2.120   4.291   2.560 -0.3051  0.7003  0.0664
 5574TIP3    H238138   2.132   4.331   2.414 -1.2896 -0.8891 -0.4682
 5575TIP3   OH238139   3.079   5.098   0.250 -0.3656 -0.6174  0.0554
 5575TIP3    H138140   3.010   5.057   0.198 -0.1371 -2.2062  0.9204
 5575TIP3    H238141   3.083   5.044   0.329  1.8740 -0.5652  0.0207
 5576TIP3   OH238142   4.880   6.572  12.345 -0.6827  0.6971  0.4730
 5576TIP3    H138143   4.897   6.575  12.439  2.4631  1.0050  0.0339
 5576TIP3    H238144   4.857   6.662  12.322  0.5050  1.0810  0.7111
 5577TIP3   OH238145   4.765   4.821   2.657  0.0095 -0.0636  0.5260
 5577TIP3    H138146   4.800   4.849   2.572 -1.4625  1.3105  0.3164
 5577TIP3    H238147   4.676   4.856   2.658  0.1261  0.3030  2.7982
 5578TIP3   OH238148   2.188   3.664  16.972  0.2977  0.2389  0.0648
 5578TIP3    H138149   2.226   3.576  16.966 -1.0071 -0.4401  1.2315
 5578TIP3    H238150   2.236   3.706  17.043  2.2917  1.2420 -1.7682
 5579TIP3   OH238151   5.673   6.169  11.033  0.0711  0.0348 -0.0610
 5579TIP3    H138152   5.701   6.195  11.121 -1.2251 -2.2689  1.1425
 5579TIP3    H238153   5.726   6.092  11.013  0.1337  0.3555 -1.1874
 5580TIP3   OH238154   5.330   4.416  14.683  0.3954  0.3542 -0.7709
 5580TIP3    H138155   5.323   4.503  14.721  1.2615  0.4883 -0.8992
 5580TIP3    H238156   5.417   4.413  14.644 -0.5168  0.3259 -3.0068
 5581TIP3   OH238157   5.348   0.366   4.719  0.4093  0.7253  0.0985
 5581TIP3    H138158   5.330   0.451   4.759 -0.0953 -0.2056  1.9753
 5581TIP3    H238159   5.271   0.347   4.666  1.0449  1.9414 -1.3217
 5582TIP3   OH238160   4.089   6.039   4.873 -0.6502 -0.0480  0.0181
 5582TIP3    H138161   4.021   6.060   4.937  1.8077  0.6528  2.5892
 5582TIP3    H238162   4.086   5.944   4.865 -2.9159  0.0511 -1.2062
 5583TIP3   OH238163   0.432   5.298  12.306 -0.0427 -0.0230 -0.7399
 5583TIP3    H138164   0.469   5.306  12.218  1.3972 -1.8152 -0.3615
 5583TIP3    H238165   0.472   5.219  12.341  0.6134  1.4506  2.1114
 5584TIP3   OH238166   1.921   0.513   3.056  0.2876  0.2432  0.1021
 5584TIP3    H138167   1.859   0.467   3.112  0.3832  0.8185  0.6910
 5584TIP3    H238168   1.922   0.603   3.089  1.9529  0.0971  0.5665
 5585TIP3   OH238169   2.600   5.972  16.913  0.2981  0.3139  0.3655
 5585TIP3    H138170   2.675   6.025  16.940  1.0443  0.9631 -2.6870
 5585TIP3    H238171   2.533   6.035  16.888  0.1197 -0.2151 -0.5205
 5586TIP3   OH238172   0.592   1.253   3.988 -0.1760  0.0558  0.1078
 5586TIP3    H138173   0.607   1.332   3.935 -0.5643  1.8322  2.4758
 5586TIP3    H238174   0.510   1.216   3.953 -0.3665  1.1030 -0.6110
 5587TIP3   OH238175   4.319   1.488   1.596 -0.2776 -0.1288  0.0003
 5587TIP3    H138176   4.309   1.395   1.576  1.4826 -0.2701 -0.4177
 5587TIP3    H238177   4.238   1.512   1.640 -1.3337 -1.5313 -1.0738
 5588TIP3   OH238178   6.026   1.250   1.601 -0.1098  0.2585  0.1729
 5588TIP3    H138179   5.960   1.240   1.533 -0.2525  0.9510  0.2013
 5588TIP3    H238180   6.082   1.322   1.571  0.2140  0.1393  0.4765
 5589TIP3   OH238181   6.282   6.713   1.224 -0.1501  0.8944  0.1999
 5589TIP3    H138182   6.371   6.745   1.208 -0.1355  0.0926 -1.5355
 5589TIP3    H238183   6.264   6.737   1.315  1.0314  2.9498 -0.0530
 5590TIP3   OH238184   4.146   4.116   0.944 -0.5196  0.6872 -0.2015
 5590TIP3    H138185   4.093   4.051   0.991  0.7582 -0.1657  0.1034
 5590TIP3    H238186   4.168   4.181   1.010 -0.1426  0.3792 -0.0208
 5591TIP3   OH238187   0.175   1.079   2.671 -0.3332 -0.4051 -0.4688
 5591TIP3    H138188   0.122   1.119   2.740 -0.0195 -0.7648 -0.0101
 5591TIP3    H238189   0.148   1.124   2.591 -1.8049 -1.0371 -0.3618
 5592TIP3   OH238190   4.668   2.325  15.054  0.4710 -0.3591  0.2231
 5592TIP3    H138191   4.664   2.230  15.043 -0.8598 -0.3701  0.6227
 5592TIP3    H238192   4.598   2.358  14.997  0.0337  0.2632  1.0955
 5593TIP3   OH238193   2.085   3.762  12.485  0.3198 -0.4108 -0.0855
 5593TIP3    H138194   2.042   3.780  12.401  0.7560 -0.1209 -0.2522
 5593TIP3    H238195   2.100   3.667  12.484  0.2355 -0.4232 -0.2965
 5594TIP3   OH238196   6.243   5.557   6.146 -0.3200  0.2787 -0.6943
 5594TIP3    H138197   6.312   5.602   6.196 -1.2994  0.4955  0.4992
 5594TIP3    H238198   6.257   5.585   6.055  0.8139  0.7562 -0.3916
 5595TIP3   OH238199   4.522   3.486  12.904  0.0190 -0.2659 -0.5658
 5595TIP3    H138200   4.442   3.439  12.882 -0.6360  1.2988 -1.7271
 5595TIP3    H238201   4.587   3.455  12.840  0.4537 -1.7485  0.5607
 5596TIP3   OH238202   6.550   6.685  14.535 -0.2482 -0.2388  0.4774
 5596TIP3    H138203   6.514   6.613  14.586  0.6988 -0.6246  0.6361
 5596TIP3    H238204   6.639   6.696  14.570  0.1940 -0.0838 -0.6548
 5597TIP3   OH238205   0.224   1.302  14.368  0.3724 -0.2465 -0.8742
 5597TIP3    H138206   0.149   1.328  14.313 -0.4906  0.3567  0.5284
 5597TIP3    H238207   0.299   1.346  14.328 -0.3713  0.8323 -1.1271
 5598TIP3   OH238208   6.239   6.811   5.525 -0.1837 -0.4896  0.3107
 5598TIP3    H138209   6.265   6.755   5.598  1.9211  0.6466  0.5031
 5598TIP3    H238210   6.245   6.754   5.448  0.1940 -1.0001  0.7117
 5599TIP3   OH238211   2.859   1.328   1.797 -0.2046  0.4773 -0.2807
 5599TIP3    H138212   2.877   1.325   1.703  0.7922 -1.0605 -0.0794
 5599TIP3    H238213   2.767   1.354   1.804 -1.0158 -1.7273 -1.7833
 5600TIP3   OH238214   4.430   5.050  14.511 -0.0375 -0.7505 -0.6290
 5600TIP3    H138215   4.340   5.020  14.521 -0.5520  0.5471 -1.1843
 5600TIP3    H238216   4.482   4.986  14.561 -1.1204 -2.1588 -1.2362
 5601TIP3   OH238217   2.940   2.704  11.348 -0.2676  0.0888 -0.2164
 5601TIP3    H138218   2.951   2.739  11.260  1.1158 -1.1660 -0.5953
 5601TIP3    H238219   2.862   2.747  11.382 -1.3533 -0.0505 -2.3795
 5602TIP3   OH238220   2.800   2.474  13.467  0.2523 -0.2908  0.3177
 5602TIP3    H138221   2.715   2.433  13.451 -0.3141  0.5619  1.0287
 5602TIP3    H238222   2.793   2.509  13.556  1.2079  0.1463  0.2306
 5603TIP3   OH238223   4.982   5.949   4.285  0.6025 -0.0961  0.1256
 5603TIP3    H138224   4.910   5.896   4.251  1.4584  0.2189 -2.3852
 5603TIP3    H238225   5.042   5.885   4.325  0.1688 -0.6577 -0.1121
 5604TIP3   OH238226   0.626   4.146  12.524  0.9249 -0.3465  0.2506
 5604TIP3    H138227   0.547   4.147  12.577  1.7468 -0.8130  1.5505
 5604TIP3    H238228   0.671   4.228  12.547  1.6332 -0.8896  0.8429
 5605TIP3   OH238229   2.772   6.245   3.898  0.1761 -0.3351 -0.0653
 5605TIP3    H138230   2.836   6.250   3.969 -1.1601  0.6242  1.1158
 5605TIP3    H238231   2.770   6.152   3.874  0.4081 -0.7419  1.3881
 5606TIP3   OH238232   3.104   3.921  15.557 -0.6611  0.0311 -0.0853
 5606TIP3    H138233   3.138   3.863  15.625  0.3685  0.1921 -0.4459
 5606TIP3    H238234   3.150   3.896  15.477  0.3505  1.7752 -0.1124
 5607TIP3   OH238235   0.707   0.661   0.956 -0.2266 -0.3551 -0.0738
 5607TIP3    H138236   0.765   0.679   0.882 -1.4352 -0.3029 -1.0419
 5607TIP3    H238237   0.652   0.739   0.963 -1.2593 -1.0541 -0.2291
 5608TIP3   OH238238   6.673   3.451  12.093 -0.1234 -0.6574 -0.0883
 5608TIP3    H138239   6.636   3.374  12.138 -1.8433 -0.5388 -1.1680
 5608TIP3    H238240   6.596   3.505  12.072  1.1381  2.0962  1.8588
 5609TIP3   OH238241   3.787   0.849  11.828  0.0672 -0.6819 -0.7205
 5609TIP3    H138242   3.865   0.808  11.864  0.1305  0.7428  0.8993
 5609TIP3    H238243   3.726   0.776  11.815  1.2570 -1.6708 -0.9384
 5610TIP3   OH238244   2.347   2.454  14.238  0.3918  0.2803  0.0864
 5610TIP3    H138245   2.308   2.479  14.155 -0.9680  0.4457  0.7441
 5610TIP3    H238246   2.438   2.484  14.233  0.4144  0.0237 -1.4272
 5611TIP3   OH238247   5.208   6.076   5.836 -0.0338 -0.8151  0.0293
 5611TIP3    H138248   5.135   6.045   5.783  0.1992 -1.1177 -0.1164
 5611TIP3    H238249   5.278   6.014   5.819 -0.3955 -1.7925  1.8126
 5612TIP3   OH238250   5.833   1.718   5.028  0.4425 -0.5738 -0.3069
 5612TIP3    H138251   5.877   1.797   4.996  0.1079 -0.1934  0.1631
 5612TIP3    H238252   5.887   1.687   5.100  0.2500 -0.4377 -0.1055
 5613TIP3   OH238253   6.257   2.402  11.933 -0.5007  0.4054  0.3068
 5613TIP3    H138254   6.305   2.380  11.853 -3.2929  0.1312 -1.4343
 5613TIP3    H238255   6.273   2.328  11.992 -1.4696 -1.3374 -1.5233
 5614TIP3   OH238256   3.824   1.672  15.557  0.6216  0.0136  0.2315
 5614TIP3    H138257   3.744   1.708  15.595  0.0846 -1.3742  0.4570
 5614TIP3    H238258   3.794   1.614  15.487  1.5300  1.1541 -1.1693
 5615TIP3   OH238259   3.215   6.514   0.052 -0.2390 -0.2649  0.6859
 5615TIP3    H138260   3.266   6.448   0.099  1.6689  0.6230 -0.0108
 5615TIP3    H238261   3.218   6.591   0.109 -1.2458 -0.3457  0.8577
 5616TIP3   OH238262   3.508   0.974  12.386 -0.8916  0.0569  0.4037
 5616TIP3    H138263   3.516   1.064  12.357  0.8257 -0.2746 -0.2539
 5616TIP3    H238264   3.506   0.979  12.481 -1.0690  0.7931  0.3653
 5617TIP3   OH238265   3.135   4.887   5.447 -0.2464 -0.7427  0.2207
 5617TIP3    H138266   3.088   4.952   5.500 -2.9089 -0.4506 -2.2583
 5617TIP3    H238267   3.074   4.814   5.439  0.6096 -1.3372 -1.3231
 5618TIP3   OH238268   0.516   1.394  15.168  0.0516  0.1390  0.0108
 5618TIP3    H138269   0.483   1.328  15.107 -1.1501  2.0671 -1.5198
 5618TIP3    H238270   0.611   1.389  15.160  0.1752 -3.0606  1.8314
 5619TIP3   OH238271   2.192   4.991  16.526 -0.0158  1.0092 -0.1191
 5619TIP3    H138272   2.102   4.965  16.544 -0.8199  1.6216 -2.7665
 5619TIP3    H238273   2.188   5.087  16.517  1.2746  1.2497  1.4026
 5620TIP3   OH238274   0.204   4.871   0.449 -0.2201  0.1329 -0.4749
 5620TIP3    H138275   0.224   4.856   0.541  0.3110  0.5641 -0.5120
 5620TIP3    H238276   0.134   4.936   0.449  1.4986  2.0699 -0.3890
 5621TIP3   OH238277   0.592   1.575   2.054  0.8136  0.1522 -0.3423
 5621TIP3    H138278   0.623   1.639   1.990  0.7211  1.1471  0.5824
 5621TIP3    H238279   0.664   1.568   2.118 -0.4038  1.7805  1.3084
 5622TIP3   OH238280   3.706   0.195   0.507 -0.0699  0.1594  0.1198
 5622TIP3    H138281   3.630   0.190   0.565 -1.0274 -1.0324 -1.1543
 5622TIP3    H238282   3.742   0.283   0.521 -1.8871  0.8795  0.4866
 5623TIP3   OH238283   1.876   3.848  16.290 -0.4592 -0.0319 -0.4759
 5623TIP3    H138284   1.921   3.813  16.367 -0.6150 -1.3416 -0.9539
 5623TIP3    H238285   1.798   3.890  16.325  0.4674  1.1435  0.2453
 5624TIP3   OH238286   1.143   4.969  14.157 -1.2405  0.2612 -0.5983
 5624TIP3    H138287   1.204   4.958  14.084 -0.0900  0.1819  0.3405
 5624TIP3    H238288   1.083   5.038  14.129 -0.6659  0.4017 -1.5137
 5625TIP3   OH238289   3.473   0.557   1.244 -0.4663  0.0336 -0.4356
 5625TIP3    H138290   3.453   0.649   1.260  0.5533 -0.2194  3.1345
 5625TIP3    H238291   3.388   0.514   1.243 -0.8104  0.6301  1.1497
 5626TIP3   OH238292   4.425   3.374  14.268 -0.0130 -0.5248  0.6068
 5626TIP3    H138293   4.483   3.345  14.339 -0.9152 -1.0261  1.1540
 5626TIP3    H238294   4.339   3.384  14.309 -0.6874 -1.4070 -0.5331
 5627TIP3   OH238295   0.933   2.791  12.838 -0.7133  0.0928  0.5389
 5627TIP3    H138296   0.908   2.841  12.761  1.5745  1.1141  0.3904
 5627TIP3    H238297   0.928   2.700  12.810 -0.1219  0.4446 -0.7546
 5628TIP3   OH238298   3.495   4.188  11.642 -0.0948  0.5814  1.0182
 5628TIP3    H138299   3.461   4.169  11.730  1.4309  0.3345  1.5981
 5628TIP3    H238300   3.418   4.204  11.589 -1.0692  0.5562  2.3712
 5629TIP3   OH238301   6.793   1.730   3.989 -0.0321 -0.3275 -0.1974
 5629TIP3    H138302   6.744   1.812   3.983  1.2990  0.5917  0.8608
 5629TIP3    H238303   6.804   1.715   4.083  0.3462 -1.3725 -0.3876
 5630TIP3   OH238304   4.144   2.453   2.927  0.0106 -0.2858 -0.1231
 5630TIP3    H138305   4.142   2.363   2.893 -0.4734  0.2672 -1.6511
 5630TIP3    H238306   4.054   2.468   2.958  0.3214 -0.6169  0.9655
 5631TIP3   OH238307   1.962   0.408  16.517  0.8279 -0.1518  0.1648
 5631TIP3    H138308   2.033   0.379  16.459  0.3527  0.0841 -0.5402
 5631TIP3    H238309   1.883   0.401  16.464  0.2423 -0.8577  1.0944
 5632TIP3   OH238310   3.683   0.410   5.110  0.1031  1.1479 -0.3597
 5632TIP3    H138311   3.766   0.434   5.069 -0.1824 -0.0540 -1.6885
 5632TIP3    H238312   3.703   0.330   5.158  0.0026  1.5805  0.4299
 5633TIP3   OH238313   1.631   4.929   2.827  0.1207  0.1094 -0.4812
 5633TIP3    H138314   1.657   4.943   2.736  0.5695 -0.5620 -0.4653
 5633TIP3    H238315   1.694   4.980   2.878  0.1961  0.0570 -0.5225
 5634TIP3   OH238316   2.629   0.230   2.405 -0.2758  0.3859  0.9560
 5634TIP3    H138317   2.563   0.204   2.341  1.9169  0.1437 -1.3693
 5634TIP3    H238318   2.610   0.323   2.422 -0.7907  0.5066 -0.1986
 5635TIP3   OH238319   0.488   4.699   0.615 -0.1228 -0.1501  0.5179
 5635TIP3    H138320   0.410   4.734   0.656 -1.0202 -0.5448 -0.7788
 5635TIP3    H238321   0.532   4.775   0.577 -1.2886 -0.2044 -1.0147
 5636TIP3   OH238322   5.761   6.775   1.939  0.0626 -0.5562 -0.2789
 5636TIP3    H138323   5.683   6.730   1.970  0.0351 -0.5607 -0.3552
 5636TIP3    H238324   5.733   6.820   1.860 -0.4729  1.3710  0.9405
 5637TIP3   OH238325   2.228   5.412  12.584  0.1748  0.1782 -0.0566
 5637TIP3    H138326   2.198   5.404  12.494  0.3638  0.6466 -0.1613
 5637TIP3    H238327   2.201   5.329  12.625  0.4553 -0.2107 -0.6399
 5638TIP3   OH238328   3.115   2.044   2.723 -0.4879  0.2979 -0.4376
 5638TIP3    H138329   3.075   2.030   2.637  0.0291 -1.2396 -0.4591
 5638TIP3    H238330   3.123   1.956   2.760 -0.3710  0.9047  1.0446
 5639TIP3   OH238331   3.862   2.052   3.692  0.4890 -0.2989  0.2043
 5639TIP3    H138332   3.792   1.989   3.673 -1.5159  1.8900 -0.2828
 5639TIP3    H238333   3.915   2.053   3.613  0.4269 -1.2217  0.1441
 5640TIP3   OH238334   4.918   4.834   5.614 -0.2109 -0.1158 -0.1981
 5640TIP3    H138335   4.836   4.878   5.591 -1.0646 -1.6292 -0.1707
 5640TIP3    H238336   4.910   4.816   5.708  1.0706  1.5519  0.2673
 5641TIP3   OH238337   4.036   0.959   4.880  0.5510  0.0811  0.1430
 5641TIP3    H138338   4.058   0.868   4.859 -0.9175  0.0882 -1.6397
 5641TIP3    H238339   4.111   1.009   4.848  1.1124 -0.4378  0.6187
 5642TIP3   OH238340   1.728   1.869   1.412 -0.5993 -0.6862 -0.0235
 5642TIP3    H138341   1.665   1.865   1.341 -0.0918  0.2152 -0.5432
 5642TIP3    H238342   1.808   1.831   1.376 -0.2891 -0.0671  0.0070
 5643TIP3   OH238343   0.491   6.644  12.685  0.1462 -0.1773 -0.4403
 5643TIP3    H138344   0.511   6.583  12.756  0.9975 -1.1043 -1.4269
 5643TIP3    H238345   0.440   6.592  12.623  1.5217 -0.1446 -1.6555
 5644TIP3   OH238346   3.549   6.625   1.204  0.1716  0.0686  0.1336
 5644TIP3    H138347   3.479   6.597   1.262 -1.5062  1.4161 -1.1246
 5644TIP3    H238348   3.614   6.666   1.262  0.1174 -1.5118  1.3600
 5645TIP3   OH238349   1.141   2.642  11.037  0.9097 -0.0289 -0.6683
 5645TIP3    H138350   1.078   2.715  11.041  1.7282  0.7286 -1.2913
 5645TIP3    H238351   1.096   2.575  10.986 -0.3735 -0.5202  1.0079
 5646TIP3   OH238352   1.694   1.718  14.076 -0.0372 -0.3369  0.0795
 5646TIP3    H138353   1.736   1.755  13.999  0.0665  1.2606  0.8576
 5646TIP3    H238354   1.660   1.633  14.047 -0.8458  0.6347 -1.9865
 5647TIP3   OH238355   2.713   1.254  11.487  0.1767  0.4855 -0.4078
 5647TIP3    H138356   2.712   1.161  11.464 -1.3449  0.6804 -1.2373
 5647TIP3    H238357   2.751   1.257  11.575  2.4734 -0.6749 -1.2752
 5648TIP3   OH238358   0.687   0.120  16.475  0.2422 -0.1415  0.1822
 5648TIP3    H138359   0.766   0.137  16.525  1.3316  0.6630 -1.6916
 5648TIP3    H238360   0.632   0.196  16.489  0.7421  0.2962 -0.1953
 5649TIP3   OH238361   3.111   4.924   0.475 -0.0933 -0.1728  0.1517
 5649TIP3    H138362   3.017   4.911   0.464 -0.2527 -0.6671  1.8392
 5649TIP3    H238363   3.151   4.857   0.420 -0.7135 -0.1580 -0.3386
 5650TIP3   OH238364   4.932   4.098  15.043 -0.6765  0.0482 -0.6718
 5650TIP3    H138365   5.015   4.118  15.087 -0.0265 -1.5450 -1.0718
 5650TIP3    H238366   4.927   4.160  14.971  0.6315 -0.3695 -1.1616
 5651TIP3   OH238367   5.014   4.729  14.986 -0.2845  0.1173 -0.3118
 5651TIP3    H138368   4.956   4.794  15.025  0.8142  0.8399  0.1450
 5651TIP3    H238369   4.976   4.645  15.011 -0.2141  0.5716  1.3837
 5652TIP3   OH238370   6.647   3.450   5.359 -0.5325 -0.2603  0.4950
 5652TIP3    H138371   6.727   3.398   5.349 -0.0999  0.5624 -0.5586
 5652TIP3    H238372   6.679   3.539   5.375 -1.2584 -0.2373  2.0870
 5653TIP3   OH238373   4.114   2.020  16.925 -0.3731 -0.1997 -0.2390
 5653TIP3    H138374   4.145   2.054  16.841  0.1737 -1.8811 -0.7677
 5653TIP3    H238375   4.185   1.962  16.954 -1.3866 -1.1325  0.4312
 5654TIP3   OH238376   4.231   2.199   1.895 -0.1941  0.2185 -0.4161
 5654TIP3    H138377   4.273   2.259   1.834 -1.8641  0.5136 -1.3063
 5654TIP3    H238378   4.180   2.256   1.954 -2.3386 -0.2857 -1.6865
 5655TIP3   OH238379   0.793   3.678  13.379 -0.2541  0.4737  0.3519
 5655TIP3    H138380   0.780   3.771  13.398  0.6876  0.3139  1.8951
 5655TIP3    H238381   0.867   3.676  13.319 -0.3980  0.7233  0.1631
 5656TIP3   OH238382   5.973   2.973   3.496 -0.5215 -0.4683  0.2729
 5656TIP3    H138383   6.049   3.007   3.542 -0.4410  0.1919 -0.3328
 5656TIP3    H238384   5.921   2.930   3.564 -0.2853  0.2715  0.9414
 5657TIP3   OH238385   1.676   1.186  16.575  0.0725 -0.3068 -0.2463
 5657TIP3    H138386   1.726   1.137  16.509 -0.6348 -1.2920 -0.0764
 5657TIP3    H238387   1.735   1.190  16.651  1.1926  1.4991 -1.1477
 5658TIP3   OH238388   1.077   0.255  14.969  0.3826  0.1369 -0.3913
 5658TIP3    H138389   1.076   0.160  14.957 -0.6955 -0.1141  1.3932
 5658TIP3    H238390   1.170   0.276  14.979  0.7875 -0.4572 -2.3964
 5659TIP3   OH238391   1.631   5.942  16.278 -0.3373  0.1119 -0.1814
 5659TIP3    H138392   1.662   5.863  16.234  0.4870  0.8154 -0.9288
 5659TIP3    H238393   1.660   5.932  16.368  0.9223  0.1223 -0.5557
 5660TIP3   OH238394   3.071   1.592   1.001 -0.0522 -0.0495  0.2516
 5660TIP3    H138395   2.989   1.610   1.047  1.2383  3.7219  1.5042
 5660TIP3    H238396   3.105   1.679   0.979  2.6654 -1.5350 -1.9994
 5661TIP3   OH238397   1.035   2.346   3.878 -0.0830  0.0908 -0.0691
 5661TIP3    H138398   0.956   2.396   3.856 -1.0329 -1.6031 -0.6666
 5661TIP3    H238399   1.002   2.268   3.921  1.3090 -0.4417  0.0621
 5662TIP3   OH238400   5.261   1.625  11.560  0.1718  0.6730  0.0531
 5662TIP3    H138401   5.207   1.650  11.485 -0.4869 -0.1806  0.2313
 5662TIP3    H238402   5.199   1.592  11.625  0.9361 -1.0379 -0.0171
 5663TIP3   OH238403   4.509   3.039   6.367 -0.7131  0.1310 -0.7282
 5663TIP3    H138404   4.542   2.960   6.325  0.5222 -0.3238  0.9666
 5663TIP3    H238405   4.458   3.006   6.441 -0.2816  0.8998 -0.0768
 5664TIP3   OH238406   2.042   4.014  11.584 -0.0563 -0.2930 -0.3577
 5664TIP3    H138407   2.003   4.014  11.496 -0.4940 -0.8502 -0.1685
 5664TIP3    H238408   1.987   3.953  11.634  1.3815 -1.5376 -0.2309
 5665TIP3   OH238409   0.325   2.346  13.500  0.0189  0.0187  0.1346
 5665TIP3    H138410   0.248   2.403  13.507  0.4726  0.4312  2.6858
 5665TIP3    H238411   0.391   2.401  13.458 -0.4690  0.3462 -0.2231
 5666TIP3   OH238412   6.378   3.018   3.359  1.0251  0.3233  0.3520
 5666TIP3    H138413   6.324   3.096   3.368  1.1345  0.3683  0.6173
 5666TIP3    H238414   6.389   3.007   3.265  0.8730  0.5340  0.3099
 5667TIP3   OH238415   1.706   5.666  12.425  0.2966  0.7336  0.4254
 5667TIP3    H138416   1.630   5.663  12.483 -1.9531 -1.0362 -2.2862
 5667TIP3    H238417   1.670   5.694  12.340  2.8415  0.5368 -0.8333
 5668TIP3   OH238418   0.076   4.812  15.072  0.1735  0.0375 -0.6074
 5668TIP3    H138419   0.101   4.841  15.160 -0.7207 -0.7824 -0.0623
 5668TIP3    H238420   0.114   4.724  15.064  0.7594  0.3476 -1.2762
 5669TIP3   OH238421   2.001   3.515  11.528  0.0501 -0.6100  0.0582
 5669TIP3    H138422   1.982   3.607  11.511  0.4332 -0.5903 -0.2858
 5669TIP3    H238423   2.087   3.516  11.570 -0.5262 -0.7144  1.2923
 5670TIP3   OH238424   2.252   5.549   2.139 -0.1137 -0.6201  0.4808
 5670TIP3    H138425   2.203   5.623   2.174 -0.8963  0.1940 -2.1160
 5670TIP3    H238426   2.186   5.483   2.117  0.2089 -0.6638 -0.4236
 5671TIP3   OH238427   4.927   3.089  16.734 -0.5378  0.1161  0.1477
 5671TIP3    H138428   4.915   3.104  16.640 -2.2709 -2.3119 -0.1330
 5671TIP3    H238429   5.020   3.105  16.750 -0.6461  2.9594 -1.4113
 5672TIP3   OH238430   2.593   5.383  16.684  0.3077 -0.0147  0.1678
 5672TIP3    H138431   2.519   5.427  16.723  0.0454 -0.3948  0.1022
 5672TIP3    H238432   2.563   5.293  16.668  1.5013 -0.8849  2.3073
 5673TIP3   OH238433   4.268   2.401   5.634  0.6194  0.5374  0.1590
 5673TIP3    H138434   4.350   2.423   5.679  1.4585 -0.1809 -0.9549
 5673TIP3    H238435   4.274   2.307   5.618 -0.0740  0.6150 -0.6199
 5674TIP3   OH238436   1.478   4.928  13.354 -0.2356  0.2053 -0.0244
 5674TIP3    H138437   1.572   4.934  13.367  0.0339  0.6827 -1.8723
 5674TIP3    H238438   1.450   4.855  13.409  1.1484  0.2928  0.8173
 5675TIP3   OH238439   2.767   1.607   4.883  0.2777 -0.3624  0.1323
 5675TIP3    H138440   2.833   1.674   4.864 -0.7256  0.9533  1.1091
 5675TIP3    H238441   2.701   1.618   4.815 -0.3321  0.2731  0.8120
 5676TIP3   OH238442   3.229   1.829  13.742  0.3434  0.4363  0.1240
 5676TIP3    H138443   3.208   1.735  13.735  0.0683  0.3770  1.4520
 5676TIP3    H238444   3.264   1.852  13.656 -1.3476 -0.4390 -0.8452
 5677TIP3   OH238445   6.667   0.405   3.604  0.0611 -0.2377 -0.2735
 5677TIP3    H138446   6.682   0.313   3.627  0.6619 -0.2466 -0.6747
 5677TIP3    H238447   6.574   0.409   3.581 -0.3401 -0.4217  1.2184
 5678TIP3   OH238448   3.321   4.056   2.475  0.2749 -0.2610  0.4104
 5678TIP3    H138449   3.370   3.979   2.447  0.5370  0.5228 -1.4355
 5678TIP3    H238450   3.239   4.051   2.426 -1.3547 -1.2416  3.0126
 5679TIP3   OH238451   6.569   5.622   0.523  0.1176  0.0236 -0.0459
 5679TIP3    H138452   6.637   5.681   0.490 -0.7077  0.0549 -1.7865
 5679TIP3    H238453   6.613   5.537   0.529  0.2580 -0.0324 -1.5045
 5680TIP3   OH238454   2.207   4.174   2.678 -0.3759  0.1731  0.1925
 5680TIP3    H138455   2.284   4.145   2.726  0.1802  0.6538 -0.3938
 5680TIP3    H238456   2.175   4.095   2.633  1.0422  0.3909 -1.2761
 5681TIP3   OH238457   4.860   0.296   1.915 -0.2381  0.1774 -0.0092
 5681TIP3    H138458   4.831   0.209   1.944 -0.4073 -0.0868 -0.9429
 5681TIP3    H238459   4.860   0.290   1.819 -1.6935  1.6770 -0.1365
 5682TIP3   OH238460   2.716   0.482   3.404 -0.0003 -0.6224  0.9084
 5682TIP3    H138461   2.740   0.504   3.314 -1.6892 -0.4648  0.4608
 5682TIP3    H238462   2.796   0.444   3.441  0.5639 -1.2292 -0.8232
 5683TIP3   OH238463   2.383   4.630  16.357  0.1581  0.1734 -0.6142
 5683TIP3    H138464   2.367   4.582  16.276  1.5576  1.3790 -1.6819
 5683TIP3    H238465   2.469   4.600  16.386 -0.9257 -1.2971  1.2737
 5684TIP3   OH238466   3.153   5.837   0.047 -0.1324  0.3313 -0.5379
 5684TIP3    H138467   3.109   5.918   0.072 -0.8973 -0.5558  1.1274
 5684TIP3    H238468   3.247   5.857   0.055 -0.3168  1.0257 -0.0538
 5685TIP3   OH238469   4.651   5.347  15.841 -0.2837  0.0535  0.2027
 5685TIP3    H138470   4.559   5.348  15.867 -0.4713  1.2772 -0.4163
 5685TIP3    H238471   4.653   5.298  15.759 -0.7492  1.7543 -0.8836
 5686TIP3   OH238472   5.352   0.615  12.906 -0.2157  0.0217 -0.4433
 5686TIP3    H138473   5.357   0.546  12.971  0.2458 -0.1183 -0.6213
 5686TIP3    H238474   5.393   0.578  12.828 -1.0531  0.0742 -0.9126
 5687TIP3   OH238475   0.412   2.152   4.898 -0.1343 -0.1903  0.0900
 5687TIP3    H138476   0.338   2.114   4.945 -0.2226  0.2953  0.3543
 5687TIP3    H238477   0.430   2.091   4.827 -0.4728 -0.5595  0.3189
 5688TIP3   OH238478   3.815   2.538   3.168 -0.0276  0.2825 -0.0851
 5688TIP3    H138479   3.744   2.599   3.187 -0.0567  0.0959  0.4264
 5688TIP3    H238480   3.882   2.559   3.234 -1.4396 -2.5718  2.4745
 5689TIP3   OH238481   2.868   4.430  15.438  0.3765  0.0410  0.4054
 5689TIP3    H138482   2.839   4.521  15.439  0.6870  0.1767  2.5103
 5689TIP3    H238483   2.797   4.382  15.480 -0.5203 -0.9988 -2.1625
 5690TIP3   OH238484   5.074   0.208   4.980 -0.0104 -0.3162 -0.0958
 5690TIP3    H138485   5.041   0.146   5.045  0.2446  0.7808  1.1218
 5690TIP3    H238486   5.169   0.193   4.978 -0.0336 -0.4447 -0.3371
 5691TIP3   OH238487   0.097   1.662  11.606 -0.1148  0.4792 -0.2496
 5691TIP3    H138488   0.073   1.687  11.516 -0.8518  0.4978 -0.0584
 5691TIP3    H238489   0.083   1.567  11.608 -0.1766  0.4910 -0.1340
 5692TIP3   OH238490   5.836   0.766   0.046  0.1500 -0.2450 -0.6217
 5692TIP3    H138491   5.747   0.733   0.034 -0.6763  1.7768 -0.5249
 5692TIP3    H238492   5.833   0.856   0.013  2.2501 -0.2177 -0.8880
 5693TIP3   OH238493   0.713   5.950  10.576  0.6109 -0.0373 -0.0275
 5693TIP3    H138494   0.705   5.875  10.518 -0.4506  0.2284 -0.2549
 5693TIP3    H238495   0.795   5.936  10.623  1.1171 -0.6271 -1.0582
 5694TIP3   OH238496   6.156   5.925  16.504  0.0653  0.2499  0.2983
 5694TIP3    H138497   6.186   6.016  16.504 -0.4697  0.5582 -3.0613
 5694TIP3    H238498   6.153   5.901  16.411 -0.1647 -3.1010  1.0566
 5695TIP3   OH238499   5.339   0.760   5.952 -0.0824 -0.1073  0.5181
 5695TIP3    H138500   5.399   0.793   6.019 -1.4304  1.5997  0.9382
 5695TIP3    H238501   5.332   0.831   5.888 -0.1670 -1.0394 -0.5430
 5696TIP3   OH238502   3.755   6.484   0.128  0.1533 -0.4328 -0.2423
 5696TIP3    H138503   3.741   6.552   0.063 -2.2110 -0.9333 -0.3420
 5696TIP3    H238504   3.781   6.531   0.207 -0.9600  0.5650 -0.4478
 5697TIP3   OH238505   5.333   3.116   2.008 -0.6026  0.0719 -0.2635
 5697TIP3    H138506   5.429   3.119   2.008 -0.5426 -0.2878 -2.2454
 5697TIP3    H238507   5.312   3.024   1.992 -1.3823 -0.3410  2.5766
 5698TIP3   OH238508   5.007   3.283   4.095  0.1553 -0.4628 -0.2173
 5698TIP3    H138509   4.983   3.219   4.028 -0.3093 -1.1823  0.6247
 5698TIP3    H238510   5.016   3.232   4.175  0.1401  0.4762  0.3983
 5699TIP3   OH238511   2.257   2.684   0.591 -0.1894 -0.0075  0.1709
 5699TIP3    H138512   2.176   2.633   0.585 -1.3642  1.6480  1.0632
 5699TIP3    H238513   2.285   2.673   0.682 -1.0877  1.7417  0.7156
 5700TIP3   OH238514   5.339   5.847  12.248 -0.1037 -0.2176  0.6908
 5700TIP3    H138515   5.398   5.908  12.204 -0.5146  0.0564  0.5146
 5700TIP3    H238516   5.376   5.760  12.230 -1.7433 -0.4026 -2.6442
 5701TIP3   OH238517   0.729   1.273  14.175 -0.0399 -0.6464 -0.0998
 5701TIP3    H138518   0.748   1.230  14.092  1.2303  1.0222 -0.7272
 5701TIP3    H238519   0.794   1.239  14.236  0.4639 -0.2172 -0.3906
 5702TIP3   OH238520   5.531   0.146  13.452  0.2616 -0.0171 -0.3206
 5702TIP3    H138521   5.473   0.083  13.495  3.2758 -2.0841  1.0743
 5702TIP3    H238522   5.529   0.121  13.359  1.2521 -2.2091  0.1708
 5703TIP3   OH238523   4.842   3.691   0.992 -0.4526 -0.0915 -0.2389
 5703TIP3    H138524   4.764   3.715   1.042  0.1830  0.4991  0.4900
 5703TIP3    H238525   4.861   3.601   1.020 -1.6274 -0.7472 -1.4241
 5704TIP3   OH238526   6.378   1.997  13.630 -0.3283  0.0699 -0.1537
 5704TIP3    H138527   6.348   1.908  13.611 -2.4806  0.8608 -0.6540
 5704TIP3    H238528   6.381   2.001  13.726 -0.1513 -0.5417 -0.1277
 5705TIP3   OH238529   4.677   4.043  14.261 -0.4732 -0.2172 -0.1858
 5705TIP3    H138530   4.757   4.094  14.254 -1.2282  1.7170  3.1144
 5705TIP3    H238531   4.677   3.987  14.184  2.7724  1.4602 -1.5791
 5706TIP3   OH238532   5.233   2.590  15.550 -0.5446 -0.2254 -0.0552
 5706TIP3    H138533   5.265   2.514  15.502  0.5680  0.1697  0.0198
 5706TIP3    H238534   5.215   2.656  15.483 -0.2333 -0.1097 -0.0257
 5707TIP3   OH238535   1.753   4.895   3.830 -0.3478  0.4416  0.0146
 5707TIP3    H138536   1.673   4.871   3.783 -0.9278  1.8053  0.2637
 5707TIP3    H238537   1.769   4.821   3.889 -0.1439 -0.8581 -1.6001
 5708TIP3   OH238538   4.085   3.033  13.385  0.0591  0.2525 -0.4808
 5708TIP3    H138539   4.141   3.109  13.391 -1.5434  1.3811  1.6381
 5708TIP3    H238540   4.120   2.971  13.449  0.4784 -0.2086 -1.1386
 5709TIP3   OH238541   2.601   2.788   4.830 -0.5937  0.3864 -0.3428
 5709TIP3    H138542   2.581   2.784   4.737  2.9071 -0.2884 -1.2114
 5709TIP3    H238543   2.649   2.870   4.840 -0.3923  0.1483  0.7535
 5710TIP3   OH238544   1.805   6.235   4.130 -0.1142  0.4140 -0.1242
 5710TIP3    H138545   1.850   6.152   4.150  0.1584 -0.3218 -3.3149
 5710TIP3    H238546   1.872   6.302   4.144  0.6630 -0.2439 -0.6183
 5711TIP3   OH238547   5.732   0.337   1.382 -0.4782  0.5196  0.6545
 5711TIP3    H138548   5.726   0.387   1.464  0.9226 -1.0872  1.8204
 5711TIP3    H238549   5.795   0.387   1.329 -0.3084  0.8412  1.1446
 5712TIP3   OH238550   5.529   4.402   1.479 -0.5438 -0.0677  0.3619
 5712TIP3    H138551   5.487   4.392   1.393 -0.0613  2.2215 -0.2203
 5712TIP3    H238552   5.562   4.315   1.500  1.8310 -0.1947 -3.1390
 5713TIP3   OH238553   0.127   6.261  15.413 -0.1373  0.2072  0.2288
 5713TIP3    H138554   0.092   6.203  15.345  1.6703 -0.5828 -0.0734
 5713TIP3    H238555   0.054   6.273  15.473 -0.8922 -1.5425 -0.2644
 5714TIP3   OH238556   3.130   5.158   6.806 -0.4100  0.0495 -0.7248
 5714TIP3    H138557   3.135   5.180   6.899 -1.2347  0.0424 -0.6731
 5714TIP3    H238558   3.175   5.074   6.799 -0.2706  0.0907 -0.3444
 5715TIP3   OH238559   4.883   2.724   0.326  0.3960  0.1787 -0.2830
 5715TIP3    H138560   4.929   2.652   0.282 -0.0029 -1.3176  1.6396
 5715TIP3    H238561   4.934   2.741   0.405 -1.5255 -0.5623  1.1919
 5716TIP3   OH238562   3.422   0.547   0.170 -0.1733  0.1079  0.1689
 5716TIP3    H138563   3.455   0.544   0.259  0.2062  0.0652  0.0271
 5716TIP3    H238564   3.497   0.525   0.115  0.0049  1.7192 -0.2670
 5717TIP3   OH238565   1.337   0.116  13.799 -0.1123 -0.3911 -0.0243
 5717TIP3    H138566   1.307   0.129  13.709  0.1865  0.7934  0.0432
 5717TIP3    H238567   1.393   0.191  13.818  0.1276 -0.8141  1.0315
 5718TIP3   OH238568   1.072   0.434   5.632 -0.5577  0.3344 -0.5612
 5718TIP3    H138569   1.026   0.425   5.715  0.4290 -1.5330 -0.1515
 5718TIP3    H238570   1.164   0.416   5.654 -0.5848 -2.5305 -2.3880
 5719TIP3   OH238571   1.978   4.977  14.326 -0.5206 -0.7914 -0.5523
 5719TIP3    H138572   2.041   5.009  14.391  0.7567 -1.4948 -1.3931
 5719TIP3    H238573   1.898   4.962  14.375 -0.0498  0.1882  0.5507
 5720TIP3   OH238574   1.046   0.918  10.767 -0.1404 -0.6098  0.1732
 5720TIP3    H138575   1.078   0.829  10.775 -0.0400 -0.6487 -0.6173
 5720TIP3    H238576   1.005   0.922  10.681  1.5118  0.6160 -0.5973
 5721TIP3   OH238577   2.061   5.383   1.635  0.0939 -0.1095 -0.3109
 5721TIP3    H138578   2.126   5.437   1.679 -1.2808  0.7413  0.7365
 5721TIP3    H238579   2.106   5.300   1.619  2.1339  1.1465 -1.6130
 5722TIP3   OH238580   6.303   2.951  12.734  0.1840  0.0343  0.0914
 5722TIP3    H138581   6.375   2.986  12.787  0.2403  0.6908 -0.4087
 5722TIP3    H238582   6.317   2.856  12.735 -0.4652 -0.0919  2.1760
 5723TIP3   OH238583   3.081   5.334  10.505 -0.7746  0.4967 -0.1162
 5723TIP3    H138584   2.994   5.323  10.465 -0.8174  0.9310 -0.1422
 5723TIP3    H238585   3.101   5.426  10.494 -0.4531  0.4657  0.1943
 5724TIP3   OH238586   4.845   1.372  14.957 -0.2593  0.3412 -0.3807
 5724TIP3    H138587   4.869   1.330  14.874  2.0645 -0.6449  0.7088
 5724TIP3    H238588   4.813   1.301  15.012 -0.9653  0.8381 -0.1349
 5725TIP3   OH238589   0.275   1.152  15.759 -0.0401  0.2498  0.5626
 5725TIP3    H138590   0.321   1.085  15.810 -1.9066 -0.4325  1.4770
 5725TIP3    H238591   0.281   1.231  15.812  0.9832  0.4524  0.1535
 5726TIP3   OH238592   4.229   0.274  15.252  0.0279  0.1449 -0.2429
 5726TIP3    H138593   4.155   0.294  15.308 -0.0270  2.1580 -0.9686
 5726TIP3    H238594   4.190   0.253  15.167  0.2390  3.0570 -1.1725
 5727TIP3   OH238595   0.741   0.513   0.435  0.1752  0.3905 -0.4385
 5727TIP3    H138596   0.714   0.445   0.374  0.3582  0.6081 -0.7654
 5727TIP3    H238597   0.695   0.592   0.405  1.6960  0.9384 -1.4337
 5728TIP3   OH238598   0.386   1.571  14.595  0.2771  0.2406  0.5674
 5728TIP3    H138599   0.468   1.599  14.636  1.6890 -1.0550 -1.1703
 5728TIP3    H238600   0.402   1.479  14.570 -0.7306  0.6837 -2.0743
 5729TIP3   OH238601   3.300   2.491   3.693  0.6214  0.5036 -0.2202
 5729TIP3    H138602   3.347   2.539   3.624 -0.0517  0.0700 -0.9914
 5729TIP3    H238603   3.224   2.454   3.649  0.4798 -0.2574  0.6428
 5730TIP3   OH238604   3.482   3.697  15.848 -0.2353  0.4891 -0.0843
 5730TIP3    H138605   3.526   3.732  15.926 -3.2238 -3.4852  3.9620
 5730TIP3    H238606   3.540   3.627  15.818 -0.6350 -0.3291  0.9712
 5731TIP3   OH238607   5.352   6.374  11.076  0.5261 -0.0716  0.5281
 5731TIP3    H138608   5.264   6.342  11.094  0.2369  1.9272  3.2915
 5731TIP3    H238609   5.407   6.296  11.080 -1.0426 -1.3909 -1.4132
 5732TIP3   OH238610   6.327   1.273   0.898 -0.2012 -0.1777 -0.0989
 5732TIP3    H138611   6.255   1.231   0.852  0.0648 -0.6519 -0.0845
 5732TIP3    H238612   6.406   1.242   0.853  0.0216 -0.0289  0.1812
 5733TIP3   OH238613   0.937   5.551  13.535 -0.1562  0.8786  0.3980
 5733TIP3    H138614   1.032   5.541  13.533 -0.1657  0.6094  1.0977
 5733TIP3    H238615   0.910   5.506  13.615 -0.6785  2.5654  1.2064
 5734TIP3   OH238616   3.331   2.147   0.959  0.1008  0.0973 -0.4050
 5734TIP3    H138617   3.241   2.178   0.969  0.9856  2.1458  3.1445
 5734TIP3    H238618   3.381   2.227   0.938  1.7212  0.3911  3.5675
 5735TIP3   OH238619   5.496   5.708   3.042  0.4458  0.2684 -0.4140
 5735TIP3    H138620   5.516   5.775   3.108 -2.6221 -0.9719  2.0551
 5735TIP3    H238621   5.511   5.625   3.087  1.5878 -0.7372 -2.5114
 5736TIP3   OH238622   5.133   1.631   5.315  0.1456 -0.0069 -0.4866
 5736TIP3    H138623   5.211   1.640   5.259  0.5508  2.1905  0.3230
 5736TIP3    H238624   5.163   1.580   5.389  0.3372 -0.6445 -0.9940
 5737TIP3   OH238625   2.127   5.912   1.208 -0.2494 -0.9157  0.3074
 5737TIP3    H138626   2.117   5.892   1.115 -0.2535 -1.8804  0.5000
 5737TIP3    H238627   2.187   5.844   1.240 -0.5876 -0.8529  1.0935
 5738TIP3   OH238628   0.762   0.407  13.148  0.3642 -0.2322 -0.1421
 5738TIP3    H138629   0.830   0.468  13.176 -0.2629  0.8012 -0.7973
 5738TIP3    H238630   0.805   0.354  13.080  1.1437 -1.0771  0.9835
 5739TIP3   OH238631   5.408   0.069   3.041 -0.2967 -0.1951  0.0469
 5739TIP3    H138632   5.477   0.039   3.100  0.9434  0.7235 -0.8819
 5739TIP3    H238633   5.375   0.149   3.081 -1.5246 -1.1041  0.9663
 5740TIP3   OH238634   1.572   5.968  12.375 -0.5868  0.0219 -0.1067
 5740TIP3    H138635   1.648   5.966  12.317 -0.3306  1.7542  0.1148
 5740TIP3    H238636   1.601   6.016  12.452 -1.4014 -0.8477  0.7728
 5741TIP3   OH238637   1.216   0.830   3.944 -0.1106  0.2028 -0.1128
 5741TIP3    H138638   1.146   0.768   3.922 -1.3127  1.9962 -1.6379
 5741TIP3    H238639   1.175   0.916   3.938  1.7780  1.2453  0.8585
 5742TIP3   OH238640   1.540   6.389   1.894  0.3638 -0.3102  0.2654
 5742TIP3    H138641   1.567   6.480   1.908 -1.3216  0.3540 -0.5237
 5742TIP3    H238642   1.510   6.387   1.803 -0.0828 -1.5421  0.4231
 5743TIP3   OH238643   6.028   2.476   5.694 -0.0413 -0.0913  0.3578
 5743TIP3    H138644   6.028   2.529   5.773 -0.8828  0.6394 -0.1208
 5743TIP3    H238645   6.120   2.453   5.681  0.2902  0.9411  0.7820
 5744TIP3   OH238646   4.417   6.801   2.555  0.1664 -0.0842 -0.2426
 5744TIP3    H138647   4.510   6.782   2.569  0.5568  1.4735 -0.5169
 5744TIP3    H238648   4.386   6.731   2.498  0.9881 -1.0306  0.4595
 5745TIP3   OH238649   1.569   2.471  15.089  0.0694 -0.1571  0.1989
 5745TIP3    H138650   1.513   2.450  15.015  1.4461  1.1886 -1.3113
 5745TIP3    H238651   1.658   2.473  15.052  1.1985 -2.2012  2.4740
 5746TIP3   OH238652   3.445   4.161   2.150  0.4699  0.1787  0.3169
 5746TIP3    H138653   3.462   4.242   2.198 -0.5582  0.4722  0.2016
 5746TIP3    H238654   3.384   4.112   2.207 -3.1735  1.7935 -1.8549
 5747TIP3   OH238655   5.161   1.882  13.129 -0.0624  0.0361 -0.5465
 5747TIP3    H138656   5.202   1.881  13.042 -1.4497 -2.4504 -1.2684
 5747TIP3    H238657   5.104   1.959  13.127  0.2534  0.2686 -1.6832
 5748TIP3   OH238658   1.484   4.693   3.126  0.2268  0.1171  0.2433
 5748TIP3    H138659   1.529   4.729   3.049 -1.2778  0.9077 -0.2986
 5748TIP3    H238660   1.405   4.652   3.090 -1.1498  1.5813  1.4479
 5749TIP3   OH238661   5.583   5.128  14.631  0.2911 -0.1606 -0.0469
 5749TIP3    H138662   5.627   5.192  14.574  0.9145  0.3066  0.9425
 5749TIP3    H238663   5.651   5.064  14.652  0.3678  0.2651  1.0444
 5750TIP3   OH238664   0.282   1.735   4.091 -0.3051  0.2388 -0.0239
 5750TIP3    H138665   0.287   1.773   4.004 -0.4198  0.7559  0.1960
 5750TIP3    H238666   0.307   1.643   4.078  2.1786  0.8594 -0.2294
 5751TIP3   OH238667   4.886   6.556  14.450  0.2879  0.4318 -0.1783
 5751TIP3    H138668   4.944   6.480  14.457 -0.4105 -0.0782  0.3290
 5751TIP3    H238669   4.849   6.549  14.362 -0.3429 -0.2743  0.1185
 5752TIP3   OH238670   0.374   5.945  11.116  0.5161 -0.4980 -0.1104
 5752TIP3    H138671   0.324   5.911  11.191 -1.0800 -0.2031 -0.9882
 5752TIP3    H238672   0.312   6.003  11.072  2.7012  2.5739  0.5731
 5753TIP3   OH238673   4.954   4.786   5.318 -0.6942 -0.6882  0.3528
 5753TIP3    H138674   4.971   4.805   5.411  0.1769 -2.2673  0.5501
 5753TIP3    H238675   4.900   4.859   5.288 -1.1922 -0.2690  2.1615
 5754TIP3   OH238676   3.492   6.658  10.841  0.3914  0.0107  0.6809
 5754TIP3    H138677   3.438   6.732  10.814  2.8085  1.4136 -0.6924
 5754TIP3    H238678   3.461   6.585  10.787  0.1432  0.8971 -0.4179
 5755TIP3   OH238679   4.643   2.625  13.367  0.3055  0.3609 -0.4690
 5755TIP3    H138680   4.563   2.588  13.330  1.0755 -1.5375 -0.3502
 5755TIP3    H238681   4.679   2.555  13.422  1.2352  1.7335  0.7412
 5756TIP3   OH238682   2.908   2.602   2.244  0.0899  0.1481 -0.2010
 5756TIP3    H138683   2.877   2.544   2.314 -0.7526 -0.2199 -0.8687
 5756TIP3    H238684   2.993   2.565   2.219  0.8818  0.8679  1.2937
 5757TIP3   OH238685   2.368   3.426  10.857  0.0073 -0.1633 -0.5317
 5757TIP3    H138686   2.431   3.363  10.824  0.1798 -0.7366  0.8613
 5757TIP3    H238687   2.411   3.468  10.931 -0.8055  0.2881 -0.2979
 5758TIP3   OH238688   2.771   4.055  16.383 -0.1693 -0.3546  0.1908
 5758TIP3    H138689   2.850   4.110  16.386 -1.2478  1.2685  0.1840
 5758TIP3    H238690   2.701   4.116  16.361 -1.2875 -1.9474 -0.8093
 5759TIP3   OH238691   5.246   2.629  14.121 -0.2354 -0.2172  0.2081
 5759TIP3    H138692   5.315   2.681  14.080 -0.7217  0.4994  0.2879
 5759TIP3    H238693   5.291   2.550  14.151  0.5972  0.3290  0.4508
 5760TIP3   OH238694   6.213   2.246  12.430 -0.3447  0.0329  0.2162
 5760TIP3    H138695   6.136   2.208  12.473 -0.5571  1.2413  0.9415
 5760TIP3    H238696   6.266   2.170  12.406 -1.3507 -0.7837  0.4685
 5761TIP3   OH238697   0.408   4.084  11.772 -0.3589  0.1543  0.0105
 5761TIP3    H138698   0.375   4.079  11.861 -0.3609 -0.3023 -0.0111
 5761TIP3    H238699   0.495   4.125  11.780  0.1711 -1.0053  0.3708
 5762TIP3   OH238700   4.406   5.360  16.604  0.1841  0.6886 -0.0001
 5762TIP3    H138701   4.476   5.337  16.665 -0.7301  0.1107  0.8495
 5762TIP3    H238702   4.407   5.456  16.603  0.1667  0.7132  0.9875
 5763TIP3   OH238703   5.364   2.202   6.373  0.0972 -0.2374  0.1743
 5763TIP3    H138704   5.413   2.256   6.435  0.0295  0.1095 -0.0704
 5763TIP3    H238705   5.365   2.115   6.412  1.6111 -0.4175 -0.2207
 5764TIP3   OH238706   4.192   5.903   5.306  0.2358  0.0936  0.4320
 5764TIP3    H138707   4.102   5.937   5.302  1.0625  2.3628  0.0800
 5764TIP3    H238708   4.180   5.808   5.319 -2.1952  0.3088  0.3436
 5765TIP3   OH238709   1.200   0.764  16.067 -0.5764  0.1785 -0.3302
 5765TIP3    H138710   1.287   0.771  16.027 -1.3166  1.1297 -1.8624
 5765TIP3    H238711   1.204   0.821  16.144  0.8958 -1.7291  1.1191
 5766TIP3   OH238712   0.910   4.324   5.445 -0.0796  0.7511  0.4320
 5766TIP3    H138713   0.866   4.301   5.363  0.9121  0.1818  0.0457
 5766TIP3    H238714   0.856   4.393   5.483 -1.1344  0.2790 -0.1774
 5767TIP3   OH238715   6.584   5.871  12.804  0.2011 -0.5422 -0.1181
 5767TIP3    H138716   6.609   5.779  12.795  0.2395 -0.8226  2.2492
 5767TIP3    H238717   6.558   5.880  12.896  2.5861  2.3867  0.4057
 5768TIP3   OH238718   3.992   3.008   5.692 -0.1210  0.4183 -0.0332
 5768TIP3    H138719   3.921   3.072   5.681  0.4184  1.2151  0.8527
 5768TIP3    H238720   3.962   2.930   5.647 -0.9815  1.1755 -0.8186
 5769TIP3   OH238721   1.808   6.794   3.627 -0.0341 -0.5244  0.3734
 5769TIP3    H138722   1.776   6.883   3.615 -1.2137 -0.8407  1.0784
 5769TIP3    H238723   1.831   6.764   3.539 -0.0482  0.3121  0.0829
 5770TIP3   OH238724   3.546   6.719   4.534  0.3416  0.4103  0.2373
 5770TIP3    H138725   3.529   6.649   4.472 -0.8456  0.9381 -0.0551
 5770TIP3    H238726   3.640   6.737   4.525  0.2853  0.1373 -1.0378
 5771TIP3   OH238727   4.786   6.073   2.755 -0.4294 -0.3812 -0.3647
 5771TIP3    H138728   4.811   5.984   2.781 -4.3050 -1.9911 -1.3821
 5771TIP3    H238729   4.812   6.128   2.829  1.0019 -2.5383  0.8564
 5772TIP3   OH238730   1.328   4.824   5.921 -0.2855 -0.2403  0.4571
 5772TIP3    H138731   1.288   4.909   5.938 -2.2944 -1.1840  0.6894
 5772TIP3    H238732   1.255   4.765   5.908  1.0805 -1.7085 -0.9861
 5773TIP3   OH238733   0.400   5.502  10.792  0.4745 -0.0175  0.1312
 5773TIP3    H138734   0.470   5.439  10.780 -1.0911 -2.2873  2.0888
 5773TIP3    H238735   0.411   5.535  10.881  0.3750  1.3554 -0.3387
 5774TIP3   OH238736   1.849   0.037   3.144  0.7229  0.3546 -0.2040
 5774TIP3    H138737   1.758   0.012   3.127  0.6155  0.2011  0.5690
 5774TIP3    H238738   1.881   0.068   3.059  0.3916 -0.9250 -0.8221
 5775TIP3   OH238739   5.309   6.753  16.035 -0.1529 -0.4508 -0.3782
 5775TIP3    H138740   5.386   6.803  16.061 -0.3512 -0.3228 -0.0334
 5775TIP3    H238741   5.307   6.678  16.095 -1.0229  0.2321  0.4690
 5776TIP3   OH238742   0.091   1.484   3.853 -0.1938 -0.6742  0.0243
 5776TIP3    H138743   0.163   1.494   3.914 -1.9469 -2.1544  2.5052
 5776TIP3    H238744   0.107   1.400   3.810  1.6197  0.8427 -2.5915
 5777TIP3   OH238745   6.401   5.215  12.643  0.0057  0.3361 -0.4928
 5777TIP3    H138746   6.337   5.166  12.696  0.3093 -0.4018 -0.7921
 5777TIP3    H238747   6.349   5.255  12.574 -0.0501 -1.0582 -1.3142
 5778TIP3   OH238748   3.884   5.010  11.610 -0.4640  0.4173 -0.0882
 5778TIP3    H138749   3.965   4.962  11.627 -1.7323 -1.5045  0.9618
 5778TIP3    H238750   3.842   4.961  11.539 -0.4305  1.7812 -1.0778
 5779TIP3   OH238751   0.100   2.021   0.455 -0.3615  0.2478  0.0924
 5779TIP3    H138752   0.104   1.965   0.377  1.0475  0.5360 -0.0667
 5779TIP3    H238753   0.011   2.056   0.455 -0.3042  0.4717 -1.5588
 5780TIP3   OH238754   0.050   3.134   4.214  0.3079  0.4261  0.4154
 5780TIP3    H138755   0.078   3.068   4.150  0.2004  2.7364 -2.1791
 5780TIP3    H238756  -0.030   3.098   4.252  1.1238 -1.6282  0.3031
 5781TIP3   OH238757   1.108   5.781  10.486  0.0906  0.0037 -0.1459
 5781TIP3    H138758   1.101   5.814  10.397 -1.6558  0.4568  0.1193
 5781TIP3    H238759   1.075   5.691  10.482  0.7394 -0.2498 -0.0714
 5782TIP3   OH238760   2.156   2.422  14.454 -0.2817  0.1219  0.5524
 5782TIP3    H138761   2.202   2.406  14.372 -1.3570 -0.6726  0.0778
 5782TIP3    H238762   2.138   2.516  14.454 -1.3105 -0.0536 -0.6998
 5783TIP3   OH238763   1.112   1.620   1.057 -0.0976  0.1877  0.9751
 5783TIP3    H138764   1.137   1.539   1.013 -1.5163  0.1487  0.1812
 5783TIP3    H238765   1.155   1.689   1.006 -0.7425  0.0610  0.2326
 5784TIP3   OH238766   4.122   6.038   6.070 -0.3536  0.3444 -0.2729
 5784TIP3    H138767   4.128   6.126   6.033  0.8390  1.1722  1.7125
 5784TIP3    H238768   4.195   5.990   6.031  0.0542  0.7762 -0.0436
 5785TIP3   OH238769   0.401   4.733   4.813 -0.1759 -0.5785 -0.1162
 5785TIP3    H138770   0.433   4.651   4.775 -0.2056 -1.0037  0.7521
 5785TIP3    H238771   0.466   4.757   4.879  0.5420  0.8441 -1.2851
 5786TIP3   OH238772   4.018   6.026   3.458 -0.3932 -0.4722  0.1262
 5786TIP3    H138773   4.066   5.944   3.439  2.6026  1.4548 -1.4979
 5786TIP3    H238774   3.945   6.025   3.397  1.1218 -0.8301 -1.8107
 5787TIP3   OH238775   4.194   6.632  12.729  0.1594 -0.0928  0.1238
 5787TIP3    H138776   4.250   6.600  12.658  2.3450  1.7243  0.8956
 5787TIP3    H238777   4.235   6.599  12.809  0.2720  1.4428  0.7295
 5788TIP3   OH238778   2.309   6.701   2.590 -0.2535 -0.5263 -0.4032
 5788TIP3    H138779   2.405   6.707   2.592 -0.1601 -1.6965 -0.8296
 5788TIP3    H238780   2.285   6.728   2.502 -0.2955 -0.5354 -0.3945
 5789TIP3   OH238781   4.863   5.233  14.037  0.2574 -1.0301 -0.5892
 5789TIP3    H138782   4.910   5.305  13.995 -1.5274  0.0316 -0.8533
 5789TIP3    H238783   4.891   5.236  14.128 -1.2824  1.3434 -0.1230
 5790TIP3   OH238784   5.860   1.331   3.750 -0.1246  0.1428  0.5130
 5790TIP3    H138785   5.779   1.298   3.711  1.2751 -2.4213 -0.5291
 5790TIP3    H238786   5.869   1.420   3.717  0.2849 -1.3689 -4.3164
 5791TIP3   OH238787   4.851   4.645  15.359  0.6753 -0.2957  0.5463
 5791TIP3    H138788   4.832   4.663  15.451 -0.3268  2.5729 -0.1069
 5791TIP3    H238789   4.872   4.731  15.322 -0.9678 -1.0017 -2.3284
 5792TIP3   OH238790   1.661   2.875  10.894  0.1114  0.2765 -0.4824
 5792TIP3    H138791   1.639   2.923  10.815  0.7018  0.3204 -0.6274
 5792TIP3    H238792   1.736   2.821  10.869 -0.9866 -1.2959 -0.5377
 5793TIP3   OH238793   0.414   6.664  15.761  0.0064  0.1455  0.4210
 5793TIP3    H138794   0.440   6.597  15.698 -3.4147 -0.9250 -0.1000
 5793TIP3    H238795   0.446   6.746  15.723 -1.2943 -0.5425 -2.4833
 5794TIP3   OH238796   4.531   6.227  13.813  0.3358  0.1007  0.7859
 5794TIP3    H138797   4.500   6.240  13.902 -0.3281 -0.3391  0.6278
 5794TIP3    H238798   4.615   6.182  13.822 -0.3573 -1.1756  1.1699
 5795TIP3   OH238799   5.553   0.134  11.085  0.6244  0.1766  0.8813
 5795TIP3    H138800   5.642   0.129  11.051 -0.8147 -1.7261 -3.2679
 5795TIP3    H238801   5.497   0.131  11.007 -3.1277  0.5820  3.3042
 5796TIP3   OH238802   5.598   3.169  13.847  0.3990  0.2692  0.5513
 5796TIP3    H138803   5.673   3.202  13.897  0.3369  0.2313  0.6697
 5796TIP3    H238804   5.526   3.171  13.909  0.4727 -0.4207  0.6577
 5797TIP3   OH238805   3.345   2.096  12.043 -0.6716 -0.2396 -0.6301
 5797TIP3    H138806   3.388   2.135  12.120 -1.0433 -0.7621 -0.1528
 5797TIP3    H238807   3.402   2.119  11.970 -1.8479  2.9708 -0.7307
 5798TIP3   OH238808   5.034   4.976  16.350 -0.0737  0.0324  0.4519
 5798TIP3    H138809   5.038   5.038  16.422  1.6766  1.4683 -0.8050
 5798TIP3    H238810   5.079   4.898  16.383 -0.9972 -0.0686  1.5324
 5799TIP3   OH238811   1.194   0.307   0.221  0.1761 -0.1072 -0.2256
 5799TIP3    H138812   1.263   0.257   0.178  0.0331  2.4089 -3.8550
 5799TIP3    H238813   1.236   0.343   0.300  1.6190 -2.0315 -0.0328
 5800TIP3   OH238814   2.062   6.760  14.270  0.0781 -0.4143  0.0268
 5800TIP3    H138815   2.129   6.773  14.202 -0.7580  0.6126 -0.6451
 5800TIP3    H238816   1.979   6.768  14.223 -0.5235 -0.9746  0.9630
 5801TIP3   OH238817   5.374   6.433  15.330 -0.3376 -0.0033 -0.3725
 5801TIP3    H138818   5.377   6.476  15.244  0.5990 -0.8452 -0.7778
 5801TIP3    H238819   5.306   6.367  15.321  1.1144 -1.4810 -1.1827
 5802TIP3   OH238820   0.546   2.679   1.883  0.0988  0.1560 -0.2964
 5802TIP3    H138821   0.621   2.702   1.828  2.2883 -0.7800  2.0526
 5802TIP3    H238822   0.543   2.747   1.950 -1.7745  0.6461 -0.8143
 5803TIP3   OH238823   1.902   0.818  13.431 -0.0877  0.0379 -0.6086
 5803TIP3    H138824   1.996   0.826  13.448 -0.0559  1.9874 -1.3637
 5803TIP3    H238825   1.894   0.738  13.378  0.9748 -0.7722  0.4079
 5804TIP3   OH238826   1.697   5.076   5.678  1.0678 -0.1708 -0.2834
 5804TIP3    H138827   1.692   4.984   5.653  2.7079 -0.0567 -1.1441
 5804TIP3    H238828   1.627   5.119   5.629  2.2400 -0.4833 -2.3540
 5805TIP3   OH238829   5.151   5.719  11.607  0.1380  0.5012  0.0059
 5805TIP3    H138830   5.169   5.783  11.539  1.4023 -0.1027 -0.2423
 5805TIP3    H238831   5.220   5.654  11.599 -0.4597 -0.2954  0.9990
 5806TIP3   OH238832   6.560   5.717   1.264  0.0969 -0.1232 -0.5706
 5806TIP3    H138833   6.479   5.691   1.307  0.8351  0.0324  0.9949
 5806TIP3    H238834   6.557   5.813   1.265 -0.1990 -0.1127 -1.5355
 5807TIP3   OH238835   4.474   0.251   5.643  0.3470 -0.0554 -0.1201
 5807TIP3    H138836   4.384   0.252   5.612  0.4011  2.2583 -0.3545
 5807TIP3    H238837   4.467   0.235   5.737 -0.3763  0.9008  0.0008
 5808TIP3   OH238838   3.148   2.752   6.051 -0.5343 -0.5144 -0.4149
 5808TIP3    H138839   3.238   2.764   6.021  0.0737 -3.6524 -0.1575
 5808TIP3    H238840   3.156   2.696   6.127 -2.7530 -1.6390 -0.9403
 5809TIP3   OH238841   0.113   2.731  14.255 -0.1361  0.2404 -0.3780
 5809TIP3    H138842   0.090   2.818  14.223 -1.0552 -0.1247 -0.7430
 5809TIP3    H238843   0.062   2.721  14.336  0.9661  0.5365  0.3757
 5810TIP3   OH238844   5.408   0.693   1.363  0.0936  0.6496  0.6480
 5810TIP3    H138845   5.370   0.781   1.353 -0.5439  0.5623  2.0062
 5810TIP3    H238846   5.332   0.635   1.366  0.4815  0.1278  0.4284
 5811TIP3   OH238847   2.663   2.222  11.190 -0.5686 -0.6911  0.0538
 5811TIP3    H138848   2.685   2.309  11.156  0.4536 -0.8826  0.1902
 5811TIP3    H238849   2.677   2.163  11.117 -0.7359 -0.8036  0.1138
 5812TIP3   OH238850   6.551   4.988  13.985 -0.9879  0.5229 -0.0425
 5812TIP3    H138851   6.508   4.965  13.903 -0.2122 -0.8759 -0.0863
 5812TIP3    H238852   6.599   5.069  13.966  0.2028 -0.4566 -1.3496
 5813TIP3   OH238853   6.284   5.493   0.943 -0.9791  0.0428 -0.1755
 5813TIP3    H138854   6.324   5.480   0.857  0.4060 -0.1961  0.4798
 5813TIP3    H238855   6.357   5.490   1.004 -1.4944  3.2310  0.7810
 5814TIP3   OH238856   5.857   1.247   4.031 -0.2284 -0.5554 -0.1351
 5814TIP3    H138857   5.870   1.275   3.940  3.8766  2.5407  1.1371
 5814TIP3    H238858   5.916   1.172   4.041 -0.9700 -1.1461 -0.0132
 5815TIP3   OH238859   0.061   0.877  16.363 -0.0052 -0.3246 -0.3285
 5815TIP3    H138860  -0.000   0.951  16.365 -0.0941 -0.4175  0.6884
 5815TIP3    H238861   0.100   0.881  16.276 -1.8414 -0.5909 -1.1997
 5816TIP3   OH238862   2.581   4.038   0.586  0.7504 -0.6958  0.3883
 5816TIP3    H138863   2.555   3.949   0.607  0.0231 -0.0218  2.6265
 5816TIP3    H238864   2.636   4.065   0.660  0.2523  0.9845  0.1897
 5817TIP3   OH238865   5.183   3.867   1.341  0.2069  0.4090 -0.5432
 5817TIP3    H138866   5.124   3.796   1.317 -0.2752 -0.1945  2.1112
 5817TIP3    H238867   5.200   3.854   1.434  1.6898  2.6583 -0.4117
 5818TIP3   OH238868   3.701   3.666  12.074 -0.1471  0.2108  0.2153
 5818TIP3    H138869   3.686   3.571  12.074 -1.2210  0.3714 -0.0826
 5818TIP3    H238870   3.641   3.700  12.008 -0.2990  1.1807  0.8305
 5819TIP3   OH238871   2.430   5.209  13.615  0.4587 -0.4597 -0.2565
 5819TIP3    H138872   2.376   5.130  13.611  0.8943 -0.8145  0.5633
 5819TIP3    H238873   2.512   5.180  13.656  0.1752  0.6357  1.2017
 5820TIP3   OH238874   6.604   2.669   6.398 -0.0921 -0.0527 -0.7699
 5820TIP3    H138875   6.588   2.605   6.328  1.4926 -1.9196  0.4761
 5820TIP3    H238876   6.696   2.692   6.389 -0.5087  1.7258 -0.8662
 5821TIP3   OH238877   2.323   1.635   0.951 -0.0635 -0.0532 -0.1512
 5821TIP3    H138878   2.394   1.619   0.889 -0.1010 -3.5313  0.4917
 5821TIP3    H238879   2.256   1.680   0.900  1.1243 -0.0347 -1.7700
 5822TIP3   OH238880   5.344   5.945  13.740  0.2945  0.0354 -0.4966
 5822TIP3    H138881   5.376   5.856  13.754  1.9166  0.6515  0.0122
 5822TIP3    H238882   5.259   5.948  13.785  0.9839 -0.7955  0.9402
 5823TIP3   OH238883   4.418   6.752   2.860  0.4301 -0.2773 -0.3613
 5823TIP3    H138884   4.336   6.794   2.886  1.0442  0.8133 -0.1072
 5823TIP3    H238885   4.393   6.696   2.786 -0.8383 -1.3079  0.7935
 5824TIP3   OH238886   2.246   0.128   1.743 -0.4645  0.4142 -0.6351
 5824TIP3    H138887   2.178   0.108   1.678  0.6002  2.1537 -2.4157
 5824TIP3    H238888   2.312   0.177   1.694  2.4239 -1.6682  0.8508
 5825TIP3   OH238889   6.370   5.902   3.848  0.8028  0.1709  0.3576
 5825TIP3    H138890   6.336   5.946   3.770  1.4603 -2.3448 -1.4561
 5825TIP3    H238891   6.462   5.886   3.827  0.4190 -2.7423  0.5221
 5826TIP3   OH238892   4.440   4.851  16.230 -0.6217 -0.0018 -0.8751
 5826TIP3    H138893   4.349   4.879  16.216 -0.7040 -0.5963 -1.5757
 5826TIP3    H238894   4.493   4.923  16.195 -0.7843  1.0411  0.8946
 5827TIP3   OH238895   2.834   3.638  13.752 -0.3863  0.4864 -0.2938
 5827TIP3    H138896   2.860   3.709  13.693  0.9036  1.3226  1.2059
 5827TIP3    H238897   2.907   3.629  13.813 -0.8744 -1.6171  0.0501
 5828TIP3   OH238898   3.534   1.718  10.202  0.3181  0.8975  0.3017
 5828TIP3    H138899   3.479   1.643  10.223  1.8100  0.1224  1.6489
 5828TIP3    H238900   3.524   1.777  10.277 -0.0492  1.5984 -0.2790
 5829TIP3   OH238901   0.701   4.660  16.739  0.6065 -0.2946 -0.3014
 5829TIP3    H138902   0.661   4.668  16.652 -0.0807  0.7001  0.0841
 5829TIP3    H238903   0.785   4.617  16.723 -0.4526 -2.2022 -1.1862
 5830TIP3   OH238904   0.516   4.070  12.859 -0.2101 -0.1609  0.0023
 5830TIP3    H138905   0.501   4.064  12.953 -1.2210  2.6211  0.1062
 5830TIP3    H238906   0.444   4.021  12.820 -0.9350  0.3467  0.6755
 5831TIP3   OH238907   3.966   4.042   6.069 -0.1816 -0.0482  0.0829
 5831TIP3    H138908   4.033   4.097   6.110 -0.3456 -0.4275  0.8867
 5831TIP3    H238909   4.015   3.978   6.017  0.0194  0.6389 -0.5828
 5832TIP3   OH238910   2.340   1.537  11.487 -0.2378  0.6339  0.0797
 5832TIP3    H138911   2.325   1.560  11.396 -3.2462 -1.3098 -0.0634
 5832TIP3    H238912   2.365   1.444  11.485  1.9461  1.1353  1.1491
 5833TIP3   OH238913   5.617   6.665   6.257 -0.2653  0.0494 -0.2252
 5833TIP3    H138914   5.655   6.746   6.222  0.7911  0.2369  1.2638
 5833TIP3    H238915   5.630   6.672   6.352 -2.1375 -0.8737  0.1507
 5834TIP3   OH238916   3.243   2.889  12.447 -0.5376 -0.4619  0.3647
 5834TIP3    H138917   3.293   2.808  12.458 -1.6103 -1.8051 -3.1467
 5834TIP3    H238918   3.173   2.883  12.512  0.1125 -1.7823  0.9750
 5835TIP3   OH238919   1.985   4.998  14.826 -0.4753  0.2751  0.1497
 5835TIP3    H138920   1.924   4.929  14.852  0.8242 -0.4993  1.2974
 5835TIP3    H238921   2.045   5.005  14.899  1.1065  0.6704 -1.1289
 5836TIP3   OH238922   6.502   3.342   0.683  0.3515  0.1479 -0.2405
 5836TIP3    H138923   6.460   3.315   0.602  0.4027  0.2858 -0.3136
 5836TIP3    H238924   6.559   3.415   0.657  0.8904 -0.2569 -0.2071
 5837TIP3   OH238925   3.188   0.212   0.183  0.3467 -0.7506 -0.1601
 5837TIP3    H138926   3.248   0.282   0.158 -2.9683  1.8678 -1.5602
 5837TIP3    H238927   3.151   0.181   0.101 -0.1832 -2.2999  0.6310
 5838TIP3   OH238928   1.004   3.461  12.596  0.6858 -0.7981 -0.4335
 5838TIP3    H138929   0.978   3.532  12.537 -3.7693 -0.9628  0.9450
 5838TIP3    H238930   1.060   3.504  12.661  0.2563  0.8690 -1.1008
 5839TIP3   OH238931   2.236   2.845   4.641 -0.0582  0.1220  0.7519
 5839TIP3    H138932   2.153   2.809   4.672  0.0910 -0.6394  0.2957
 5839TIP3    H238933   2.214   2.933   4.609 -1.1467 -0.9124 -1.5047
 5840TIP3   OH238934   2.182   2.758   3.708 -0.2989  0.2108 -0.0016
 5840TIP3    H138935   2.233   2.757   3.789  0.9685  0.2331 -0.7798
 5840TIP3    H238936   2.202   2.842   3.668 -2.1328  0.8831  0.3790
 5841TIP3   OH238937   6.112   1.752  15.818 -0.2385 -0.2985 -0.1071
 5841TIP3    H138938   6.127   1.826  15.877 -1.1520 -0.8988  0.9051
 5841TIP3    H238939   6.071   1.792  15.741  0.3415  0.4062 -0.0592
 5842TIP3   OH238940   3.562   0.229  17.044 -0.0550 -0.1006  0.0321
 5842TIP3    H138941   3.635   0.290  17.054 -1.0210  1.0866  0.1314
 5842TIP3    H238942   3.486   0.285  17.028 -1.3458 -1.1479  2.1040
 5843TIP3   OH238943   3.266   6.783   1.206 -0.4573 -0.8868  0.2297
 5843TIP3    H138944   3.249   6.702   1.254  1.3432 -0.4825  1.6779
 5843TIP3    H238945   3.320   6.835   1.266  0.0265  0.5851 -1.4075
 5844TIP3   OH238946   0.243   1.456  12.198 -0.1934 -0.2576 -0.3575
 5844TIP3    H138947   0.159   1.461  12.243  0.6949 -1.5257  1.5623
 5844TIP3    H238948   0.253   1.363  12.177  0.6944 -0.1113 -0.6333
 5845TIP3   OH238949   4.880   5.440  13.307  0.2002  0.5362  0.4508
 5845TIP3    H138950   4.939   5.489  13.365  0.9431  0.3077 -0.1070
 5845TIP3    H238951   4.867   5.356  13.352  1.7518 -0.1206 -0.2752
 5846TIP3   OH238952   1.861   0.993   6.387 -0.2670 -0.1958 -0.1021
 5846TIP3    H138953   1.939   0.998   6.333 -0.8399 -0.4399 -0.9732
 5846TIP3    H238954   1.789   1.018   6.328 -0.6966  1.4723  1.0450
 5847TIP3   OH238955   6.276   5.797   1.133 -0.4533  0.3892 -0.1165
 5847TIP3    H138956   6.242   5.814   1.045 -0.5393 -1.0244 -0.3778
 5847TIP3    H238957   6.370   5.783   1.121 -0.7067 -1.4080 -0.2522
 5848TIP3   OH238958   5.222   5.400   0.486  0.5924 -0.2761  0.4205
 5848TIP3    H138959   5.315   5.415   0.470  0.7354 -0.3774  1.1333
 5848TIP3    H238960   5.183   5.488   0.487  0.7537 -0.2059  0.5458
 5849TIP3   OH238961   2.792   2.561  15.525  0.2310 -0.0781 -0.2697
 5849TIP3    H138962   2.851   2.486  15.520 -0.0246 -0.2163 -1.3714
 5849TIP3    H238963   2.748   2.563  15.440 -0.9489  0.3593  0.3282
 5850TIP3   OH238964   3.148   0.408  14.451  0.2781  0.1800 -0.0542
 5850TIP3    H138965   3.233   0.364  14.446 -0.0439 -0.4589 -0.0949
 5850TIP3    H238966   3.094   0.361  14.388 -0.0668  0.6768 -0.1326
 5851TIP3   OH238967   1.543   6.024  10.478 -0.0714 -0.0077  0.4066
 5851TIP3    H138968   1.614   6.013  10.414  0.4501 -1.3471  1.1697
 5851TIP3    H238969   1.584   6.068  10.552 -0.6079  1.2870 -0.0402
 5852TIP3   OH238970   4.778   3.855   3.518 -0.1053 -0.1990  0.4834
 5852TIP3    H138971   4.691   3.869   3.482  0.0273 -0.3468  0.1055
 5852TIP3    H238972   4.813   3.781   3.468  0.1220 -0.3312  0.8345
 5853TIP3   OH238973   5.751   4.899   4.633 -0.3228 -0.2891  0.1506
 5853TIP3    H138974   5.742   4.939   4.546 -0.9737 -0.0928  0.3088
 5853TIP3    H238975   5.845   4.906   4.652 -0.2691  0.2193 -0.2723
 5854TIP3   OH238976   2.027   0.026   4.368  0.5909  0.0290 -0.0844
 5854TIP3    H138977   2.123   0.022   4.373  0.5494  0.1132  1.0066
 5854TIP3    H238978   2.005   0.114   4.397  0.2670  0.7172 -2.2843
 5855TIP3   OH238979   2.121   5.934   5.055 -0.2199  0.3849  0.2755
 5855TIP3    H138980   2.080   5.904   5.136 -0.4149  2.8095  1.1293
 5855TIP3    H238981   2.048   5.951   4.995 -0.1226 -0.4115 -0.0941
 5856TIP3   OH238982   1.081   4.284   5.639  0.0837 -0.5966  0.0219
 5856TIP3    H138983   1.014   4.287   5.571 -0.5130 -1.0677  0.5735
 5856TIP3    H238984   1.125   4.369   5.633  0.7099 -0.9896 -1.5923
 5857TIP3   OH238985   4.402   1.606  16.830  0.1786  0.0848  0.0183
 5857TIP3    H138986   4.420   1.526  16.779 -0.1576  0.6120 -0.9423
 5857TIP3    H238987   4.309   1.599  16.852 -0.3248  1.0661 -1.6367
 5858TIP3   OH238988   5.697   1.968   2.458  0.2152 -0.0542 -0.1993
 5858TIP3    H138989   5.615   1.940   2.415 -0.9281  0.0878  1.7702
 5858TIP3    H238990   5.730   1.888   2.498 -0.3367  0.3618  1.1361
 5859TIP3   OH238991   4.602   3.098  15.026  0.2621 -0.3916 -0.2125
 5859TIP3    H138992   4.508   3.082  15.033  0.2778  0.2052  2.8273
 5859TIP3    H238993   4.610   3.194  15.031  0.9751 -0.2463 -2.7742
 5860TIP3   OH238994   0.759   6.685   2.297 -0.0091 -0.0838  0.3166
 5860TIP3    H138995   0.675   6.659   2.261 -0.2277  0.6431  0.2907
 5860TIP3    H238996   0.811   6.604   2.297 -0.0827 -0.1680 -1.3775
 5861TIP3   OH238997   3.897   4.894   0.166  0.4101 -0.3959  0.2026
 5861TIP3    H138998   3.940   4.812   0.190  1.0726 -0.2002 -0.2856
 5861TIP3    H238999   3.853   4.875   0.083  0.0216 -0.4395  0.4189
 5862TIP3   OH239000   0.553   3.183   2.154  0.2938 -0.3491  0.0854
 5862TIP3    H139001   0.521   3.112   2.209  1.3422 -0.1231  1.0332
 5862TIP3    H239002   0.649   3.180   2.163  0.4846 -0.0468 -1.4202
 5863TIP3   OH239003   3.074   5.585   3.715 -0.1477  0.6732 -0.1503
 5863TIP3    H139004   3.096   5.659   3.659  1.4114  0.1059 -0.3424
 5863TIP3    H239005   3.013   5.532   3.663 -1.3843  1.8739  0.0486
 5864TIP3   OH239006   5.378   5.978  16.461 -0.7629  0.0636 -0.7290
 5864TIP3    H139007   5.356   6.017  16.376  0.7312 -1.5845 -1.9586
 5864TIP3    H239008   5.465   5.941  16.448 -1.6480 -2.7479  0.6284
 5865TIP3   OH239009   6.781   5.919  14.153  0.4185  0.0922  0.0363
 5865TIP3    H139010   6.716   5.857  14.119  2.8002 -1.5142 -1.8759
 5865TIP3    H239011   6.791   5.983  14.082  0.2874  0.8698  0.7082
 5866TIP3   OH239012   2.210   5.852   1.594 -0.2538 -0.2719  0.0603
 5866TIP3    H139013   2.261   5.907   1.534  0.2098  0.2779  0.9383
 5866TIP3    H239014   2.237   5.763   1.573  1.0146  0.0040  0.4353
 5867TIP3   OH239015   5.244   5.227  14.149 -0.4491  0.4079  0.1072
 5867TIP3    H139016   5.283   5.162  14.207  0.9052  0.9482 -0.1776
 5867TIP3    H239017   5.153   5.233  14.179 -0.4486 -1.1556  0.5278
 5868TIP3   OH239018   0.585   3.199   0.038  0.7456 -0.5664  0.1752
 5868TIP3    H139019   0.653   3.193   0.106  3.0985 -2.7963 -2.1471
 5868TIP3    H239020   0.536   3.117   0.045  0.7371 -0.6282 -0.5253
 5869TIP3   OH239021   3.743   0.581  14.104 -0.2716 -0.3602 -0.2828
 5869TIP3    H139022   3.797   0.644  14.152 -0.7565  0.1154 -0.3546
 5869TIP3    H239023   3.725   0.512  14.168 -1.2217  0.4470  0.3551
 5870TIP3   OH239024   3.200   2.630   2.519  0.4127  0.1210 -0.0406
 5870TIP3    H139025   3.180   2.701   2.458  0.4278  3.7871  3.7429
 5870TIP3    H239026   3.119   2.580   2.526  0.4250 -0.5119 -2.8784
 5871TIP3   OH239027   5.176   0.923  11.373  0.3293  0.4629  0.0740
 5871TIP3    H139028   5.101   0.961  11.419 -0.7460 -0.5905 -0.7457
 5871TIP3    H239029   5.236   0.996  11.359 -0.6626  1.3789  0.5286
 5872TIP3   OH239030   6.124   2.623  12.001  0.1093 -0.0853  0.7382
 5872TIP3    H139031   6.170   2.548  11.964 -1.7646 -1.6601  1.4343
 5872TIP3    H239032   6.183   2.697  11.986  1.9561 -1.6423 -0.1174
 5873TIP3   OH239033   6.753   0.606   5.878 -0.3074 -0.0462  0.0848
 5873TIP3    H139034   6.695   0.532   5.861  0.4728 -0.7581  0.4570
 5873TIP3    H239035   6.781   0.635   5.791  0.1140 -0.7968 -0.0452
 5874TIP3   OH239036   5.326   3.098   0.067  0.0679  0.0778  0.0945
 5874TIP3    H139037   5.369   3.157   0.006 -1.7020  0.2888 -1.0159
 5874TIP3    H239038   5.267   3.153   0.117 -1.1156 -0.6220 -0.4942
 5875TIP3   OH239039   4.693   4.891  15.412 -0.5210 -0.0693 -0.2895
 5875TIP3    H139040   4.658   4.824  15.352  0.2531 -0.8160  0.0646
 5875TIP3    H239041   4.626   4.901  15.479  0.2494 -2.1591  0.8989
 5876TIP3   OH239042   1.782   2.064  11.451  0.0497 -0.3662  0.7677
 5876TIP3    H139043   1.868   2.026  11.433  1.0233  1.1557  1.9734
 5876TIP3    H239044   1.765   2.122  11.377  0.0582 -0.6906  0.5144
 5877TIP3   OH239045   5.495   0.422   5.479 -0.4785  0.0711  0.3172
 5877TIP3    H139046   5.543   0.410   5.561  1.9000  0.4576 -0.9319
 5877TIP3    H239047   5.479   0.333   5.447 -1.4319 -0.0804  1.1752
 5878TIP3   OH239048   5.474   6.139   0.216  0.2719 -0.2874 -0.1377
 5878TIP3    H139049   5.504   6.133   0.126 -0.1142 -0.4664 -0.2564
 5878TIP3    H239050   5.544   6.186   0.262  2.0658 -3.0362  0.1976
 5879TIP3   OH239051   4.085   3.230   1.350  0.4126 -0.3692  0.1353
 5879TIP3    H139052   4.180   3.236   1.360  0.3699  0.8119  0.0130
 5879TIP3    H239053   4.056   3.184   1.429  0.9745  0.3463  0.7807
 5880TIP3   OH239054   5.263   0.191  13.389  0.4802  0.5995  0.1759
 5880TIP3    H139055   5.316   0.236  13.455 -0.3820 -0.0039  1.3225
 5880TIP3    H239056   5.230   0.261  13.333 -1.5834  1.5959  2.4698
 5881TIP3   OH239057   0.102   0.444  13.821 -0.1562 -0.2199  0.3466
 5881TIP3    H139058   0.029   0.506  13.815 -1.2637 -1.2064  2.3971
 5881TIP3    H239059   0.064   0.360  13.794 -0.5113 -1.1868  3.4486
 5882TIP3   OH239060   6.112   0.035  16.976  0.3723  0.6084 -0.3806
 5882TIP3    H139061   6.022   0.003  16.983  0.3820  0.4207 -1.0473
 5882TIP3    H239062   6.103   0.129  16.960  0.3608  1.2982  2.9676
 5883TIP3   OH239063   1.509   4.820  12.447 -0.0724 -0.0147 -0.5275
 5883TIP3    H139064   1.450   4.749  12.420  0.5598 -0.6778 -0.1880
 5883TIP3    H239065   1.464   4.862  12.521 -0.6676  0.2492 -1.0307
 5884TIP3   OH239066   3.533   5.249  11.583 -0.1657 -0.3137  0.1751
 5884TIP3    H139067   3.491   5.215  11.505  2.3460 -1.7011 -0.6930
 5884TIP3    H239068   3.591   5.319  11.551 -0.6832  0.5779  1.1185
 5885TIP3   OH239069   6.332   2.104   1.595  0.8311 -0.0018 -0.3461
 5885TIP3    H139070   6.322   2.018   1.636 -0.6871 -0.2021 -1.0402
 5885TIP3    H239071   6.354   2.085   1.504  3.7070  0.4309  0.1808
 5886TIP3   OH239072   2.946   4.169  15.830  0.4796  0.1797  0.0218
 5886TIP3    H139073   2.942   4.082  15.870  1.0777  0.5356  0.8789
 5886TIP3    H239074   2.951   4.152  15.736  1.3938 -0.7439  0.2258
 5887TIP3   OH239075   2.513   6.692  13.488  0.4803 -0.6958  0.0925
 5887TIP3    H139076   2.511   6.597  13.477  1.1757 -0.7119  0.0321
 5887TIP3    H239077   2.474   6.707  13.574 -0.7987 -0.9266 -0.4334
 5888TIP3   OH239078   3.728   5.308  15.789  0.1788  0.3659  0.7140
 5888TIP3    H139079   3.795   5.324  15.722  0.5653  0.3010  1.0808
 5888TIP3    H239080   3.766   5.239  15.844 -1.5595 -2.2184 -1.0531
 5889TIP3   OH239081   0.117   5.982   1.971  0.1531 -0.2671 -0.4627
 5889TIP3    H139082   0.022   5.992   1.963 -0.3397 -2.9041  0.8710
 5889TIP3    H239083   0.146   6.064   2.010 -1.5180  0.7022 -1.1293
 5890TIP3   OH239084   3.332   1.340   2.609  0.6352 -0.1777  0.2938
 5890TIP3    H139085   3.381   1.259   2.595  0.2793 -0.4064  0.3703
 5890TIP3    H239086   3.277   1.348   2.532  0.7450  0.0449  0.2395
 5891TIP3   OH239087   2.811   3.047  11.500 -0.1103 -0.0050  0.8576
 5891TIP3    H139088   2.790   3.119  11.441  0.6673 -0.7239 -0.3429
 5891TIP3    H239089   2.902   3.026  11.479 -0.5262 -1.7573  0.7170
 5892TIP3   OH239090   0.019   3.341   5.822 -0.0411  0.1871 -0.1274
 5892TIP3    H139091   0.001   3.359   5.914 -2.0007 -0.6099 -0.3025
 5892TIP3    H239092  -0.065   3.310   5.786  0.9876 -0.7947 -1.8568
 5893TIP3   OH239093   3.893   5.334  16.626  0.5660  0.0477  0.2767
 5893TIP3    H139094   3.983   5.319  16.656  0.5488 -0.0561  0.2790
 5893TIP3    H239095   3.856   5.246  16.619  0.3335  0.1144  0.6821
 5894TIP3   OH239096   3.192   3.463   4.326  0.0260 -0.1634 -0.0500
 5894TIP3    H139097   3.237   3.380   4.310 -0.6642 -0.5031 -0.2939
 5894TIP3    H239098   3.258   3.530   4.310 -0.4627 -0.4214 -4.3297
 5895TIP3   OH239099   6.698   0.708  11.124 -0.3703  0.0428  0.0669
 5895TIP3    H139100   6.692   0.801  11.146  2.7177  0.0148  1.5370
 5895TIP3    H239101   6.695   0.705  11.028 -2.4862  1.3944  0.0333
 5896TIP3   OH239102   5.355   0.183   4.964 -0.5380  0.5865 -0.0578
 5896TIP3    H139103   5.342   0.234   4.884  2.2622  0.7544 -0.5168
 5896TIP3    H239104   5.375   0.248   5.032 -0.7995  0.3175  0.2820
 5897TIP3   OH239105   0.979   3.726  11.657 -0.4005  0.4370  0.2534
 5897TIP3    H139106   0.947   3.692  11.573 -0.2984 -0.5210  0.5922
 5897TIP3    H239107   0.974   3.652  11.717 -1.0172  1.2636  1.2568
 5898TIP3   OH239108   4.488   4.989  12.334 -0.3550  0.0526 -0.0003
 5898TIP3    H139109   4.563   5.044  12.313 -0.9489  0.6297 -0.6540
 5898TIP3    H239110   4.412   5.047  12.326 -1.0330 -0.9215 -1.0208
 5899TIP3   OH239111   3.430   4.927  12.000  0.0072  0.2537  0.1507
 5899TIP3    H139112   3.524   4.939  11.991  0.0477  1.1690  1.4481
 5899TIP3    H239113   3.418   4.832  12.006  0.9586  0.1651  0.9116
 5900TIP3   OH239114   4.507   1.982   0.511 -0.3475 -0.3236 -0.1090
 5900TIP3    H139115   4.533   1.999   0.602 -1.0988  1.1986 -0.1423
 5900TIP3    H239116   4.423   2.027   0.502 -0.7167 -1.2010 -1.3278
 5901TIP3   OH239117   3.679   3.924  15.278  0.2821  0.4711 -0.0827
 5901TIP3    H139118   3.678   3.861  15.351  0.2296  0.9936  0.3695
 5901TIP3    H239119   3.772   3.934  15.257  0.3395  0.7848  0.3163
 5902TIP3   OH239120   3.886   3.094   4.919 -0.0085 -0.5616  0.4744
 5902TIP3    H139121   3.908   3.140   4.838 -0.3441  0.0217  0.7128
 5902TIP3    H239122   3.800   3.128   4.943  0.2650 -0.4351  1.2976
 5903TIP3   OH239123   0.131   3.425   3.022  0.2764 -0.3140  0.2477
 5903TIP3    H139124   0.175   3.428   3.107  0.5216 -1.4910  0.1805
 5903TIP3    H239125   0.049   3.379   3.040 -0.2145  0.4639  0.0586
 5904TIP3   OH239126   4.708   0.874   3.439  0.0785 -0.4587 -0.5377
 5904TIP3    H139127   4.792   0.897   3.401  0.4409  1.5116  1.2444
 5904TIP3    H239128   4.653   0.951   3.425 -1.0954 -1.2851 -0.6802
 5905TIP3   OH239129   4.765   4.911   4.852 -0.2494  0.5252 -0.4396
 5905TIP3    H139130   4.776   4.934   4.944 -1.4690  1.6535 -0.5542
 5905TIP3    H239131   4.806   4.983   4.804  1.6222 -0.7190 -0.8236
 5906TIP3   OH239132   1.144   1.711  14.645 -0.3645 -0.0493 -0.2625
 5906TIP3    H139133   1.195   1.764  14.707 -0.0934 -1.5819  0.8818
 5906TIP3    H239134   1.192   1.718  14.562  1.3563 -0.8892  0.6228
 5907TIP3   OH239135   6.535   5.961  17.048 -0.0503  0.2689  0.2125
 5907TIP3    H139136   6.510   6.018  16.975 -0.8192 -0.4589 -0.1060
 5907TIP3    H239137   6.537   6.018  17.124 -1.7343  0.5627  0.0707
 5908TIP3   OH239138   1.683   6.355   5.444  0.4301  0.5070 -0.6167
 5908TIP3    H139139   1.726   6.329   5.363 -2.1700  0.9308 -2.2538
 5908TIP3    H239140   1.599   6.309   5.443  0.2434  0.6677  1.7708
 5909TIP3   OH239141   6.232   4.599   3.875 -0.1401  0.0036  0.1400
 5909TIP3    H139142   6.298   4.605   3.805  0.8406  0.1873  1.0557
 5909TIP3    H239143   6.279   4.622   3.955 -1.5788  1.1519  0.6971
 5910TIP3   OH239144   3.419   0.565  16.920 -0.0715 -0.6552 -0.1568
 5910TIP3    H139145   3.505   0.605  16.935 -0.4223 -0.0238  0.2077
 5910TIP3    H239146   3.372   0.628  16.866 -0.4191 -0.8553 -0.0864
 5911TIP3   OH239147   2.617   3.317  15.600 -0.1160 -0.0003  0.1140
 5911TIP3    H139148   2.645   3.237  15.645 -1.5943 -0.2076  0.7370
 5911TIP3    H239149   2.535   3.340  15.643 -1.3559  0.0846 -2.1840
 5912TIP3   OH239150   4.929   2.647  15.828  0.6717  0.5022  0.6858
 5912TIP3    H139151   5.013   2.667  15.870 -0.0699  1.2499  1.8628
 5912TIP3    H239152   4.880   2.729  15.831 -0.4524 -0.1559  0.8658
 5913TIP3   OH239153   3.606   3.490   4.863 -0.2644  0.0428 -0.0214
 5913TIP3    H139154   3.658   3.471   4.941  0.8532 -0.0570 -0.7755
 5913TIP3    H239155   3.593   3.585   4.865 -2.5907 -0.2028  1.7068
 5914TIP3   OH239156   1.707   1.483  13.244 -0.8711  0.5430 -0.0178
 5914TIP3    H139157   1.738   1.501  13.155 -0.2095  1.1673  0.3210
 5914TIP3    H239158   1.788   1.472  13.295 -1.2470 -0.1566  0.4366
 5915TIP3   OH239159   0.607   1.555  10.863 -0.1331  0.5685  0.0771
 5915TIP3    H139160   0.618   1.585  10.953  1.0535 -0.2774  0.2441
 5915TIP3    H239161   0.581   1.633  10.814  3.5571  2.1626  0.3181
 5916TIP3   OH239162   5.455   0.296  15.476 -0.5797 -0.0934  0.2912
 5916TIP3    H139163   5.411   0.363  15.528 -0.1433  1.4822 -1.2615
 5916TIP3    H239164   5.544   0.295  15.509 -0.7547 -0.4056  0.7650
 5917TIP3   OH239165   6.270   4.595  14.568 -0.1482 -0.1555  0.1552
 5917TIP3    H139166   6.304   4.600  14.479  0.2743  1.2817  0.3758
 5917TIP3    H239167   6.211   4.671  14.576  1.3597  0.9316  1.7040
 5918TIP3   OH239168   6.561   4.110   4.186 -0.3452 -0.5484 -0.2625
 5918TIP3    H139169   6.630   4.074   4.132  0.5508  0.9167 -0.1427
 5918TIP3    H239170   6.493   4.137   4.124 -0.7676 -1.8074 -0.3892
 5919TIP3   OH239171   5.290   5.454   2.526  0.3735 -0.3499 -0.1418
 5919TIP3    H139172   5.377   5.440   2.563  0.2166 -1.8698 -0.2753
 5919TIP3    H239173   5.235   5.473   2.602  0.5376 -0.9011  0.1207
 5920TIP3   OH239174   5.514   6.645  12.430 -0.1944 -0.1400  0.3558
 5920TIP3    H139175   5.430   6.613  12.463  0.3374 -0.1734  1.7372
 5920TIP3    H239176   5.498   6.663  12.338 -1.8178  0.1899  0.6697
 5921TIP3   OH239177   2.730   1.148   2.715 -0.2582 -0.4886 -0.0894
 5921TIP3    H139178   2.687   1.125   2.797 -1.5610  0.2854 -0.5189
 5921TIP3    H239179   2.667   1.204   2.669  0.4131 -0.9304 -1.6467
 5922TIP3   OH239180   4.098   5.799  16.698 -0.1277  0.0295 -0.2816
 5922TIP3    H139181   4.084   5.889  16.667 -0.0997  0.4286  0.7929
 5922TIP3    H239182   4.038   5.791  16.773 -0.0641 -0.8265 -0.3139
 5923TIP3   OH239183   5.915   6.433   2.774 -0.1049  0.0560 -0.2638
 5923TIP3    H139184   5.910   6.524   2.801 -1.8470  0.2809 -1.2000
 5923TIP3    H239185   5.997   6.427   2.725  0.6597  0.7897  0.8931
 5924TIP3   OH239186   2.248   3.287   0.115  0.2494  0.3448 -0.0827
 5924TIP3    H139187   2.310   3.218   0.139  0.5848  0.3322 -0.9451
 5924TIP3    H239188   2.251   3.349   0.188  0.7246 -0.0286  0.2199
 5925TIP3   OH239189   1.205   1.041  12.552 -0.2016  0.2631  0.3603
 5925TIP3    H139190   1.128   1.074  12.598  0.3904  2.2058  0.0084
 5925TIP3    H239191   1.210   0.949  12.578 -3.6084 -0.4272 -0.9205
 5926TIP3   OH239192   0.735   5.423   4.318 -0.3680 -0.2792 -0.3147
 5926TIP3    H139193   0.764   5.354   4.259 -0.3785 -0.0893 -0.5451
 5926TIP3    H239194   0.751   5.389   4.406 -1.1369 -0.9141 -0.4087
 5927TIP3   OH239195   4.919   3.538  12.279  0.3493 -0.3962  0.2716
 5927TIP3    H139196   5.013   3.527  12.264  0.5987  1.0711  0.6686
 5927TIP3    H239197   4.911   3.625  12.318 -1.3561  0.3746 -1.6346
 5928TIP3   OH239198   2.653   1.373  13.910 -0.1237  0.2636  0.6724
 5928TIP3    H139199   2.608   1.375  13.995 -2.8755  0.3790 -0.6811
 5928TIP3    H239200   2.723   1.438  13.918  0.7406 -0.8354  3.3126
 5929TIP3   OH239201   3.391   3.895  14.272 -0.0499 -0.0159  0.3690
 5929TIP3    H139202   3.298   3.892  14.298 -0.2453 -0.3419 -0.3594
 5929TIP3    H239203   3.394   3.962  14.204  0.1586 -0.3852  0.0148
 5930TIP3   OH239204   1.756   5.723   1.543  0.3022  0.0664  0.4704
 5930TIP3    H139205   1.736   5.782   1.616 -1.0168 -0.4472  0.5459
 5930TIP3    H239206   1.800   5.779   1.479  2.1072  0.3746  1.9132
 5931TIP3   OH239207   2.601   3.252  15.961  0.0631  0.0206 -0.1661
 5931TIP3    H139208   2.692   3.246  15.933 -0.2986 -0.5590 -1.2383
 5931TIP3    H239209   2.600   3.327  16.021  1.3428 -0.3004  0.2835
 5932TIP3   OH239210   0.688   0.917  12.713  0.6704  0.2569 -0.2407
 5932TIP3    H139211   0.618   0.853  12.705  1.9299 -1.0524 -1.3222
 5932TIP3    H239212   0.651   0.986  12.768 -1.9105  0.2962 -1.8761
 5933TIP3   OH239213   5.344   4.795   5.462 -0.4927  0.2917 -0.0740
 5933TIP3    H139214   5.269   4.744   5.491  0.3115 -0.4312  0.7898
 5933TIP3    H239215   5.374   4.840   5.541 -0.6275  1.3958 -0.6293
 5934TIP3   OH239216   1.090   1.982  11.537 -0.0074 -0.2294 -0.3464
 5934TIP3    H139217   1.109   1.919  11.467  0.1180 -0.9649  0.3400
 5934TIP3    H239218   1.046   1.931  11.604 -0.3317  0.5246  0.0200
 5935TIP3   OH239219   4.336   4.707  11.711  0.4975  0.4015 -0.0302
 5935TIP3    H139220   4.393   4.630  11.709  2.1407  1.5081  1.1018
 5935TIP3    H239221   4.369   4.759  11.785  0.0371  2.6254 -1.2886
 5936TIP3   OH239222   4.663   5.544   4.619 -0.0726 -0.0133  0.2036
 5936TIP3    H139223   4.587   5.586   4.659  0.1121 -0.3391  0.9130
 5936TIP3    H239224   4.733   5.553   4.684  0.9708  1.6650 -1.0454
 5937TIP3   OH239225   0.229   1.782  14.089 -0.3196  0.3542 -0.6479
 5937TIP3    H139226   0.263   1.759  14.176  0.6242  1.6848 -0.6344
 5937TIP3    H239227   0.208   1.875  14.095  0.1183  0.5595 -1.9429
 5938TIP3   OH239228   4.214   5.400  11.659 -0.0718 -0.5639 -0.3240
 5938TIP3    H139229   4.138   5.365  11.613 -0.4177 -0.3142  0.0443
 5938TIP3    H239230   4.231   5.484  11.618  0.2227 -0.7671 -0.6313
 5939TIP3   OH239231   2.641   2.121   2.885  0.0076 -0.0417 -1.0472
 5939TIP3    H139232   2.628   2.030   2.910  2.7544 -0.3314 -0.3788
 5939TIP3    H239233   2.684   2.117   2.799  1.1136  0.5470 -0.5486
 5940TIP3   OH239234   1.259   2.275   0.807  0.0668 -0.1208  0.2776
 5940TIP3    H139235   1.228   2.274   0.716  2.1277 -2.0131 -0.4992
 5940TIP3    H239236   1.304   2.359   0.816  2.2828 -1.0278 -1.4414
 5941TIP3   OH239237   0.372   4.391   5.076 -0.5657 -0.5171  1.3228
 5941TIP3    H139238   0.398   4.461   5.016 -1.0059 -0.3950  1.2684
 5941TIP3    H239239   0.378   4.430   5.163 -2.2779  0.0791  1.1984
 5942TIP3   OH239240   6.532   2.569   0.348  0.2143  0.3331 -0.1170
 5942TIP3    H139241   6.579   2.630   0.291 -0.0851 -1.3522 -2.2616
 5942TIP3    H239242   6.462   2.533   0.293 -0.5417 -0.8569  1.5422
 5943TIP3   OH239243   1.176   6.072   1.339 -0.2198  0.7108 -0.1818
 5943TIP3    H139244   1.220   6.155   1.320  1.7345 -0.3841 -0.7197
 5943TIP3    H239245   1.241   6.021   1.386 -0.8347 -1.0563 -1.1642
 5944TIP3   OH239246   0.137   5.057   4.259 -0.2144  0.2069  0.4042
 5944TIP3    H139247   0.168   5.056   4.349 -1.3199 -0.8959  0.8014
 5944TIP3    H239248   0.217   5.060   4.206  0.4754 -0.0673  1.3989
 5945TIP3   OH239249   5.077   0.347  16.575  0.2514 -0.3290  0.5810
 5945TIP3    H139250   5.058   0.393  16.657 -1.0072  2.9864 -1.3877
 5945TIP3    H239251   5.155   0.389  16.541 -0.4743 -0.1429 -0.9214
 5946TIP3   OH239252   1.510   2.305   1.020  0.3649 -0.1523  0.1565
 5946TIP3    H139253   1.462   2.388   1.013  0.6928 -0.0648 -1.5102
 5946TIP3    H239254   1.483   2.269   1.104 -1.7469  0.4374 -0.2067
 5947TIP3   OH239255   3.516   0.976  11.396  0.2154  0.4544 -0.4348
 5947TIP3    H139256   3.466   0.966  11.316 -1.6827 -1.3736  0.8720
 5947TIP3    H239257   3.573   1.051  11.380 -0.8877  0.8226 -3.0591
 5948TIP3   OH239258   2.781   2.594   1.986 -0.6534 -0.2677  0.2856
 5948TIP3    H139259   2.828   2.578   2.067 -0.8753  0.1449  0.5013
 5948TIP3    H239260   2.696   2.630   2.013 -0.3124  0.9356 -0.1411
 5949TIP3   OH239261   1.492   2.505  15.597  0.0814 -0.3589 -0.6261
 5949TIP3    H139262   1.528   2.504  15.509 -0.1081  0.5664 -0.7179
 5949TIP3    H239263   1.398   2.518  15.585  0.0778 -0.0472 -0.2798
 5950TIP3   OH239264   5.004   2.858  11.001  0.0824 -0.1963  0.3334
 5950TIP3    H139265   4.985   2.769  10.970 -1.8170 -0.0583  0.9762
 5950TIP3    H239266   5.097   2.870  10.982 -0.3724 -0.9936 -3.0317
 5951TIP3   OH239267   3.313   1.367   5.341  0.7157  0.0159 -0.3310
 5951TIP3    H139268   3.301   1.345   5.249 -0.2289 -0.5382 -0.0942
 5951TIP3    H239269   3.311   1.463   5.344 -0.6565  0.0248 -0.7349
 5952TIP3   OH239270   5.977   4.473   1.097 -0.4504  0.2717 -0.6068
 5952TIP3    H139271   6.064   4.488   1.060  0.6122  1.3565  2.0485
 5952TIP3    H239272   5.984   4.503   1.188 -3.3884 -0.3769 -0.0512
 5953TIP3   OH239273   4.937   6.527  12.607  0.0078 -0.3100 -0.0045
 5953TIP3    H139274   4.963   6.604  12.659  0.3820 -1.5268  1.7181
 5953TIP3    H239275   5.001   6.460  12.631  0.3287 -0.8872 -2.2770
 5954TIP3   OH239276   0.829   3.739   0.457 -0.2980 -0.0963  0.0561
 5954TIP3    H139277   0.824   3.643   0.450 -1.8813  0.0505 -1.3409
 5954TIP3    H239278   0.868   3.766   0.373  0.3389  0.4841  0.5327
 5955TIP3   OH239279   1.177   2.735   0.117  0.4683 -0.5487  0.0074
 5955TIP3    H139280   1.213   2.824   0.119 -0.6159 -0.0642 -1.1232
 5955TIP3    H239281   1.082   2.748   0.114  0.3265 -1.7048 -1.4939
 5956TIP3   OH239282   2.247   2.506   2.319  0.1130 -0.5305 -0.5238
 5956TIP3    H139283   2.183   2.498   2.389  0.6218  1.6329  0.2758
 5956TIP3    H239284   2.308   2.574   2.349  1.2941 -0.6830 -2.3641
 5957TIP3   OH239285   6.327   1.968  16.508 -0.3991  0.1306 -0.2361
 5957TIP3    H139286   6.393   1.931  16.567  2.2359 -0.6038 -3.3196
 5957TIP3    H239287   6.343   2.062  16.510 -0.4611  0.1335  0.3385
 5958TIP3   OH239288   4.024   1.325   4.811  0.2060  0.3541  0.1004
 5958TIP3    H139289   4.037   1.294   4.721  2.0863  1.8657 -0.2354
 5958TIP3    H239290   3.933   1.304   4.831 -0.4327  0.4315 -2.3444
 5959TIP3   OH239291   1.663   0.913   0.971  0.1548 -0.5150  0.2819
 5959TIP3    H139292   1.695   0.874   1.052  0.9348  0.1543  0.2967
 5959TIP3    H239293   1.589   0.857   0.946  1.0887 -1.8803  0.4353
 5960TIP3   OH239294   5.577   5.932  12.114  0.4511  0.9566  0.1624
 5960TIP3    H139295   5.644   5.888  12.166  1.0386  1.1061 -0.4561
 5960TIP3    H239296   5.569   5.878  12.035  0.2222  1.2299 -0.0017
 5961TIP3   OH239297   0.653   3.552   3.328  1.0397  0.3063  0.2778
 5961TIP3    H139298   0.692   3.488   3.268  0.0161  2.0917 -2.4691
 5961TIP3    H239299   0.580   3.589   3.279  0.3109  2.1061  2.5727
 5962TIP3   OH239300   6.554   6.610   5.868 -0.7208 -0.1254 -0.0268
 5962TIP3    H139301   6.643   6.575   5.854 -1.2296 -1.4413 -0.1771
 5962TIP3    H239302   6.550   6.688   5.813  0.4328  0.1182  0.2037
 5963TIP3   OH239303   0.020   3.244   2.285  0.5178  0.6258 -0.2411
 5963TIP3    H139304   0.109   3.209   2.284  0.7740  1.1695  1.1267
 5963TIP3    H239305  -0.035   3.172   2.255  1.3416  0.0456 -0.3822
 5964TIP3   OH239306   2.777   5.062  15.962  0.0868 -0.4404 -0.5313
 5964TIP3    H139307   2.803   4.972  15.984  1.0567 -0.1584 -0.5020
 5964TIP3    H239308   2.770   5.062  15.866 -1.4227 -0.9364 -0.4466
 5965TIP3   OH239309   0.152   2.995  14.197 -0.0950  0.1668 -0.3324
 5965TIP3    H139310   0.144   3.086  14.171  2.1912  0.3710 -0.5442
 5965TIP3    H239311   0.246   2.980  14.205 -0.3062 -0.4708  5.7475
 5966TIP3   OH239312   5.284   0.667   2.915 -0.1970  0.6575 -0.5394
 5966TIP3    H139313   5.247   0.752   2.937  1.1620  0.9518  0.7341
 5966TIP3    H239314   5.364   0.686   2.867 -1.5551  0.0191 -3.3243
 5967TIP3   OH239315   4.698   6.133  14.845 -0.0926 -0.1376  0.3584
 5967TIP3    H139316   4.649   6.171  14.918 -0.4544  1.5761 -0.7233
 5967TIP3    H239317   4.758   6.202  14.818 -0.7660 -0.2906 -1.6821
 5968TIP3   OH239318   4.412   2.496  13.291 -0.1760  0.6419  0.1563
 5968TIP3    H139319   4.337   2.551  13.271 -0.5143  1.0910  2.3373
 5968TIP3    H239320   4.378   2.431  13.353  0.1500 -2.3000 -2.5216
 5969TIP3   OH239321   5.773   5.388  12.990 -0.5948  0.2215  0.4569
 5969TIP3    H139322   5.793   5.355  13.077 -0.2365 -1.9541 -0.3854
 5969TIP3    H239323   5.679   5.406  12.992 -0.4928  0.7049  1.4294
 5970TIP3   OH239324   5.821   4.748  17.095 -0.1845 -0.1632  0.1053
 5970TIP3    H139325   5.823   4.843  17.091 -0.9903 -0.1168  0.7199
 5970TIP3    H239326   5.908   4.724  17.128  0.1821  0.3241 -0.4850
 5971TIP3   OH239327   5.754   6.235  13.741 -0.1663  0.4013 -0.5293
 5971TIP3    H139328   5.778   6.194  13.658 -0.8662 -0.0426 -0.5119
 5971TIP3    H239329   5.785   6.326  13.732 -0.8822  0.5578 -1.5649
 5972TIP3   OH239330   4.793   2.768   2.530 -0.0315  0.1668  0.4776
 5972TIP3    H139331   4.777   2.724   2.614 -1.5424  0.2274  0.2358
 5972TIP3    H239332   4.706   2.788   2.495  0.4942 -1.4080 -1.9521
 5973TIP3   OH239333   4.937   4.099   4.308  0.7825 -0.2491  0.3116
 5973TIP3    H139334   4.999   4.148   4.362 -0.1567  1.1344  0.1753
 5973TIP3    H239335   4.871   4.163   4.281 -0.7842 -1.6702  0.5353
 5974TIP3   OH239336   3.539   6.189  10.721  0.2589 -0.1840  0.2388
 5974TIP3    H139337   3.504   6.103  10.698  0.7170 -0.0819 -0.8637
 5974TIP3    H239338   3.465   6.234  10.763  0.0776 -1.1783  1.0367
 5975TIP3   OH239339   0.627   1.888  12.419 -0.4563  0.6678  0.1287
 5975TIP3    H139340   0.541   1.895  12.460  0.1715 -0.8823  1.8541
 5975TIP3    H239341   0.675   1.825  12.473  1.8928  1.7225 -0.5691
 5976TIP3   OH239342   2.444   2.651  10.878 -0.0805 -0.4154  0.1424
 5976TIP3    H139343   2.489   2.684  10.800  1.2738 -1.6203  0.3593
 5976TIP3    H239344   2.396   2.574  10.847  1.7409 -1.8600  0.7244
 5977TIP3   OH239345   6.272   6.505  12.474  0.3562  0.1001 -0.2510
 5977TIP3    H139346   6.294   6.437  12.537 -1.9372 -0.8303 -0.3695
 5977TIP3    H239347   6.312   6.584  12.509  0.0508 -0.6089  1.8235
 5978TIP3   OH239348   1.924   4.361  13.316  0.6772  0.3148  0.4647
 5978TIP3    H139349   1.910   4.275  13.355  3.2101  0.7110  2.5494
 5978TIP3    H239350   1.853   4.415  13.352  0.2984 -0.4008  0.8196
 5979TIP3   OH239351   5.655   2.737   4.883 -0.1223  0.3783  0.0748
 5979TIP3    H139352   5.646   2.688   4.801  0.9602 -0.9999  0.7324
 5979TIP3    H239353   5.749   2.756   4.889 -0.1682  0.3322  1.0600
 5980TIP3   OH239354   6.548   0.289  13.641  0.1662  0.6634  0.9868
 5980TIP3    H139355   6.583   0.374  13.668  2.8546 -0.1589  0.4216
 5980TIP3    H239356   6.528   0.299  13.548  3.8779 -0.1198 -0.0867
 5981TIP3   OH239357   3.540   2.423   1.639 -0.2634 -0.3239  0.1459
 5981TIP3    H139358   3.618   2.477   1.644 -1.4345  1.5382 -0.6171
 5981TIP3    H239359   3.528   2.389   1.728  0.1072  1.2892  0.8423
 5982TIP3   OH239360   6.251   6.311   6.257 -0.4295  0.4610  0.1968
 5982TIP3    H139361   6.287   6.349   6.177  0.1754  0.5515  0.5025
 5982TIP3    H239362   6.205   6.383   6.300 -2.6417 -0.0814 -1.1021
 5983TIP3   OH239363   4.335   6.537  11.698  0.4355 -0.0551  0.2581
 5983TIP3    H139364   4.423   6.522  11.731  0.3920  1.1913  0.9843
 5983TIP3    H239365   4.348   6.578  11.612  0.5525 -3.5425 -1.6045
 5984TIP3   OH239366   2.057   0.884  10.818 -0.9716 -0.1412  0.0868
 5984TIP3    H139367   1.993   0.920  10.757  0.1814 -1.7629 -2.2559
 5984TIP3    H239368   2.052   0.941  10.895 -0.6759  3.7596 -2.4792
 5985TIP3   OH239369   1.198   4.064   5.731 -0.1013 -0.3067  0.1240
 5985TIP3    H139370   1.153   4.143   5.702 -0.7517 -0.9276 -0.6150
 5985TIP3    H239371   1.135   3.994   5.715 -0.5447 -0.7233  3.1147
 5986TIP3   OH239372   2.018   0.528  13.546  0.1743 -0.0414 -0.5412
 5986TIP3    H139373   2.085   0.597  13.552  0.6186 -0.4225 -0.9791
 5986TIP3    H239374   1.966   0.553  13.469  0.2772 -0.1418 -0.6437
 5987TIP3   OH239375   5.266   4.565   4.745 -0.4278 -0.3934  0.5082
 5987TIP3    H139376   5.299   4.506   4.813 -1.1301 -0.7902  0.5129
 5987TIP3    H239377   5.176   4.536   4.729 -0.4936  0.1216 -0.1161
 5988TIP3   OH239378   2.556   0.706   1.095 -0.3187  0.1708 -0.0894
 5988TIP3    H139379   2.555   0.763   1.171 -0.2200  1.9045 -1.3426
 5988TIP3    H239380   2.649   0.685   1.081 -0.3515 -0.2840  0.3414
 5989TIP3   OH239381   1.139   5.548  10.759  0.3108  0.0569 -0.4493
 5989TIP3    H139382   1.171   5.613  10.821  0.9876  0.9341 -1.6792
 5989TIP3    H239383   1.045   5.566  10.751  0.1932 -0.1575  0.4177
 5990TIP3   OH239384   1.606   6.311  15.241  0.4324 -0.4219 -0.0993
 5990TIP3    H139385   1.569   6.257  15.310 -2.5334  0.9764 -0.4360
 5990TIP3    H239386   1.566   6.277  15.160  0.2931  0.8073 -0.5677
 5991TIP3   OH239387   3.767   2.191  15.361 -0.0673  0.1123 -0.6852
 5991TIP3    H139388   3.712   2.255  15.317 -0.7938 -0.1386 -0.1531
 5991TIP3    H239389   3.716   2.162  15.436  1.1521  0.5501  0.3435
 5992TIP3   OH239390   1.540   1.150   3.356  0.0207  0.2220 -0.1885
 5992TIP3    H139391   1.520   1.187   3.270 -2.6607 -0.4286  0.0377
 5992TIP3    H239392   1.552   1.226   3.413  2.2524  0.6605 -1.1532
 5993TIP3   OH239393   3.628   5.158   3.987 -0.7366 -0.1234 -0.4015
 5993TIP3    H139394   3.643   5.166   4.081 -3.2236 -0.2957  0.0926
 5993TIP3    H239395   3.579   5.237   3.964 -0.5081 -0.2787 -1.4710
 5994TIP3   OH239396   4.602   3.120  12.264 -0.1684  0.1019 -0.6669
 5994TIP3    H139397   4.586   3.157  12.177 -1.5505 -0.0291 -0.4841
 5994TIP3    H239398   4.523   3.071  12.285 -0.7762  1.8787  1.5776
 5995TIP3   OH239399   1.434   0.398  13.512 -0.0704  0.4821  0.2052
 5995TIP3    H139400   1.471   0.406  13.600  0.2662  2.6990 -0.0861
 5995TIP3    H239401   1.340   0.412  13.523  0.0407  1.2865  0.1581
 5996TIP3   OH239402   5.398   5.989   5.070  0.5921 -0.5992 -0.5902
 5996TIP3    H139403   5.446   5.908   5.054  2.3323 -0.2526  2.1203
 5996TIP3    H239404   5.381   5.988   5.164 -1.7484  0.9736 -0.9183
 5997TIP3   OH239405   5.573   3.107   0.224  0.3694 -0.6931 -0.3326
 5997TIP3    H139406   5.599   3.189   0.181 -1.3535 -0.7491 -1.5855
 5997TIP3    H239407   5.499   3.075   0.172 -4.3685  1.0458  4.4865
 5998TIP3   OH239408   6.549   1.377   0.522  0.3724  0.3874  0.0728
 5998TIP3    H139409   6.559   1.409   0.612 -1.1962  0.6314  0.1794
 5998TIP3    H239410   6.471   1.422   0.489 -0.8147 -1.8829 -0.4283
 5999TIP3   OH239411   2.456   4.854   6.352 -0.0964  0.0572 -0.1359
 5999TIP3    H139412   2.447   4.934   6.301 -3.5513  0.8884  1.4638
 5999TIP3    H239413   2.543   4.860   6.392 -0.2406  3.0180 -0.1012
 6000TIP3   OH239414   3.763   5.749  11.140  0.7911 -0.0727  0.1162
 6000TIP3    H139415   3.749   5.686  11.069  3.3768 -0.9380  0.2446
 6000TIP3    H239416   3.856   5.772  11.132  0.3639  2.3252  1.2499
 6001TIP3   OH239417   4.026   5.518  11.270  0.2779 -0.1075  0.1257
 6001TIP3    H139418   3.987   5.563  11.345  0.1006  1.6149 -0.9453
 6001TIP3    H239419   4.034   5.586  11.203  2.1679 -1.1486 -0.7875
 6002TIP3   OH239420   0.652   0.330   0.942 -0.0433  0.5584 -0.0136
 6002TIP3    H139421   0.669   0.237   0.927 -0.5644  0.5784 -0.7684
 6002TIP3    H239422   0.704   0.375   0.875 -1.6220  0.6920 -1.2172
 6003TIP3   OH239423   1.152   5.049  11.533  0.2311  0.8794  0.1170
 6003TIP3    H139424   1.090   4.981  11.508  2.0117 -0.7986  0.0536
 6003TIP3    H239425   1.174   5.029  11.624  2.6434 -0.2475 -0.6252
 6004TIP3   OH239426   5.025   1.750   0.151 -1.0793  0.0819 -1.1341
 6004TIP3    H139427   4.994   1.833   0.186 -1.8499 -0.4999 -0.3850
 6004TIP3    H239428   5.054   1.701   0.228 -0.0941 -0.1304 -1.6297
 6005TIP3   OH239429   0.525   6.792   4.427  0.4685  0.2676 -0.6771
 6005TIP3    H139430   0.512   6.860   4.492  2.2226 -0.9832  1.0988
 6005TIP3    H239431   0.580   6.727   4.470  0.6748 -1.2485 -3.0069
 6006TIP3   OH239432   0.718   6.280  10.622 -0.7445 -0.2502 -0.5209
 6006TIP3    H139433   0.731   6.322  10.537  1.2919  0.9231  0.2922
 6006TIP3    H239434   0.723   6.186  10.603  0.8653 -0.0023 -1.5747
 6007TIP3   OH239435   1.892   6.059  16.243 -0.3264  0.7892  0.3006
 6007TIP3    H139436   1.806   6.018  16.238 -0.9451  2.0156  0.6674
 6007TIP3    H239437   1.947   6.006  16.185 -1.2855 -0.0804  0.1594
 6008TIP3   OH239438   2.504   5.602   1.817  0.1233 -0.2495 -0.1914
 6008TIP3    H139439   2.589   5.587   1.775  0.0119 -2.2320  0.1945
 6008TIP3    H239440   2.525   5.622   1.908  0.2199  0.9969 -0.4644
 6009TIP3   OH239441   0.417   0.121   1.988  0.0754  0.3294  0.0925
 6009TIP3    H139442   0.415   0.205   1.942  1.6811 -0.9148 -2.4979
 6009TIP3    H239443   0.497   0.125   2.040 -0.1325  0.6050  0.3929
 6010TIP3   OH239444   6.767   1.189  13.322 -0.5156  0.4784  0.4571
 6010TIP3    H139445   6.684   1.155  13.356  0.1781 -1.9418 -0.0889
 6010TIP3    H239446   6.781   1.142  13.240  1.5462  0.5827  0.6981
 6011TIP3   OH239447   6.030   5.805   0.696 -0.4411  0.3160  0.5959
 6011TIP3    H139448   6.037   5.751   0.618  1.2907 -0.2284  1.0984
 6011TIP3    H239449   5.939   5.835   0.695 -1.4207 -2.3821  0.1684
 6012TIP3   OH239450   5.786   5.190   1.934 -0.1433 -0.0966  0.6209
 6012TIP3    H139451   5.713   5.170   1.877 -0.4951 -0.5533  1.2122
 6012TIP3    H239452   5.858   5.136   1.901  0.1823  0.9726 -0.4703
 6013TIP3   OH239453   3.182   5.962  15.507 -0.7307  0.4502 -0.2859
 6013TIP3    H139454   3.272   5.988  15.486  0.1640 -2.2104 -0.2058
 6013TIP3    H239455   3.175   5.974  15.602  0.3099 -1.2202  0.0482
 6014TIP3   OH239456   0.758   4.900  12.587  0.1247 -0.1044 -0.3776
 6014TIP3    H139457   0.788   4.903  12.678 -2.6002 -0.5759  0.6314
 6014TIP3    H239458   0.740   4.807  12.571  0.7770 -0.0496 -1.4915
 6015TIP3   OH239459   2.888   3.125   4.550  0.4910 -0.0516  0.4418
 6015TIP3    H139460   2.962   3.075   4.513  1.6450  0.6546  1.7236
 6015TIP3    H239461   2.851   3.170   4.474  1.5473 -0.1971 -0.1940
 6016TIP3   OH239462   1.651   3.140  11.624  0.4811 -0.9687  0.6566
 6016TIP3    H139463   1.639   3.090  11.706 -2.6730  0.7901  1.4597
 6016TIP3    H239464   1.716   3.207  11.646 -0.7381 -0.1549  2.0148
 6017TIP3   OH239465   6.596   3.639  12.374 -0.3717 -0.0230  0.0033
 6017TIP3    H139466   6.546   3.609  12.450 -2.5786 -0.6205 -1.5816
 6017TIP3    H239467   6.670   3.579  12.368 -0.0067  0.2027  1.7972
 6018TIP3   OH239468   5.881   4.034  15.351 -0.1476 -0.0072 -0.3453
 6018TIP3    H139469   5.821   3.963  15.328  1.2946 -1.7429  0.9830
 6018TIP3    H239470   5.855   4.060  15.439  0.4880 -0.1628 -0.1078
 6019TIP3   OH239471   2.167   3.522   1.130  0.2550  0.2029  0.3089
 6019TIP3    H139472   2.094   3.540   1.071  1.5870 -2.7701 -2.5046
 6019TIP3    H239473   2.134   3.456   1.191 -0.2456  1.1319  1.0759
 6020TIP3   OH239474   0.688   4.740   4.764  0.5368 -0.3512  0.5169
 6020TIP3    H139475   0.716   4.677   4.831  1.2269  1.9288  2.5113
 6020TIP3    H239476   0.681   4.823   4.811  0.0128  1.1675 -2.0734
 6021TIP3   OH239477   1.508   0.075  15.687 -0.2086  0.4281 -1.0040
 6021TIP3    H139478   1.447   0.036  15.625  0.0741 -0.0662 -0.9817
 6021TIP3    H239479   1.586   0.094  15.635 -0.2857  0.8086 -0.9798
 6022TIP3   OH239480   0.544   5.333  14.753 -0.3645 -0.9750 -0.4114
 6022TIP3    H139481   0.522   5.332  14.660  0.1299  1.5959 -0.6445
 6022TIP3    H239482   0.639   5.348  14.755 -0.6708  1.2160  0.4195
 6023TIP3   OH239483   1.002   6.002   1.743 -0.3788 -0.0482  0.0282
 6023TIP3    H139484   0.984   6.015   1.837 -0.5773  0.4899 -0.0807
 6023TIP3    H239485   1.097   5.992   1.738 -0.3599 -0.0064  0.2841
 6024TIP3   OH239486   1.385   3.442   5.638 -0.0335 -0.3918  0.6831
 6024TIP3    H139487   1.457   3.384   5.614 -0.0902  0.2815 -1.3401
 6024TIP3    H239488   1.395   3.518   5.580 -2.4412 -0.3475  0.2145
 6025TIP3   OH239489   5.088   5.465   1.113  0.5922 -0.3258 -0.1738
 6025TIP3    H139490   5.110   5.551   1.149  0.9526 -0.5429  0.1390
 6025TIP3    H239491   5.151   5.452   1.042 -0.4442  0.3258 -1.2595
 6026TIP3   OH239492   1.279   0.776   5.532  0.4594 -0.3540 -0.4062
 6026TIP3    H139493   1.259   0.813   5.446  0.7840 -2.6757 -1.5509
 6026TIP3    H239494   1.307   0.686   5.514  2.1040 -0.4154  1.9991
 6027TIP3   OH239495   5.570   5.188  16.613  0.2423 -0.4597 -0.5855
 6027TIP3    H139496   5.573   5.108  16.560  1.5546  0.5568 -2.1382
 6027TIP3    H239497   5.507   5.244  16.570  2.3736  0.9506 -2.0350
 6028TIP3   OH239498   1.509   4.528   0.783 -0.5354  0.3981 -0.0262
 6028TIP3    H139499   1.431   4.570   0.817 -0.9401  0.6228 -1.1824
 6028TIP3    H239500   1.582   4.572   0.826 -1.0314  0.4532  0.7588
 6029TIP3   OH239501   6.054   5.412  16.907  0.1032  0.0236  0.1516
 6029TIP3    H139502   5.981   5.473  16.904  0.6177  0.7150  1.1648
 6029TIP3    H239503   6.079   5.409  17.000  2.2696  0.9034 -0.3404
 6030TIP3   OH239504   0.768   4.553  10.220 -0.1487 -0.2009  0.4049
 6030TIP3    H139505   0.712   4.550  10.297  0.7998 -1.4678  1.0769
 6030TIP3    H239506   0.814   4.470  10.220  0.8488  0.3135 -0.8045
 6031TIP3   OH239507   2.482   0.866   0.323 -0.0621  0.7660  0.2385
 6031TIP3    H139508   2.453   0.879   0.414  1.0258  3.1514  0.3419
 6031TIP3    H239509   2.524   0.949   0.300 -0.4992  0.3157 -2.5489
 6032TIP3   OH239510   1.039   6.265  12.771  0.3065 -0.5465 -0.3849
 6032TIP3    H139511   1.103   6.325  12.733 -1.1100  2.4365  1.5345
 6032TIP3    H239512   0.960   6.317  12.780 -0.0511 -1.4533  4.6536
 6033TIP3   OH239513   0.558   5.180   4.035 -0.1488 -0.2057 -0.1611
 6033TIP3    H139514   0.578   5.192   4.127  1.2156 -0.3270 -0.4216
 6033TIP3    H239515   0.506   5.257   4.012 -1.2616 -0.6095  0.8942
 6034TIP3   OH239516   3.737   0.030  12.764  0.1285 -0.1633 -0.4009
 6034TIP3    H139517   3.802  -0.004  12.703  0.8003  0.9410 -0.3383
 6034TIP3    H239518   3.744  -0.027  12.841 -1.2253 -2.0098 -1.5701
 6035TIP3   OH239519   3.164   5.696  12.984  0.6374  0.0601 -0.4291
 6035TIP3    H139520   3.095   5.678  13.047  0.7058 -2.0084 -0.8968
 6035TIP3    H239521   3.124   5.757  12.922 -1.0579 -1.6515 -1.1032
 6036TIP3   OH239522   2.477   0.235   4.490  0.0758  0.1935 -0.0209
 6036TIP3    H139523   2.393   0.280   4.479  0.0528  0.1862  0.1229
 6036TIP3    H239524   2.535   0.302   4.528 -0.1133 -0.0565  0.7199
 6037TIP3   OH239525   6.243   6.121  12.336  0.2990  0.2358  0.1636
 6037TIP3    H139526   6.194   6.186  12.386  1.1280  0.5653  0.5743
 6037TIP3    H239527   6.207   6.037  12.364  0.8545  0.4067  1.4808
 6038TIP3   OH239528   3.769   1.361  16.153 -0.0819  0.1313 -0.4346
 6038TIP3    H139529   3.842   1.324  16.102  0.7358  1.6674 -0.4599
 6038TIP3    H239530   3.705   1.387  16.086  0.7528  1.6443 -0.6976
 6039TIP3   OH239531   1.618   1.941  11.056 -0.2566  0.1240  0.5851
 6039TIP3    H139532   1.603   1.987  10.973  1.8056  1.6208  0.9526
 6039TIP3    H239533   1.633   1.850  11.030 -0.2169  0.4592 -0.6274
 6040TIP3   OH239534   6.521   2.654   4.805  0.3596 -0.3500  0.3939
 6040TIP3    H139535   6.552   2.744   4.807 -2.8493  0.9115 -0.2831
 6040TIP3    H239536   6.539   2.624   4.716  0.2534  0.1286  0.2092
 6041TIP3   OH239537   1.768   4.882   5.363 -0.1370  0.5073  0.2007
 6041TIP3    H139538   1.853   4.840   5.360 -0.2813  0.1983  0.4221
 6041TIP3    H239539   1.724   4.844   5.439 -0.1313  1.3183  0.6180
 6042TIP3   OH239540   0.797   3.526  14.061 -0.0066  0.1396  0.1289
 6042TIP3    H139541   0.751   3.499  13.981 -0.4196  2.0692 -0.3275
 6042TIP3    H239542   0.735   3.582  14.107  0.7949  0.3185  1.0342
 6043TIP3   OH239543   5.737   4.280   0.660  0.2962 -0.0597  0.4101
 6043TIP3    H139544   5.774   4.325   0.584  0.5361  0.0765  0.6058
 6043TIP3    H239545   5.806   4.220   0.688  0.6908  0.7594  1.2590
 6044TIP3   OH239546   0.506   1.933   3.158  0.5328 -0.5999  0.1927
 6044TIP3    H139547   0.580   1.990   3.181 -0.4765  1.7160 -1.8677
 6044TIP3    H239548   0.543   1.868   3.099  1.1414 -0.1481  0.0678
 6045TIP3   OH239549   5.063   6.116  16.173  0.5761 -0.5679  0.9498
 6045TIP3    H139550   4.977   6.157  16.164  0.4415 -0.8380  0.9949
 6045TIP3    H239551   5.083   6.122  16.266  1.3382  0.9566  0.7195
 6046TIP3   OH239552   5.651   3.679   0.635 -0.3667  0.2181  0.5167
 6046TIP3    H139553   5.603   3.606   0.596 -0.7579 -0.8933  2.8796
 6046TIP3    H239554   5.725   3.638   0.679  0.1487  1.4058  0.7873
 6047TIP3   OH239555   5.993   1.799   5.586  0.0339 -0.5300 -0.4640
 6047TIP3    H139556   5.927   1.749   5.539  1.3022 -0.8817 -1.9647
 6047TIP3    H239557   6.019   1.869   5.526 -0.0812  0.5603  0.7130
 6048TIP3   OH239558   5.441   2.851  11.832 -0.1506 -0.4392 -0.4959
 6048TIP3    H139559   5.348   2.866  11.847 -0.2506 -0.9445 -0.6104
 6048TIP3    H239560   5.460   2.768  11.876  0.8183  0.9044  1.8149
 6049TIP3   OH239561   4.179   5.243  14.992  0.2802  0.2527 -0.5303
 6049TIP3    H139562   4.255   5.214  15.044 -0.2868  0.7205  0.5846
 6049TIP3    H239563   4.179   5.338  15.000 -0.0528  0.3063 -1.0785
 6050TIP3   OH239564   6.199   3.992  11.726 -0.0945  0.3748  0.5196
 6050TIP3    H139565   6.111   4.018  11.702  0.1056  2.1464  1.5585
 6050TIP3    H239566   6.248   3.993  11.643 -0.5068  1.7557  0.2705
 6051TIP3   OH239567   2.644   2.977   1.779 -0.3910 -0.4059 -0.1002
 6051TIP3    H139568   2.667   2.887   1.755  1.0950  0.1891 -1.0814
 6051TIP3    H239569   2.575   3.001   1.717 -0.1892 -0.5927 -0.4023
 6052TIP3   OH239570   3.582   4.117   0.900  0.3628  0.2587  0.4027
 6052TIP3    H139571   3.584   4.034   0.948  1.0303 -0.6769 -1.1474
 6052TIP3    H239572   3.554   4.092   0.812  1.6827  1.4995 -0.4080
 6053TIP3   OH239573   5.537   1.627   3.528  0.1999  0.0014  0.0187
 6053TIP3    H139574   5.447   1.655   3.508  0.2572  0.4852  0.4128
 6053TIP3    H239575   5.564   1.686   3.599  1.1778  0.4970 -0.7514
 6054TIP3   OH239576   1.727   0.663   2.072 -0.2338  0.4063 -0.2119
 6054TIP3    H139577   1.780   0.668   2.152  0.3880 -0.5669 -0.5439
 6054TIP3    H239578   1.636   0.658   2.104  0.0133 -0.0174  0.4408
 6055TIP3   OH239579   0.860   4.721   0.467  0.0617 -0.7396  0.3549
 6055TIP3    H139580   0.947   4.700   0.499  0.6115 -0.3310 -0.8325
 6055TIP3    H239581   0.813   4.637   0.469  0.6243 -1.0526  0.5473
 6056TIP3   OH239582   5.786   5.414  16.783  0.0408 -0.1601  0.0375
 6056TIP3    H139583   5.806   5.507  16.796 -2.2045  0.2465  1.3172
 6056TIP3    H239584   5.699   5.414  16.742  0.5168 -1.7137 -1.0604
 6057TIP3   OH239585   0.147   2.927   5.815 -0.0375 -0.2363  0.1507
 6057TIP3    H139586   0.079   2.990   5.791  0.9819  0.9260  0.2714
 6057TIP3    H239587   0.103   2.842   5.809 -1.7702  0.5481  1.1933
 6058TIP3   OH239588   4.491   2.482   0.524  0.0002 -0.9749 -0.2678
 6058TIP3    H139589   4.425   2.447   0.585  0.8572 -2.0484  0.0778
 6058TIP3    H239590   4.459   2.456   0.437 -0.4278 -0.8086 -0.1635
 6059TIP3   OH239591   2.203   0.346  15.983 -0.3191  0.3661  0.3965
 6059TIP3    H139592   2.149   0.377  16.056  1.0101 -1.3538  2.2267
 6059TIP3    H239593   2.240   0.263  16.015  1.0919  0.0436 -1.8865
 6060TIP3   OH239594   4.808   2.362   0.171 -0.0408 -0.3498 -0.0860
 6060TIP3    H139595   4.772   2.404   0.093  0.5028  0.9060  0.3156
 6060TIP3    H239596   4.903   2.363   0.157 -0.0323 -3.4963 -1.0740
 6061TIP3   OH239597   2.057   2.494   2.523 -0.4419 -0.2064 -0.6462
 6061TIP3    H139598   2.041   2.538   2.606 -0.5385 -1.2979 -0.0703
 6061TIP3    H239599   1.983   2.434   2.512 -0.9920  0.6697 -2.0504
 6062TIP3   OH239600   3.947   5.196   1.523 -0.7466  0.3055  0.1700
 6062TIP3    H139601   3.905   5.261   1.466 -2.2268 -0.2348  0.6037
 6062TIP3    H239602   3.995   5.249   1.588 -1.8927  0.9872  0.4872
 6063TIP3   OH239603   3.110   3.643  14.462 -0.1287 -0.0936  0.0944
 6063TIP3    H139604   3.114   3.548  14.469 -1.8054 -0.1766  0.4640
 6063TIP3    H239605   3.201   3.671  14.454  0.3166 -1.8123 -1.4709
 6064TIP3   OH239606   5.811   2.720   5.326 -0.3966  0.1002  0.3774
 6064TIP3    H139607   5.845   2.792   5.273 -0.4387  0.5837  0.9870
 6064TIP3    H239608   5.762   2.665   5.265  1.7737 -0.8464 -0.6281
 6065TIP3   OH239609   5.523   6.552  11.838  0.1014  0.0909  0.1183
 6065TIP3    H139610   5.463   6.478  11.829 -1.0208  1.0587 -0.7142
 6065TIP3    H239611   5.559   6.564  11.750  0.0208  0.7310  0.1688
 6066TIP3   OH239612   2.203   6.349  14.552 -0.6774 -0.0724 -0.6343
 6066TIP3    H139613   2.284   6.394  14.576 -1.8002  0.3864  2.8279
 6066TIP3    H239614   2.178   6.387  14.468  1.8436  0.8808 -1.0408
 6067TIP3   OH239615   3.536   4.741  13.414  1.1828 -0.4499  0.6518
 6067TIP3    H139616   3.516   4.653  13.382  0.0820 -0.0786  0.2879
 6067TIP3    H239617   3.566   4.728  13.504  1.2418 -1.2146  0.5250
 6068TIP3   OH239618   2.851   5.815  11.292  0.2023  0.2112 -0.0553
 6068TIP3    H139619   2.845   5.845  11.201 -0.9691  0.0986 -0.0277
 6068TIP3    H239620   2.943   5.793  11.304  0.4502  0.6354 -1.0852
 6069TIP3   OH239621   5.169   2.763  11.552 -0.1098  0.1798 -0.0465
 6069TIP3    H139622   5.118   2.843  11.542  1.9232  1.7661  1.2748
 6069TIP3    H239623   5.212   2.751  11.467 -1.0233  0.0140 -0.4961
 6070TIP3   OH239624   4.872   5.878  12.929  0.6843  0.5117 -0.2099
 6070TIP3    H139625   4.823   5.832  12.997  2.1404 -1.1960 -0.2361
 6070TIP3    H239626   4.807   5.934  12.886 -1.5766 -2.4308 -0.9566
 6071TIP3   OH239627   0.701   0.367   5.087  0.1162  0.5399  0.0316
 6071TIP3    H139628   0.750   0.430   5.139  1.4947  1.0213 -1.7395
 6071TIP3    H239629   0.752   0.286   5.091 -0.5217  0.1513  0.5569
 6072TIP3   OH239630   3.844   0.689  14.993  0.4666 -0.1623  0.8798
 6072TIP3    H139631   3.938   0.708  15.000  1.0190 -1.8886 -0.8882
 6072TIP3    H239632   3.818   0.662  15.081  1.5345  0.6446  1.4629
 6073TIP3   OH239633   4.275   3.226   0.472 -0.6002  0.1913  0.3135
 6073TIP3    H139634   4.195   3.279   0.471 -0.4270  0.4793 -1.4846
 6073TIP3    H239635   4.346   3.290   0.472 -0.3903 -0.0168 -0.8222
 6074TIP3   OH239636   2.325   3.739   1.006  0.1039  0.4758  1.3858
 6074TIP3    H139637   2.309   3.736   0.912  0.2000 -0.7809  1.3965
 6074TIP3    H239638   2.398   3.801   1.015  1.6307 -1.0721  0.3828
 6075TIP3   OH239639   3.747   5.802  11.837  0.0669  0.2839  0.0554
 6075TIP3    H139640   3.840   5.782  11.824  0.0303  0.1881 -0.0546
 6075TIP3    H239641   3.709   5.795  11.750 -0.2680 -0.7918  0.2845
 6076TIP3   OH239642   5.584   1.712   4.888  0.5011  0.0959  0.4246
 6076TIP3    H139643   5.677   1.705   4.908  0.4277  0.9298  1.1596
 6076TIP3    H239644   5.572   1.665   4.806  1.8261  1.1543 -0.4105
 6077TIP3   OH239645   4.818   0.567  15.385  0.1728 -0.1605  0.0120
 6077TIP3    H139646   4.891   0.628  15.396 -0.1257  0.2367 -0.1710
 6077TIP3    H239647   4.854   0.496  15.332  0.4328  0.0195 -0.0556
 6078TIP3   OH239648   4.950   6.790   2.577 -0.1297  0.2483  0.0355
 6078TIP3    H139649   5.029   6.762   2.623 -0.0598 -1.4286 -1.0086
 6078TIP3    H239650   4.982   6.842   2.503 -0.0138 -0.0742 -0.1452
 6079TIP3   OH239651   0.544   5.106   3.506 -0.7619  0.5719  0.5892
 6079TIP3    H139652   0.586   5.190   3.486  2.6505 -1.5230 -2.0815
 6079TIP3    H239653   0.576   5.084   3.594  0.4215  0.9106  0.2576
 6080TIP3   OH239654   3.026   2.116   6.159 -0.0397  0.0504 -0.3784
 6080TIP3    H139655   3.109   2.068   6.167 -0.1912 -0.3140 -0.9333
 6080TIP3    H239656   3.012   2.125   6.065  0.1019  1.4091 -0.2899
 6081TIP3   OH239657   6.603   0.844   5.294  0.1609 -0.0029 -0.3328
 6081TIP3    H139658   6.673   0.898   5.331  0.1964 -0.1801 -0.1368
 6081TIP3    H239659   6.622   0.841   5.201  0.5574 -0.2541 -0.2473
 6082TIP3   OH239660   1.636   0.418  15.506 -0.4377 -0.2045  0.5008
 6082TIP3    H139661   1.581   0.435  15.583 -1.9037  1.1236 -0.7571
 6082TIP3    H239662   1.594   0.468  15.436  0.9255 -1.2662 -1.1393
 6083TIP3   OH239663   2.538   6.497  12.780  0.3162 -0.3923  0.5417
 6083TIP3    H139664   2.561   6.557  12.851  1.4432 -0.8309  0.5667
 6083TIP3    H239665   2.455   6.458  12.807 -0.1657  0.7451  0.7723
 6084TIP3   OH239666   3.147   4.785   3.597  0.0208  0.3721 -0.4101
 6084TIP3    H139667   3.215   4.818   3.655  1.2262  0.8717 -2.0425
 6084TIP3    H239668   3.163   4.829   3.513 -0.6561 -1.4859 -1.5862
 6085TIP3   OH239669   3.228   1.041   2.800 -0.2189 -0.2366 -0.2207
 6085TIP3    H139670   3.250   0.961   2.848  0.6402 -0.4974 -1.0162
 6085TIP3    H239671   3.147   1.072   2.840  0.3180 -0.6052  1.1844
 6086TIP3   OH239672   2.565   1.720  14.140 -0.4680  0.1593 -0.1448
 6086TIP3    H139673   2.600   1.744  14.055  1.8484  0.0467  0.7145
 6086TIP3    H239674   2.568   1.624  14.141  1.6981  0.1957  0.8658
 6087TIP3   OH239675   0.400   2.779   0.819 -0.0644 -0.7578 -0.2674
 6087TIP3    H139676   0.457   2.704   0.835  0.1007 -0.6109 -0.1553
 6087TIP3    H239677   0.356   2.759   0.736 -1.3202 -1.7653  0.6066
 6088TIP3   OH239678   2.343   4.051   3.898 -0.0440 -0.3370 -0.5290
 6088TIP3    H139679   2.361   3.959   3.913  0.5985  0.1321  2.0849
 6088TIP3    H239680   2.419   4.083   3.850  0.4975 -0.8343 -0.0149
 6089TIP3   OH239681   6.611   1.318   4.316 -0.0656 -0.3715 -0.1811
 6089TIP3    H139682   6.669   1.244   4.335  1.2001  0.6634  0.0887
 6089TIP3    H239683   6.597   1.360   4.401  1.6363  1.4026 -0.7125
 6090TIP3   OH239684   0.626   3.491   4.281 -0.0265  0.6273  0.1087
 6090TIP3    H139685   0.568   3.463   4.211  0.2446  1.3876 -0.4318
 6090TIP3    H239686   0.600   3.438   4.357 -0.8815  0.3955 -0.3361
 6091TIP3   OH239687   4.437   6.168  15.678  0.2494 -0.0986  0.1019
 6091TIP3    H139688   4.427   6.263  15.674 -0.7398 -0.1423  0.9567
 6091TIP3    H239689   4.528   6.155  15.704  0.4446  0.6052 -0.1883
 6092TIP3   OH239690   3.878   3.685  15.898  0.0370 -0.4400 -0.2368
 6092TIP3    H139691   3.863   3.697  15.804 -0.2795 -0.1257 -0.1467
 6092TIP3    H239692   3.810   3.737  15.940  1.5024  1.2297  0.1839
 6093TIP3   OH239693   2.375   5.091   6.220  0.5894 -0.0053 -0.6155
 6093TIP3    H139694   2.297   5.134   6.255 -0.1796 -3.0592  1.8314
 6093TIP3    H239695   2.443   5.159   6.224 -1.1921  1.8202  0.2116
 6094TIP3   OH239696   5.379   4.279   2.014  0.3929 -0.3334 -0.4791
 6094TIP3    H139697   5.431   4.262   1.936 -0.0635 -1.5447 -0.5308
 6094TIP3    H239698   5.304   4.220   2.008  1.3616 -1.9585  1.8582
 6095TIP3   OH239699   2.588   4.713  14.119 -0.5488  0.6014 -0.4490
 6095TIP3    H139700   2.665   4.748  14.074  0.0600  2.3510  1.7205
 6095TIP3    H239701   2.624   4.669  14.196 -1.6292 -0.4904 -0.5524
 6096TIP3   OH239702   2.934   1.194   3.451  0.4547 -0.7161  0.3587
 6096TIP3    H139703   2.946   1.211   3.357  0.0746 -0.5296  0.3405
 6096TIP3    H239704   2.934   1.281   3.491 -0.0073 -0.7546  0.4507
 6097TIP3   OH239705   6.365   6.812  17.075  0.5082  0.0274 -0.0455
 6097TIP3    H139706   6.366   6.719  17.100 -0.3247 -0.5053 -1.8765
 6097TIP3    H239707   6.281   6.824  17.032 -0.8675  2.4540  2.9140
 6098TIP3   OH239708   0.816   3.227   2.052 -0.1055 -0.3154  0.3521
 6098TIP3    H139709   0.741   3.232   1.992  0.3929  0.0863 -0.2450
 6098TIP3    H239710   0.890   3.203   1.997  0.8876  2.5495  0.3018
 6099TIP3   OH239711   4.192   0.293  12.019  0.3899  0.6038  0.0437
 6099TIP3    H139712   4.250   0.232  11.971 -0.8831  1.7965 -3.2847
 6099TIP3    H239713   4.245   0.372  12.031  0.6837  0.3326  0.5787
 6100TIP3   OH239714   2.873   4.973   1.176 -0.2972  0.3317  0.7632
 6100TIP3    H139715   2.877   5.068   1.166  0.4922  0.4879  2.1755
 6100TIP3    H239716   2.871   4.939   1.087 -0.1589  1.6616  0.2298
 6101TIP3   OH239717   6.568   2.946   3.587  0.3311  0.8733 -0.3053
 6101TIP3    H139718   6.655   2.909   3.572 -0.4612 -1.8984  1.2673
 6101TIP3    H239719   6.538   2.969   3.499  1.9632  0.2371 -1.0900
 6102TIP3   OH239720   1.619   3.655  15.784  0.7413 -0.8602  0.3736
 6102TIP3    H139721   1.674   3.711  15.729 -0.0384 -1.4963 -1.1305
 6102TIP3    H239722   1.579   3.714  15.848  0.0631  0.2948 -1.0608
 6103TIP3   OH239723   5.115   0.148  13.102 -0.2474  0.9920 -0.2955
 6103TIP3    H139724   5.177   0.075  13.100 -0.1670  1.0565 -2.1390
 6103TIP3    H239725   5.036   0.112  13.143  0.1173  0.1439 -0.3205
 6104TIP3   OH239726   1.635   0.746  17.032 -0.2956 -0.2748 -0.6590
 6104TIP3    H139727   1.725   0.775  17.023 -0.4212  0.5887  0.5910
 6104TIP3    H239728   1.608   0.722  16.944  0.6230  1.0714 -1.3392
 6105TIP3   OH239729   5.516   4.707  11.973 -0.0621 -0.1896 -0.6059
 6105TIP3    H139730   5.568   4.721  11.894  0.8726  0.2899  0.0734
 6105TIP3    H239731   5.453   4.779  11.974  0.1532 -0.0016 -0.7234
 6106TIP3   OH239732   4.440   0.784   0.472 -0.1192 -0.5438  0.2109
 6106TIP3    H139733   4.348   0.803   0.452  0.1218  0.1315 -0.2977
 6106TIP3    H239734   4.436   0.720   0.543 -0.9834 -0.6285  0.1005
 6107TIP3   OH239735   2.258   3.637  16.467  0.1103 -0.0466  0.1950
 6107TIP3    H139736   2.309   3.628  16.547 -0.6731 -0.5895  0.6547
 6107TIP3    H239737   2.323   3.652  16.398  0.9460 -1.3063  0.6623
 6108TIP3   OH239738   1.088   0.317   3.506  0.3216  0.2995 -0.4389
 6108TIP3    H139739   1.050   0.403   3.487  0.1845  0.0975 -1.1034
 6108TIP3    H239740   1.060   0.298   3.595  1.5225  1.5695  0.2608
 6109TIP3   OH239741   0.475   0.605   0.152 -0.1917  0.7048  0.2635
 6109TIP3    H139742   0.413   0.531   0.153  1.0181 -0.3355  1.2355
 6109TIP3    H239743   0.532   0.586   0.077 -0.6231  1.3144 -0.2271
 6110TIP3   OH239744   5.641   1.831   1.108 -0.0477 -0.1230  1.2031
 6110TIP3    H139745   5.555   1.857   1.142 -0.6334 -1.6266  0.9294
 6110TIP3    H239746   5.646   1.873   1.022  0.3856  1.6278  2.0215
 6111TIP3   OH239747   4.672   0.618  15.151  0.1535 -0.1169 -0.4290
 6111TIP3    H139748   4.633   0.531  15.141  1.8271 -0.7184 -2.6956
 6111TIP3    H239749   4.693   0.625  15.244 -0.5530 -1.8766 -0.0977
 6112TIP3   OH239750   2.520   2.388  13.397 -0.0369  0.2882 -0.3076
 6112TIP3    H139751   2.425   2.393  13.385 -0.1053 -1.2610 -0.5886
 6112TIP3    H239752   2.555   2.376  13.308  0.1672 -2.0572  0.0343
 6113TIP3   OH239753   6.160   1.418   3.557 -0.3449 -0.7721  0.5599
 6113TIP3    H139754   6.163   1.379   3.469  1.5129  0.1436  0.1829
 6113TIP3    H239755   6.070   1.448   3.566  0.0241  1.5724 -2.1660
 6114TIP3   OH239756   3.622   1.144   0.357  0.2639 -0.3440 -0.0070
 6114TIP3    H139757   3.643   1.128   0.265 -0.5987  2.5891 -0.8120
 6114TIP3    H239758   3.580   1.230   0.357 -1.0270 -0.8677  2.9764
 6115TIP3   OH239759   5.857   5.147   5.703  0.1055  0.7752 -0.2105
 6115TIP3    H139760   5.929   5.155   5.641 -0.2179  1.9641 -0.4581
 6115TIP3    H239761   5.795   5.215   5.677 -0.7703  0.2506  0.4443
 6116TIP3   OH239762   2.383   4.155  14.856 -0.0639 -0.1362 -0.0806
 6116TIP3    H139763   2.325   4.154  14.932 -1.5407 -0.9698 -1.1412
 6116TIP3    H239764   2.408   4.063  14.844 -0.6814 -0.1789 -1.1704
 6117TIP3   OH239765   6.366   1.259  11.471 -0.1338 -0.3264 -0.3232
 6117TIP3    H139766   6.451   1.286  11.436 -0.6387  1.1411 -0.4860
 6117TIP3    H239767   6.365   1.291  11.561  0.3900 -2.4047  0.4745
 6118TIP3   OH239768   1.746   1.703  16.171  0.1131 -0.1347 -0.5433
 6118TIP3    H139769   1.841   1.710  16.172  0.0177  1.6289 -0.0926
 6118TIP3    H239770   1.717   1.765  16.237 -1.3719 -0.3633 -0.9440
 6119TIP3   OH239771   6.389   1.599  12.654 -0.3623  0.0606 -0.7108
 6119TIP3    H139772   6.410   1.672  12.712 -1.5302  0.6104 -0.9617
 6119TIP3    H239773   6.378   1.639  12.568  3.1602 -0.9583 -1.8181
 6120TIP3   OH239774   5.897   5.807   1.121  0.6530  0.5186 -0.2743
 6120TIP3    H139775   5.955   5.733   1.104  0.2197  0.1210 -0.0350
 6120TIP3    H239776   5.871   5.838   1.034  0.2718 -0.0611 -0.3755
 6121TIP3   OH239777   3.197   6.665  11.958  0.4053  0.1449  0.5849
 6121TIP3    H139778   3.163   6.687  11.872  0.5015  0.3689  0.6037
 6121TIP3    H239779   3.121   6.667  12.016 -0.1551 -2.4525  0.0891
 6122TIP3   OH239780   1.494   5.207  15.469  0.2627 -0.4338 -0.0370
 6122TIP3    H139781   1.579   5.244  15.494  0.3114 -1.0224  0.7068
 6122TIP3    H239782   1.454   5.180  15.551 -0.5342 -0.4117 -0.4090
 6123TIP3   OH239783   3.328   6.106   4.605  0.0998  0.1972 -0.1606
 6123TIP3    H139784   3.251   6.062   4.570  0.5827 -0.0826 -0.9006
 6123TIP3    H239785   3.377   6.036   4.649 -0.6597  0.6055  1.3815
 6124TIP3   OH239786   2.545   2.794   2.827  0.1992 -0.2123 -0.2680
 6124TIP3    H139787   2.451   2.804   2.810 -0.0769 -1.0289  0.6552
 6124TIP3    H239788   2.551   2.785   2.922  1.1864 -0.4430 -0.3394
 6125TIP3   OH239789   3.933   6.469   3.281 -0.2962 -0.1736 -0.0319
 6125TIP3    H139790   3.933   6.475   3.376  0.6557  1.0891 -0.0881
 6125TIP3    H239791   3.972   6.383   3.262  3.0652  1.0516  0.7017
 6126TIP3   OH239792   6.540   6.138   3.463  0.6941  0.1867  0.2427
 6126TIP3    H139793   6.564   6.099   3.379  2.3195  1.5269  0.0174
 6126TIP3    H239794   6.613   6.118   3.521 -0.2516 -0.4257  1.2569
 6127TIP3   OH239795   6.303   2.558   0.170 -0.2777 -0.0047 -0.6517
 6127TIP3    H139796   6.225   2.523   0.213 -0.7821  1.9970  0.1483
 6127TIP3    H239797   6.290   2.652   0.168  1.3500  0.2493 -2.0944
 6128TIP3   OH239798   3.934   1.430  11.781 -0.2090  0.0175  0.0559
 6128TIP3    H139799   3.962   1.522  11.782 -1.9743  0.5956  1.5146
 6128TIP3    H239800   3.839   1.434  11.783 -0.3676 -1.8763 -1.2979
 6129TIP3   OH239801   2.421   6.597  10.528  0.0879 -0.2598 -0.0057
 6129TIP3    H139802   2.460   6.683  10.542  0.5335 -0.6638  1.3285
 6129TIP3    H239803   2.327   6.615  10.524  0.2792  0.6005 -2.3879
 6130TIP3   OH239804   0.857   2.492  13.654 -0.0815  0.5344  0.2754
 6130TIP3    H139805   0.870   2.458  13.743  0.7905  0.0435 -0.0268
 6130TIP3    H239806   0.937   2.541  13.636 -0.7354  1.5823  0.1719
 6131TIP3   OH239807   5.161   3.086  15.405 -0.3310  0.1034 -0.2699
 6131TIP3    H139808   5.088   3.053  15.353 -0.2700 -0.9020  0.2546
 6131TIP3    H239809   5.179   3.173  15.369 -0.9858 -0.1325 -1.2021
 6132TIP3   OH239810   4.432   6.802   0.031  0.4772 -0.3075  0.1943
 6132TIP3    H139811   4.522   6.827   0.010  0.7243  0.7026  2.2786
 6132TIP3    H239812   4.403   6.867   0.094 -0.9098 -1.9429  1.3420
 6133TIP3   OH239813   1.664   3.202  12.793 -0.3674  0.2949 -0.2271
 6133TIP3    H139814   1.614   3.129  12.827  1.5318 -0.6075  0.7547
 6133TIP3    H239815   1.713   3.235  12.868 -0.7904  2.2819 -0.7615
 6134TIP3   OH239816   3.419   3.160   3.371 -0.0745 -0.0915 -0.2856
 6134TIP3    H139817   3.350   3.190   3.431 -0.2355 -0.4943 -0.2663
 6134TIP3    H239818   3.476   3.236   3.360 -0.6250  0.3054 -0.4439
 6135TIP3   OH239819   2.770   6.760  13.806 -0.2143 -0.2297  0.4152
 6135TIP3    H139820   2.862   6.775  13.825 -0.3005  0.5815  0.2414
 6135TIP3    H239821   2.740   6.842  13.768 -0.9578 -0.5590  0.2739
 6136TIP3   OH239822   1.792   6.090   3.510 -0.9396 -0.0538  0.1487
 6136TIP3    H139823   1.861   6.148   3.478 -0.3548 -0.9000 -0.1497
 6136TIP3    H239824   1.808   6.007   3.466 -0.8085 -0.9224  1.7529
 6137TIP3   OH239825   0.444   6.015  14.366 -0.1019 -0.3010 -0.2821
 6137TIP3    H139826   0.422   6.028  14.459 -0.4017 -0.7532 -0.2865
 6137TIP3    H239827   0.492   5.933  14.364 -0.1091 -0.3003 -0.5297
 6138TIP3   OH239828   5.159   6.797  12.284  0.7986  0.6772 -0.2002
 6138TIP3    H139829   5.083   6.815  12.229  0.2591  1.8703  0.8978
 6138TIP3    H239830   5.232   6.837  12.238  0.6083  0.3604 -0.7881
 6139TIP3   OH239831   0.220   1.036   1.729  0.1666  0.2843 -0.3173
 6139TIP3    H139832   0.282   0.964   1.712 -0.5054 -0.1474 -1.0387
 6139TIP3    H239833   0.274   1.106   1.764  1.3685  0.5050 -2.4466
 6140TIP3   OH239834   2.237   0.467  11.623 -0.1050  0.8643 -0.4901
 6140TIP3    H139835   2.257   0.426  11.707  0.1848 -0.6360 -1.2668
 6140TIP3    H239836   2.169   0.532  11.644 -0.0882  0.4748  0.8793
 6141TIP3   OH239837   2.882   0.275  13.147 -0.0993  0.8398 -0.4979
 6141TIP3    H139838   2.825   0.228  13.208  0.4819  0.9617  0.1518
 6141TIP3    H239839   2.823   0.334  13.099 -0.9113 -0.7545 -1.5762
 6142TIP3   OH239840   0.350   6.202  15.564 -0.0181 -0.1468 -0.3130
 6142TIP3    H139841   0.305   6.150  15.630  1.4039 -0.7214  0.2535
 6142TIP3    H239842   0.282   6.227  15.501 -1.4522  0.5167  1.4102
 6143TIP3   OH239843   5.567   4.902  11.498  0.1022  0.3054 -0.1256
 6143TIP3    H139844   5.623   4.969  11.460 -0.6510  1.4584  0.7088
 6143TIP3    H239845   5.627   4.837  11.533  0.9821  1.7123  1.1164
 6144TIP3   OH239846   2.672   4.055   3.103  0.2156 -0.3087  0.1069
 6144TIP3    H139847   2.585   4.016   3.111  0.2594 -0.2248  1.0753
 6144TIP3    H239848   2.711   4.045   3.190 -0.3436  3.2341  0.9291
 6145TIP3   OH239849   5.150   6.046  11.555  0.2775  0.1810  0.1117
 6145TIP3    H139850   5.216   5.997  11.506  1.1879  1.0543  0.4120
 6145TIP3    H239851   5.177   6.137  11.546  0.0429  0.4288  1.5699
 6146TIP3   OH239852   4.024   4.457  10.853  0.0363  0.4768 -0.1152
 6146TIP3    H139853   4.008   4.420  10.766 -0.9538  0.0389  0.2437
 6146TIP3    H239854   4.021   4.552  10.839  1.5499  0.4450 -0.8471
 6147TIP3   OH239855   1.699   5.085   0.223  0.2540 -0.2094  0.1929
 6147TIP3    H139856   1.613   5.048   0.202 -0.3768  1.8915 -1.2885
 6147TIP3    H239857   1.701   5.089   0.319 -1.2428 -0.4260  0.2581
 6148TIP3   OH239858   5.381   5.042   4.330 -0.3797 -0.2107  0.1838
 6148TIP3    H139859   5.346   5.088   4.406  1.2467  1.5016 -0.0402
 6148TIP3    H239860   5.353   5.094   4.255 -0.9802 -1.2429 -0.3319
 6149TIP3   OH239861   4.185   6.440   1.764 -0.1588 -0.6186 -0.3154
 6149TIP3    H139862   4.251   6.400   1.820  0.1055 -0.3244 -0.4144
 6149TIP3    H239863   4.121   6.478   1.826  0.1204 -0.3133 -0.2077
 6150TIP3   OH239864   0.471   0.926  11.308  0.0343  0.0271 -0.5906
 6150TIP3    H139865   0.471   0.866  11.233  0.6075 -1.1091  0.2976
 6150TIP3    H239866   0.380   0.955  11.316 -0.4063 -1.3060 -0.5819
 6151TIP3   OH239867   3.351   2.133  16.865  0.5490 -0.1111  0.2304
 6151TIP3    H139868   3.437   2.136  16.824 -0.0213 -2.2789 -1.2736
 6151TIP3    H239869   3.316   2.221  16.853  1.0874 -0.1774 -2.5273
 6152TIP3   OH239870   3.514   3.033   6.132  0.0723 -0.5824 -0.0101
 6152TIP3    H139871   3.565   3.072   6.061 -1.0288 -2.3108 -1.8687
 6152TIP3    H239872   3.578   3.017   6.201  1.3855  0.3284 -0.9738
 6153TIP3   OH239873   2.963   2.279   5.733  0.0573  0.6191  0.3635
 6153TIP3    H139874   2.971   2.315   5.821  0.8647  0.1667  0.4909
 6153TIP3    H239875   2.872   2.252   5.726  0.1236  0.1095  1.2828
 6154TIP3   OH239876   3.237   2.139  15.083 -0.4821  0.1703 -0.0082
 6154TIP3    H139877   3.230   2.046  15.105  0.5223  0.2640  0.7762
 6154TIP3    H239878   3.239   2.184  15.167 -0.9419  0.9092 -0.3821
 6155TIP3   OH239879   6.790   2.474  13.065 -0.5760  0.0633  0.5404
 6155TIP3    H139880   6.805   2.380  13.076  0.0506  0.1920  0.8188
 6155TIP3    H239881   6.848   2.499  12.992 -0.8518  0.2075  0.3668
 6156TIP3   OH239882   5.905   2.470  15.507 -0.1227 -0.1631  0.0504
 6156TIP3    H139883   5.950   2.485  15.424  1.3817 -0.1239  0.8445
 6156TIP3    H239884   5.822   2.428  15.482 -0.3059  1.0705 -1.5370
 6157TIP3   OH239885   0.019   6.088  15.212  0.2447  0.0607 -0.1653
 6157TIP3    H139886  -0.041   6.155  15.178  0.8545 -0.2889 -2.0366
 6157TIP3    H239887   0.090   6.085  15.149  0.9570 -1.3650  0.6485
 6158TIP3   OH239888   0.385   1.709   1.730 -0.1025  0.0168  0.1427
 6158TIP3    H139889   0.455   1.648   1.708 -0.0053 -0.4683  1.6893
 6158TIP3    H239890   0.419   1.758   1.805 -2.3827 -2.0784  2.7143
 6159TIP3   OH239891   6.641   5.346   0.716  0.7277 -0.3173  0.1643
 6159TIP3    H139892   6.630   5.388   0.801  0.1402  0.7363 -0.4030
 6159TIP3    H239893   6.652   5.253   0.736 -1.4218 -0.3927  1.3148
 6160TIP3   OH239894   6.087   0.569   4.974 -0.0273 -0.5027  0.1649
 6160TIP3    H139895   6.059   0.583   4.883 -1.3492 -3.9509 -0.0816
 6160TIP3    H239896   6.160   0.507   4.967  0.8112  0.3032  1.4264
 6161TIP3   OH239897   3.875   3.708   2.347  0.5898 -0.4221 -0.2114
 6161TIP3    H139898   3.843   3.662   2.424 -0.0672 -0.9069 -0.7618
 6161TIP3    H239899   3.963   3.673   2.332  0.5390 -0.6596  0.0413
 6162TIP3   OH239900   4.161   6.770   3.464 -0.0211 -0.2681  0.4569
 6162TIP3    H139901   4.251   6.799   3.476 -0.4110  0.6855  1.1950
 6162TIP3    H239902   4.166   6.675   3.472  0.9767 -0.2613  0.0811
 6163TIP3   OH239903   3.799   3.362  16.462 -0.0195 -0.3660  0.0753
 6163TIP3    H139904   3.781   3.274  16.428 -0.3405 -0.8524  1.4541
 6163TIP3    H239905   3.868   3.349  16.527  0.8037  0.5890 -0.5795
 6164TIP3   OH239906   1.780   3.735   5.851 -0.0598 -0.5210  0.4722
 6164TIP3    H139907   1.707   3.683   5.884 -0.7422 -0.6766 -1.2163
 6164TIP3    H239908   1.855   3.676   5.853 -0.6789 -1.3850 -0.7584
 6165TIP3   OH239909   5.564   3.530   4.637 -0.3275 -0.2595 -0.3753
 6165TIP3    H139910   5.522   3.461   4.689  0.3870  0.0973  0.7202
 6165TIP3    H239911   5.601   3.484   4.562 -0.5107 -0.9605 -0.0505
 6166TIP3   OH239912   6.544   5.765   6.271  0.4082 -0.1648  0.2086
 6166TIP3    H139913   6.554   5.685   6.219  0.2300 -1.0184  1.4631
 6166TIP3    H239914   6.571   5.741   6.359  0.5582  1.2271  0.5754
 6167TIP3   OH239915   0.392   1.171   4.655  0.1437 -0.2610  0.7800
 6167TIP3    H139916   0.449   1.201   4.726 -0.9916  1.9901  0.8585
 6167TIP3    H239917   0.353   1.090   4.687 -0.7492  0.9555  3.0470
 6168TIP3   OH239918   6.173   3.706   1.331  0.4095 -0.1915 -0.0691
 6168TIP3    H139919   6.170   3.626   1.383 -0.4068 -0.2753 -0.2293
 6168TIP3    H239920   6.258   3.703   1.287  0.4927 -0.8401  0.1232
 6169TIP3   OH239921   1.367   5.866  14.050 -0.0319 -0.1335 -0.3729
 6169TIP3    H139922   1.442   5.924  14.040  0.0172 -0.0376  0.5330
 6169TIP3    H239923   1.365   5.844  14.143 -1.6076  0.5283 -0.2092
 6170TIP3   OH239924   2.290   0.573  12.021  0.5782 -0.4746 -0.2589
 6170TIP3    H139925   2.281   0.657  11.976  3.4966 -0.0197 -0.1590
 6170TIP3    H239926   2.252   0.509  11.961 -1.9879  0.8609 -0.2090
 6171TIP3   OH239927   0.548   5.461  15.600 -0.0199 -0.1842  0.7196
 6171TIP3    H139928   0.564   5.528  15.533 -0.2635 -0.2802  0.5659
 6171TIP3    H239929   0.636   5.433  15.628  0.0886 -0.7915 -0.2022
 6172TIP3   OH239930   3.608   3.446  16.836  0.2726  0.0154  0.1701
 6172TIP3    H139931   3.554   3.446  16.756  1.5224 -0.3893 -0.6970
 6172TIP3    H239932   3.634   3.537  16.847  0.1834  0.0539  0.0667
 6173TIP3   OH239933   6.806   5.662  14.711  0.0677  0.2343 -0.5748
 6173TIP3    H139934   6.817   5.570  14.686  1.2757  0.2981 -0.3339
 6173TIP3    H239935   6.828   5.711  14.633 -1.5315  0.3278 -1.0094
 6174TIP3   OH239936   5.482   5.933  14.454 -0.1194  0.1349  0.4320
 6174TIP3    H139937   5.414   5.998  14.467  0.0489  0.1024  1.5821
 6174TIP3    H239938   5.557   5.966  14.505 -0.3458 -1.4048  1.8579
 6175TIP3   OH239939   2.368   3.334  12.132 -0.4875 -0.4105 -0.3117
 6175TIP3    H139940   2.300   3.401  12.117 -0.1991 -0.0344  0.0422
 6175TIP3    H239941   2.325   3.269  12.187  0.1176  1.0346  2.0243
 6176TIP3   OH239942   5.428   1.754   2.789  0.1357  0.2512  0.4567
 6176TIP3    H139943   5.431   1.659   2.778 -0.4802  0.3460 -0.6418
 6176TIP3    H239944   5.453   1.768   2.881  2.9074 -0.8019 -0.0267
 6177TIP3   OH239945   3.139   4.522  15.186 -0.2301  0.3458  0.9630
 6177TIP3    H139946   3.181   4.597  15.146 -2.0021  0.6531 -0.4489
 6177TIP3    H239947   3.192   4.447  15.160 -0.6238  0.6940 -0.9721
 6178TIP3   OH239948   0.308   3.756  15.025 -0.3277 -0.0686  0.0423
 6178TIP3    H139949   0.216   3.763  15.000 -0.1391 -0.7137 -0.8542
 6178TIP3    H239950   0.306   3.732  15.118 -1.0508  0.5619  0.2001
 6179TIP3   OH239951   1.612   5.403  15.037 -0.3751 -0.1684  0.1749
 6179TIP3    H139952   1.628   5.403  14.942 -0.7152 -0.9636  0.1097
 6179TIP3    H239953   1.526   5.362  15.046  0.0556 -0.9255  0.8917
 6180TIP3   OH239954   0.314   5.542  11.814 -0.8474 -0.4357 -0.3882
 6180TIP3    H139955   0.349   5.542  11.725 -1.5134  0.7788 -0.6669
 6180TIP3    H239956   0.387   5.572  11.868 -1.5009  2.6684 -1.0403
 6181TIP3   OH239957   0.230   6.508  15.933  0.5586 -0.1187 -0.1862
 6181TIP3    H139958   0.308   6.563  15.922 -0.4800  1.4948  0.1272
 6181TIP3    H239959   0.184   6.515  15.849  0.1823 -0.0913  0.0197
 6182TIP3   OH239960   6.074   4.294  13.804  0.3988 -0.0942 -0.4994
 6182TIP3    H139961   6.080   4.329  13.892 -0.1923 -2.6919  0.6554
 6182TIP3    H239962   5.994   4.333  13.768 -0.3233 -0.3778  0.7695
 6183TIP3   OH239963   3.437   1.390  14.120 -0.1170 -0.2399 -0.4603
 6183TIP3    H139964   3.524   1.429  14.128 -0.0410 -0.2443 -1.1778
 6183TIP3    H239965   3.380   1.449  14.170  0.2312 -0.0185 -0.3189
 6184TIP3   OH239966   0.933   2.951  14.265 -0.0731 -0.0971 -0.2545
 6184TIP3    H139967   0.937   2.861  14.299  1.4650  0.2875  0.7067
 6184TIP3    H239968   0.873   2.996  14.324 -1.6210 -0.6914 -1.3212
 6185TIP3   OH239969   5.181   4.126   5.965 -0.6528 -0.2140 -0.2087
 6185TIP3    H139970   5.090   4.097   5.954 -0.0073 -2.9586  0.8870
 6185TIP3    H239971   5.194   4.130   6.059  0.0865  1.1893 -0.3550
 6186TIP3   OH239972   2.199   5.390   4.449 -0.6429 -0.1264  0.1163
 6186TIP3    H139973   2.134   5.383   4.519 -1.7811 -0.1932 -0.9080
 6186TIP3    H239974   2.283   5.374   4.492 -1.0732  1.9152  1.8438
 6187TIP3   OH239975   1.888   2.660  11.219  0.4098  0.5753  0.4591
 6187TIP3    H139976   1.927   2.746  11.208 -2.0826  1.8168  0.7105
 6187TIP3    H239977   1.898   2.617  11.134  2.8811  0.5028  0.7166
 6188TIP3   OH239978   6.345   0.577  12.574  0.1631  0.0994  0.3243
 6188TIP3    H139979   6.401   0.530  12.512  0.0536 -0.4677  0.6402
 6188TIP3    H239980   6.291   0.634  12.520  1.2284  0.8587  0.0337
 6189TIP3   OH239981   6.318   5.222   3.920 -0.0116  1.0953 -0.2007
 6189TIP3    H139982   6.298   5.138   3.879 -1.1715  1.6594 -0.8602
 6189TIP3    H239983   6.375   5.201   3.994 -1.9851 -0.4906  0.9445
 6190TIP3   OH239984   6.014   5.636  16.040  0.1367  0.2862  0.9751
 6190TIP3    H139985   5.922   5.659  16.029  0.1142 -0.4378 -0.4944
 6190TIP3    H239986   6.016   5.578  16.116 -1.1098 -2.3126 -0.8459
 6191TIP3   OH239987   6.165   6.173  14.659 -0.0123  0.0658 -0.0800
 6191TIP3    H139988   6.190   6.158  14.750  1.7593  0.1153 -0.5213
 6191TIP3    H239989   6.180   6.088  14.616 -1.9274 -0.2820 -0.1214
 6192TIP3   OH239990   6.795   2.205   2.294 -0.0193  0.4410 -0.4476
 6192TIP3    H139991   6.767   2.278   2.350  0.9677  0.7871 -0.3836
 6192TIP3    H239992   6.890   2.212   2.292  0.2110 -1.6688  0.6933
 6193TIP3   OH239993   5.394   6.023   3.386 -0.0140 -0.3373  0.3921
 6193TIP3    H139994   5.342   6.071   3.321 -0.5355 -0.4048  0.7478
 6193TIP3    H239995   5.429   6.091   3.443  0.2784 -0.2933  0.1658
 6194TIP3   OH239996   0.087   0.813   0.855 -0.3219  0.7508  0.2650
 6194TIP3    H139997   0.137   0.742   0.814 -1.1016 -0.0918  0.7416
 6194TIP3    H239998   0.044   0.857   0.782  0.1197  0.6931 -0.0315
 6195TIP3   OH239999   3.706   5.521   5.271  0.3809 -0.7210  0.5012
 6195TIP3    H140000   3.717   5.609   5.308  1.0648  0.2886 -1.8753
 6195TIP3    H240001   3.710   5.462   5.346 -1.0750  1.3114  2.3031
 6196TIP3   OH240002   4.426   0.163   0.264  0.2283  0.0695 -0.4232
 6196TIP3    H140003   4.396   0.227   0.199 -0.3225  1.0056  0.7071
 6196TIP3    H240004   4.502   0.205   0.305  1.9107 -1.4216 -1.8753
 6197TIP3   OH240005   5.682   3.490  12.672  0.0368 -0.7151 -0.0157
 6197TIP3    H140006   5.644   3.471  12.586  1.5801  0.7261 -1.0653
 6197TIP3    H240007   5.757   3.431  12.678  1.0827  0.5426 -0.5230
 6198TIP3   OH240008   2.377   0.251   5.237  0.3714  0.2912  0.0514
 6198TIP3    H140009   2.361   0.163   5.272  1.3665 -0.4787 -1.3716
 6198TIP3    H240010   2.311   0.305   5.281 -1.8445 -1.5701 -0.7454
 6199TIP3   OH240011   3.563   1.956   4.385  0.6028 -0.2240  0.4977
 6199TIP3    H140012   3.507   2.012   4.331  1.7565  2.4207  1.8221
 6199TIP3    H240013   3.645   1.950   4.335  0.0733 -1.8693 -0.2224
 6200TIP3   OH240014   2.304   6.369  12.870 -0.3306  0.0214  0.7860
 6200TIP3    H140015   2.323   6.306  12.801 -0.1249  0.7939  0.1192
 6200TIP3    H240016   2.211   6.390  12.858  0.4463  2.6929 -1.4741
 6201TIP3   OH240017   3.807   0.523   5.758  0.3060 -0.2391 -0.4563
 6201TIP3    H140018   3.775   0.575   5.832  0.8587 -0.9901  0.3339
 6201TIP3    H240019   3.838   0.441   5.798  2.3628  0.0837 -1.2673
 6202TIP3   OH240020   0.728   6.424   5.504  0.0209  0.3624  0.0923
 6202TIP3    H140021   0.703   6.487   5.436 -1.5370 -0.3271 -0.0014
 6202TIP3    H240022   0.724   6.475   5.585  1.1468  0.9905 -0.2189
 6203TIP3   OH240023   6.740   1.313  15.566 -0.5376  0.5763  0.4152
 6203TIP3    H140024   6.779   1.291  15.481  0.1448 -1.4585  1.1828
 6203TIP3    H240025   6.814   1.344  15.618 -0.6450  0.2899  0.7383
 6204TIP3   OH240026   1.167   6.511   4.192 -0.7697 -0.1934  0.2379
 6204TIP3    H140027   1.242   6.539   4.246 -1.4140  1.8329  0.1648
 6204TIP3    H240028   1.205   6.453   4.126  1.2609  2.6819 -1.3452
 6205TIP3   OH240029   5.746   0.799  14.074  0.0607  0.1159 -0.2078
 6205TIP3    H140030   5.655   0.813  14.046 -0.4372  0.5529  1.4992
 6205TIP3    H240031   5.739   0.770  14.165  1.6366  0.1960 -0.0327
 6206TIP3   OH240032   0.958   6.808   4.061  0.0550 -0.1148  0.2953
 6206TIP3    H140033   0.984   6.793   4.152 -1.9970 -0.5245  0.8572
 6206TIP3    H240034   0.933   6.721   4.029  1.6705 -0.1507 -1.0097
 6207TIP3   OH240035   5.971   3.294   3.336 -0.3990 -0.2500 -0.2503
 6207TIP3    H140036   5.944   3.381   3.365  0.6384  0.8726 -2.3899
 6207TIP3    H240037   6.062   3.286   3.364 -0.9420 -1.3648  1.3350
 6208TIP3   OH240038   5.370   6.103  15.937 -0.3368  0.1288 -0.4087
 6208TIP3    H140039   5.368   6.146  16.022  2.8033 -0.4382  0.0580
 6208TIP3    H240040   5.364   6.175  15.874 -2.1432  0.5902  0.2274
 6209TIP3   OH240041   3.719   3.184   2.090  0.2211 -0.0474  0.7467
 6209TIP3    H140042   3.638   3.220   2.054  0.3522 -2.0193 -1.8126
 6209TIP3    H240043   3.788   3.219   2.033  0.9053 -0.2885  1.4085
 6210TIP3   OH240044   5.883   1.731   1.665 -0.6375  0.1315  0.3371
 6210TIP3    H140045   5.828   1.655   1.682 -0.6168  0.3261  1.3931
 6210TIP3    H240046   5.821   1.804   1.658 -0.5918  0.1878  0.4962
 6211TIP3   OH240047   0.230   5.148  13.607  0.8169 -0.2758 -0.0152
 6211TIP3    H140048   0.278   5.187  13.534  1.5001 -0.3752  0.3781
 6211TIP3    H240049   0.293   5.089  13.649  0.4840 -0.0867  0.7616
 6212TIP3   OH240050   0.445   4.956   4.330  0.6147  0.1762 -0.3678
 6212TIP3    H140051   0.403   4.890   4.384  3.1244  0.0031  1.5388
 6212TIP3    H240052   0.465   5.028   4.390  1.5664  0.9142 -1.5096
 6213TIP3   OH240053   2.950   5.502  12.802 -0.0940  0.0768 -0.4526
 6213TIP3    H140054   2.858   5.511  12.778 -0.7546  1.3224  2.1604
 6213TIP3    H240055   2.996   5.487  12.719 -2.8002 -2.3587 -1.6722
 6214TIP3   OH240056   5.585   5.119   5.349  0.2484  0.2805  0.2037
 6214TIP3    H140057   5.555   5.138   5.438 -0.8931 -0.6541  0.0527
 6214TIP3    H240058   5.507   5.087   5.304  1.5242 -2.9639 -0.0219
 6215TIP3   OH240059   4.778   6.117   0.581  0.2991  0.4726  0.2449
 6215TIP3    H140060   4.747   6.120   0.672  0.8606 -2.1636  0.5932
 6215TIP3    H240061   4.795   6.025   0.565 -2.3686  0.3989 -3.4366
 6216TIP3   OH240062   5.173   5.912  11.854 -0.2951 -0.1073  0.0570
 6216TIP3    H140063   5.155   5.891  11.762 -3.1393  1.2328  0.1980
 6216TIP3    H240064   5.233   5.987  11.850 -0.1442 -0.2605 -0.7031
 6217TIP3   OH240065   0.025   1.958   4.518 -0.4253  0.4281  0.5812
 6217TIP3    H140066   0.055   2.017   4.448 -1.3603 -0.7036 -0.8388
 6217TIP3    H240067   0.065   1.993   4.597  0.9585  1.5796 -0.5573
 6218TIP3   OH240068   2.200   3.454   0.326  0.1837 -0.1357  0.0353
 6218TIP3    H140069   2.153   3.385   0.373 -0.0889 -0.1032 -0.1840
 6218TIP3    H240070   2.140   3.529   0.326  0.5920  0.1938  0.5126
 6219TIP3   OH240071   4.005   4.383   1.688  0.2199 -0.2319 -0.1485
 6219TIP3    H140072   3.993   4.407   1.597 -3.9389 -0.7736  0.0526
 6219TIP3    H240073   3.997   4.287   1.689 -2.5031 -0.0826  0.9291
 6220TIP3   OH240074   6.397   3.522  11.264 -0.2618  0.5568  0.1875
 6220TIP3    H140075   6.474   3.489  11.218  0.0688  0.0872  1.0421
 6220TIP3    H240076   6.323   3.479  11.221 -0.3104  2.7930 -2.2128
 6221TIP3   OH240077   6.788   2.836  15.675 -0.0480 -0.4105  0.3573
 6221TIP3    H140078   6.865   2.822  15.730 -0.0865 -0.8810  0.2957
 6221TIP3    H240079   6.821   2.886  15.600  0.4526 -1.6172 -0.2621
 6222TIP3   OH240080   2.743   3.972   1.843 -0.1456  0.6840  0.2739
 6222TIP3    H140081   2.716   4.063   1.853 -1.6283  0.3715 -0.5750
 6222TIP3    H240082   2.712   3.929   1.922 -1.7589  0.4454 -0.4389
 6223TIP3   OH240083   0.421   5.753  10.475 -0.2256  0.2653  0.2828
 6223TIP3    H140084   0.515   5.751  10.457 -0.3838  2.4130 -1.2201
 6223TIP3    H240085   0.391   5.837  10.438 -2.8272 -0.5739  0.2418
 6224TIP3   OH240086   0.406   1.250  11.149  0.1200 -0.1727 -0.4800
 6224TIP3    H140087   0.338   1.316  11.134 -1.2373 -1.2028  0.7791
 6224TIP3    H240088   0.464   1.256  11.073 -2.9925 -1.1952 -3.1772
 6225TIP3   OH240089   6.028   2.821   2.838  0.8025 -0.5149  0.2955
 6225TIP3    H140090   6.071   2.889   2.890 -1.2415  0.8931  0.2370
 6225TIP3    H240091   6.079   2.817   2.758  1.6480  0.1208  0.7830
 6226TIP3   OH240092   4.997   6.624  13.982 -0.5207 -0.3788 -0.0135
 6226TIP3    H140093   4.964   6.622  13.892  0.1354  0.8520 -0.3027
 6226TIP3    H240094   5.092   6.612  13.973 -0.4569 -0.2838  0.5191
 6227TIP3   OH240095   4.479   2.575  14.863  0.0599 -0.0483 -0.1936
 6227TIP3    H140096   4.434   2.623  14.794 -0.9002  0.6882  0.8931
 6227TIP3    H240097   4.409   2.544  14.920  0.7149 -2.0687 -0.4147
 6228TIP3   OH240098   2.913   5.671   0.597  0.3381 -0.1507 -0.2140
 6228TIP3    H140099   2.937   5.648   0.507  0.5413  0.1996 -0.2521
 6228TIP3    H240100   2.996   5.681   0.643  0.2449 -2.7207  0.6625
 6229TIP3   OH240101   6.319   6.305  10.915  0.0151 -0.7598  0.1644
 6229TIP3    H140102   6.238   6.296  10.963  1.0246  1.4229  2.5151
 6229TIP3    H240103   6.388   6.298  10.982  1.7263 -1.2941 -1.5469
 6230TIP3   OH240104   0.769   3.645   1.209 -0.6229  0.0076  0.7274
 6230TIP3    H140105   0.679   3.620   1.187 -0.3707 -2.2987  1.9570
 6230TIP3    H240106   0.781   3.613   1.299  1.2404  0.7799  0.7897
 6231TIP3   OH240107   5.655   2.933  13.389  0.2957  0.0142 -0.2132
 6231TIP3    H140108   5.643   3.012  13.442  0.0621 -0.3212  0.2433
 6231TIP3    H240109   5.583   2.875  13.415 -0.1576  0.0588 -1.3077
 6232TIP3   OH240110   4.816   1.746  16.793 -0.4998  0.2477  0.2930
 6232TIP3    H140111   4.881   1.720  16.858 -0.8325 -0.5156  0.3309
 6232TIP3    H240112   4.774   1.824  16.830  1.9042  2.1594 -0.7334
 6233TIP3   OH240113   6.033   1.597  14.685  0.2901 -0.3820  0.6407
 6233TIP3    H140114   6.002   1.507  14.677  1.9901 -0.9604 -0.0013
 6233TIP3    H240115   6.071   1.617  14.600  0.4079  0.7685  0.9438
 6234TIP3   OH240116   0.940   5.522   3.787 -0.0769  1.1994  0.0425
 6234TIP3    H140117   0.860   5.476   3.811 -0.2304  1.1995 -0.4506
 6234TIP3    H240118   0.954   5.584   3.858  0.1276  0.4079  0.7083
 6235TIP3   OH240119   0.260   2.087  13.724  0.0071  0.0547  0.2252
 6235TIP3    H140120   0.273   2.010  13.779 -0.9176 -0.1373  0.1868
 6235TIP3    H240121   0.204   2.144  13.776  2.2189  1.5823  1.0697
 6236TIP3   OH240122   2.486   2.866  14.552 -0.2734 -0.6160 -0.2485
 6236TIP3    H140123   2.425   2.918  14.499 -0.5049 -1.1633 -0.5277
 6236TIP3    H240124   2.532   2.930  14.605 -1.4379 -0.2294  0.3241
 6237TIP3   OH240125   6.111   4.117   0.838  0.0939  0.6192 -0.3417
 6237TIP3    H140126   6.112   4.036   0.889 -1.4505  1.4793  1.1765
 6237TIP3    H240127   6.031   4.162   0.866  0.6769  2.4704 -1.4543
 6238TIP3   OH240128   1.212   5.217   5.612 -0.0462 -0.1638 -0.0279
 6238TIP3    H140129   1.218   5.312   5.613  0.9395 -0.2156 -0.1555
 6238TIP3    H240130   1.153   5.196   5.686  0.6465  0.4870  0.7245
 6239TIP3   OH240131   5.666   4.654   4.467  0.3353  0.2685 -0.0642
 6239TIP3    H140132   5.688   4.725   4.528  1.1350  1.8190 -2.0359
 6239TIP3    H240133   5.604   4.599   4.515  0.1667  1.9439  1.7660
 6240TIP3   OH240134   6.155   5.968   1.328 -0.0269  0.5968 -0.1361
 6240TIP3    H140135   6.197   6.023   1.262  0.6898  0.2908  0.0618
 6240TIP3    H240136   6.180   5.879   1.306  1.9232  0.6124  1.6886
 6241TIP3   OH240137   3.645   5.680  14.458  0.3323  0.5773 -0.0846
 6241TIP3    H140138   3.693   5.609  14.500 -0.0331 -0.5434 -1.4824
 6241TIP3    H240139   3.556   5.672  14.492  0.6618  1.4322  1.0214
 6242TIP3   OH240140   3.541   3.075  12.883  0.0202  0.1483  0.0915
 6242TIP3    H140141   3.597   3.027  12.944 -2.0998 -1.6545  0.7605
 6242TIP3    H240142   3.570   3.046  12.796  0.4095 -0.4134  0.4025
 6243TIP3   OH240143   4.447   6.448   1.922 -0.2039  0.1160  0.1120
 6243TIP3    H140144   4.503   6.464   1.846 -1.5983 -1.7047 -1.4184
 6243TIP3    H240145   4.497   6.388   1.977 -0.5656 -1.5291 -1.2580
 6244TIP3   OH240146   3.936   5.244   5.333 -0.1053  0.4721 -0.1197
 6244TIP3    H140147   3.865   5.210   5.279 -0.4777  0.7575  0.1929
 6244TIP3    H240148   3.897   5.259   5.418 -0.7974  4.6600 -0.9727
 6245TIP3   OH240149   3.512   0.199  15.873 -0.1113  0.0090  0.5157
 6245TIP3    H140150   3.486   0.246  15.793 -0.5369 -0.7991  0.1668
 6245TIP3    H240151   3.607   0.198  15.870 -0.0904  1.0243  0.6306
 6246TIP3   OH240152   2.168   5.655  15.620  0.5693  0.7451  0.1003
 6246TIP3    H140153   2.236   5.642  15.685  1.4495  0.8694 -0.7808
 6246TIP3    H240154   2.162   5.571  15.574  0.5571  0.9293 -0.2347
 6247TIP3   OH240155   0.008   2.169   2.788 -0.9748  0.4763  0.1775
 6247TIP3    H140156   0.052   2.253   2.774  2.9915 -1.1759  1.2913
 6247TIP3    H240157   0.022   2.121   2.706  2.4647 -1.1691  1.5058
 6248TIP3   OH240158   6.135   1.631  12.100  0.3201 -0.2666  0.8616
 6248TIP3    H140159   6.136   1.726  12.109 -0.0595 -0.3675  2.1376
 6248TIP3    H240160   6.049   1.612  12.062  1.0493 -0.0061 -1.0498
 6249TIP3   OH240161   0.508   4.356  11.615 -0.3419  0.1297 -0.0674
 6249TIP3    H140162   0.431   4.317  11.655  1.3714 -1.2151  2.1992
 6249TIP3    H240163   0.566   4.376  11.689  2.3564 -0.9364 -1.7093
 6250TIP3   OH240164   1.253   5.000   2.824 -0.0127  0.3608 -0.4150
 6250TIP3    H140165   1.241   5.094   2.833 -0.1136  0.1461  2.6578
 6250TIP3    H240166   1.330   4.980   2.878  0.7088 -1.2156 -1.9079
 6251TIP3   OH240167   3.200   1.134   5.855 -0.0565  0.2971 -0.3450
 6251TIP3    H140168   3.113   1.148   5.817  0.5234  1.3797 -1.3453
 6251TIP3    H240169   3.260   1.149   5.782  1.0959  2.0123  0.8839
 6252TIP3   OH240170   5.420   6.466   1.190 -0.3538  0.7141 -0.2557
 6252TIP3    H140171   5.434   6.376   1.161  2.7612  1.3298 -1.0714
 6252TIP3    H240172   5.433   6.463   1.284 -1.5656  0.1471 -0.0865
 6253TIP3   OH240173   4.296   0.572   5.617  0.3314 -0.0315  0.3524
 6253TIP3    H140174   4.316   0.533   5.702 -1.1670 -2.2895 -0.2315
 6253TIP3    H240175   4.201   0.588   5.620  0.2192 -0.3534 -0.9591
 6254TIP3   OH240176   1.594   4.191  12.823  0.3098  0.2553  0.4842
 6254TIP3    H140177   1.541   4.145  12.887  0.5004  1.9125  1.8974
 6254TIP3    H240178   1.563   4.159  12.738 -1.2211 -0.6291  1.3385
 6255TIP3   OH240179   4.375   4.124  15.653 -0.3172 -0.4261  0.2006
 6255TIP3    H140180   4.432   4.048  15.637 -0.6976 -1.0658  1.6845
 6255TIP3    H240181   4.436   4.196  15.668  0.1043 -0.9080  0.8795
 6256TIP3   OH240182   3.796   5.112   5.101 -0.0503 -0.5473  0.0182
 6256TIP3    H140183   3.756   5.029   5.075 -0.5038 -0.4915  0.5161
 6256TIP3    H240184   3.745   5.178   5.054 -0.9976 -0.4333  1.1480
 6257TIP3   OH240185   1.476   3.772  14.634  0.3139 -0.1853 -0.3039
 6257TIP3    H140186   1.485   3.716  14.556 -0.6125 -0.3611 -0.2985
 6257TIP3    H240187   1.397   3.740  14.678 -0.9328  1.8065 -0.9022
 6258TIP3   OH240188   6.734   3.906  14.511 -0.3723  0.0554  0.5374
 6258TIP3    H140189   6.762   3.822  14.473 -1.3108 -0.8638  1.7946
 6258TIP3    H240190   6.673   3.942  14.446 -0.2236 -0.4038  0.1332
 6259TIP3   OH240191   5.671   3.961   0.001 -0.1688 -0.3349 -0.1529
 6259TIP3    H140192   5.706   3.875  -0.018  0.9450  0.3026 -1.0975
 6259TIP3    H240193   5.730   4.022  -0.044 -0.3344  0.9731  1.3046
 6260TIP3   OH240194   5.906   5.116  15.722 -0.7557 -0.4350 -0.3330
 6260TIP3    H140195   5.979   5.054  15.723  3.6008  4.0460 -0.6434
 6260TIP3    H240196   5.909   5.158  15.808 -0.6478  2.0758 -1.4685
 6261TIP3   OH240197   4.200   2.540  14.794  0.2001  0.1679  0.0928
 6261TIP3    H140198   4.131   2.476  14.810  0.0603  0.3861  0.3683
 6261TIP3    H240199   4.155   2.616  14.757  0.3490  0.1571 -0.1128
 6262TIP3   OH240200   1.012   3.179  14.749  0.5171  0.3934 -1.1479
 6262TIP3    H140201   0.927   3.210  14.779  1.9749  2.5931  1.1386
 6262TIP3    H240202   0.999   3.086  14.731 -2.0269  0.3277  0.5002
 6263TIP3   OH240203   3.891   1.900  13.786  0.1025  0.2381  0.2765
 6263TIP3    H140204   3.813   1.913  13.732 -0.2324 -2.3322  0.0070
 6263TIP3    H240205   3.935   1.825  13.746  1.1690 -0.1804  2.1211
 6264TIP3   OH240206   0.097   4.567   0.431 -0.1734  0.6954  0.2009
 6264TIP3    H140207   0.031   4.634   0.442 -0.5560  0.3190  0.2429
 6264TIP3    H240208   0.136   4.585   0.345 -1.4131  0.0115 -0.5398
 6265TIP3   OH240209   5.907   3.887  15.849  0.4428 -0.5159  0.0202
 6265TIP3    H140210   5.896   3.966  15.902  1.0814  0.4296 -1.2174
 6265TIP3    H240211   6.001   3.882  15.831  0.3516 -1.3112 -0.2953
 6266TIP3   OH240212   6.282   5.318   5.827 -0.2399  0.1674 -0.1708
 6266TIP3    H140213   6.232   5.325   5.745 -0.2368  0.4289 -0.1500
 6266TIP3    H240214   6.286   5.408   5.860 -0.8938 -0.0413  0.5048
 6267TIP3   OH240215   6.354   4.288  17.113 -0.0089  0.1126  0.7647
 6267TIP3    H140216   6.424   4.314  17.054 -1.4543 -0.3732 -1.2810
 6267TIP3    H240217   6.387   4.210  17.157  0.3827 -0.7230 -0.9312
 6268TIP3   OH240218   4.761   6.315  16.959  0.6028  0.3926 -0.2930
 6268TIP3    H140219   4.680   6.268  16.980 -1.3795  2.5432 -2.4186
 6268TIP3    H240220   4.776   6.371  17.035  0.1211 -0.0674  0.1521
 6269TIP3   OH240221   3.165   1.541  16.082 -0.2946  0.4619 -0.3511
 6269TIP3    H140222   3.240   1.596  16.108  0.3952 -0.5489 -0.1513
 6269TIP3    H240223   3.168   1.539  15.987  0.5803 -0.4369 -0.3129
 6270TIP3   OH240224   3.272   6.446  12.678  0.9013  0.3463 -0.3583
 6270TIP3    H140225   3.339   6.442  12.746  0.9792 -1.7166 -0.5161
 6270TIP3    H240226   3.300   6.383  12.612 -2.5687 -2.8472  0.9050
 6271TIP3   OH240227   5.525   2.882   2.962 -0.4369 -0.5371  0.1747
 6271TIP3    H140228   5.560   2.923   3.041  0.3285  0.1067 -0.4847
 6271TIP3    H240229   5.551   2.790   2.969  1.5559 -0.0546 -0.3602
 6272TIP3   OH240230   6.361   3.878   1.626 -0.4505  0.3820 -0.6923
 6272TIP3    H140231   6.277   3.915   1.598 -0.1729  2.7286  1.1911
 6272TIP3    H240232   6.337   3.802   1.678 -1.3320  0.2610 -1.2419
 6273TIP3   OH240233   0.445   1.322   1.410  0.4288  0.4233  0.3362
 6273TIP3    H140234   0.366   1.376   1.422  1.6232  2.2349  0.5561
 6273TIP3    H240235   0.429   1.274   1.329 -1.8005 -0.9680  1.5099
 6274TIP3   OH240236   4.471   4.692   6.614  0.5877 -0.3709  0.4424
 6274TIP3    H140237   4.539   4.694   6.681  1.2971  1.2208 -0.2793
 6274TIP3    H240238   4.507   4.636   6.545  0.9629  0.0543  0.2870
 6275TIP3   OH240239   1.904   1.529  12.531  0.5877 -0.4029 -0.1290
 6275TIP3    H140240   1.916   1.537  12.437 -0.1161 -1.6083 -0.3493
 6275TIP3    H240241   1.931   1.439  12.551 -2.3042 -1.2958  0.2565
 6276TIP3   OH240242   4.239   2.263  11.565  0.1250  0.5463 -0.5325
 6276TIP3    H140243   4.200   2.348  11.585  1.1711  0.4298  2.6617
 6276TIP3    H240244   4.333   2.275  11.581  0.6662 -0.5925 -2.5354
 6277TIP3   OH240245   0.679   1.782  11.595  0.0033  0.6068 -0.2545
 6277TIP3    H140246   0.629   1.735  11.662 -1.6424 -0.2109 -1.9729
 6277TIP3    H240247   0.733   1.843  11.645 -0.5474 -0.5206  1.8579
 6278TIP3   OH240248   6.263   2.179   4.177 -0.4039  0.2153  0.3745
 6278TIP3    H140249   6.307   2.241   4.119  2.9487  1.4991  3.8985
 6278TIP3    H240250   6.316   2.100   4.171  0.1570  0.4596  1.8172
 6279TIP3   OH240251   6.648   5.900   3.863  0.3531 -0.3828 -0.1418
 6279TIP3    H140252   6.715   5.921   3.929  0.5655  0.0601 -0.4861
 6279TIP3    H240253   6.682   5.939   3.783 -0.2740 -0.2429 -0.3442
 6280TIP3   OH240254   4.931   5.660  15.133  0.1867 -0.0449  0.0215
 6280TIP3    H140255   4.895   5.636  15.047 -2.9872  1.4795  0.7695
 6280TIP3    H240256   5.025   5.643  15.125 -0.3790 -2.7452 -2.7430
 6281TIP3   OH240257   3.593   4.172  12.214  0.2172 -0.3418  0.1763
 6281TIP3    H140258   3.675   4.220  12.216 -0.2450  0.5442 -0.8329
 6281TIP3    H240259   3.536   4.225  12.158 -0.2613 -2.1457 -1.1477
 6282TIP3   OH240260   5.250   3.592   2.926  0.1277  0.6608 -1.3579
 6282TIP3    H140261   5.216   3.667   2.976  1.5992 -0.1251  0.9725
 6282TIP3    H240262   5.198   3.517   2.957  1.7450 -0.0098 -0.1491
 6283TIP3   OH240263   3.089   2.951   4.502  0.5959  0.3208 -0.7403
 6283TIP3    H140264   3.088   2.858   4.480 -1.2882 -0.9700  3.7722
 6283TIP3    H240265   3.156   2.959   4.570  1.0159  2.4157 -1.3110
 6284TIP3   OH240266   5.881   0.422  17.056  0.1197  0.1753  0.3428
 6284TIP3    H140267   5.866   0.497  17.000  0.7274 -0.2220 -0.3643
 6284TIP3    H240268   5.939   0.365  17.006  0.5082 -0.2860  1.2885
 6285TIP3   OH240269   1.491   0.177   1.389 -0.5844 -0.1432  0.7008
 6285TIP3    H140270   1.406   0.188   1.345 -1.0987 -1.0858  1.4032
 6285TIP3    H240271   1.488   0.237   1.463  0.1990  1.2963 -0.4095
 6286TIP3   OH240272   5.890   1.613  11.293 -0.5533  0.2253  0.1326
 6286TIP3    H140273   5.885   1.590  11.200 -2.4021 -0.1999  0.3119
 6286TIP3    H240274   5.944   1.544  11.331  3.6365  2.4219 -1.1545
 6287TIP3   OH240275   2.633   5.869  11.068 -0.4811 -0.0410 -0.0030
 6287TIP3    H140276   2.725   5.865  11.042 -0.3336 -0.6593  0.5677
 6287TIP3    H240277   2.633   5.926  11.145 -0.3714 -1.0606  0.7690
 6288TIP3   OH240278   5.032   1.175  12.523  0.2034 -0.1697  0.5787
 6288TIP3    H140279   5.072   1.096  12.560  1.1777 -0.1510 -0.3684
 6288TIP3    H240280   5.096   1.206  12.459 -0.6366  0.7948  0.1782
 6289TIP3   OH240281   2.838   1.794   5.287 -0.1872 -0.9937  0.5968
 6289TIP3    H140282   2.773   1.727   5.267  0.7798 -2.2286  1.4429
 6289TIP3    H240283   2.914   1.770   5.236 -0.1447  0.0654  0.1252
 6290TIP3   OH240284   5.101   3.408  11.681 -0.0046  0.6150 -0.0862
 6290TIP3    H140285   5.157   3.374  11.612 -0.0952  1.9476 -0.8464
 6290TIP3    H240286   5.024   3.441  11.636 -0.4280  0.7749  0.7321
 6291TIP3   OH240287   1.294   1.608   4.664  0.3477  0.6448 -0.3250
 6291TIP3    H140288   1.321   1.673   4.600  1.0546  0.1398 -0.5616
 6291TIP3    H240289   1.322   1.645   4.748  0.7533  0.6523 -0.4583
 6292TIP3   OH240290   1.530   5.463   4.494 -0.1284  0.2499 -0.3437
 6292TIP3    H140291   1.446   5.448   4.537 -0.2503  0.9512 -0.3219
 6292TIP3    H240292   1.589   5.399   4.533 -0.1806  1.0188  1.0606
 6293TIP3   OH240293   4.290   5.483  13.102 -0.2120  0.1137 -0.0754
 6293TIP3    H140294   4.237   5.488  13.022 -0.4237 -0.8991 -0.0057
 6293TIP3    H240295   4.285   5.391  13.129  3.1723 -0.5655 -1.1906
 6294TIP3   OH240296   6.071   5.966  15.046 -0.1191  0.3397  0.3744
 6294TIP3    H140297   5.989   6.010  15.067  0.0307  0.8778 -0.1396
 6294TIP3    H240298   6.045   5.879  15.015 -0.4069 -0.0200  1.5883
 6295TIP3   OH240299   6.276   6.404   2.963 -0.0065 -0.4122 -0.2107
 6295TIP3    H140300   6.186   6.378   2.942  0.1796  0.3859 -2.2474
 6295TIP3    H240301   6.323   6.399   2.880  1.4811  0.5816  0.5155
 6296TIP3   OH240302   0.028   1.955   5.303 -0.0300  0.1620 -0.3252
 6296TIP3    H140303   0.051   2.018   5.372  1.5303 -2.0513  1.3128
 6296TIP3    H240304  -0.048   1.909   5.338 -1.4000  1.2825 -1.6849
 6297TIP3   OH240305   3.489   4.474   1.679 -0.1234 -0.3259 -0.2907
 6297TIP3    H140306   3.458   4.538   1.615 -0.5539  0.9755  1.1664
 6297TIP3    H240307   3.583   4.490   1.685 -0.3188  0.5669  0.4803
 6298TIP3   OH240308   2.151   0.849  14.617 -0.5918 -0.4790  0.2000
 6298TIP3    H140309   2.145   0.887  14.704 -0.3580 -1.6027  0.7164
 6298TIP3    H240310   2.243   0.825  14.607 -1.0795 -2.8886  0.7800
 6299TIP3   OH240311   0.781   3.691   4.190 -0.0226 -0.2708 -0.1276
 6299TIP3    H140312   0.779   3.756   4.260 -1.5763 -0.0493 -0.3325
 6299TIP3    H240313   0.718   3.624   4.217 -0.6992 -0.1469 -1.3302
 6300TIP3   OH240314   3.409   5.207   1.005  0.2801  0.0303  0.6776
 6300TIP3    H140315   3.362   5.123   1.002  4.0469 -2.2689  0.1060
 6300TIP3    H240316   3.406   5.238   0.914 -2.8496  1.7678  1.2227
 6301TIP3   OH240317   1.261   0.372   2.393  0.8117 -0.6323 -0.3369
 6301TIP3    H140318   1.310   0.311   2.337  0.6026  0.9115 -2.3104
 6301TIP3    H240319   1.179   0.387   2.346  0.6592  0.8000  0.3376
 6302TIP3   OH240320   6.754   3.172   3.085 -0.4955 -0.9934  0.2379
 6302TIP3    H140321   6.813   3.097   3.079 -0.0496 -0.5477 -1.1338
 6302TIP3    H240322   6.686   3.154   3.020 -0.2918 -0.1260 -0.2210
 6303TIP3   OH240323   6.005   2.229  15.080  0.2340  0.5159  0.5105
 6303TIP3    H140324   6.035   2.238  14.989  1.6184  0.1080  0.8970
 6303TIP3    H240325   6.084   2.243  15.132 -0.9763  3.1801  1.7937
 6304TIP3   OH240326   0.340   1.772   4.539 -0.5819  0.5521  0.2403
 6304TIP3    H140327   0.373   1.745   4.454  0.6141 -0.0719  0.8677
 6304TIP3    H240328   0.396   1.725   4.602 -2.1347  0.1473  1.3712
 6305TIP3   OH240329   4.662   1.150  11.775 -0.4261  0.1883  0.1929
 6305TIP3    H140330   4.665   1.071  11.830 -0.5626  1.7072  2.4879
 6305TIP3    H240331   4.570   1.161  11.753 -0.3073 -0.7199 -0.8798
 6306TIP3   OH240332   0.058   6.797   3.918  0.2074  0.2989  0.0306
 6306TIP3    H140333   0.065   6.888   3.945  0.2660 -0.0872  1.3892
 6306TIP3    H240334   0.138   6.756   3.950 -0.2866 -0.4490  0.3393
 6307TIP3   OH240335   5.545   3.196  15.427  0.1830  0.1383 -0.0101
 6307TIP3    H140336   5.626   3.158  15.394 -0.6212 -1.2359 -0.5040
 6307TIP3    H240337   5.571   3.241  15.508  1.1747 -1.7367  0.7810
 6308TIP3   OH240338   1.037   5.076  13.288 -0.1707  0.4504  0.1907
 6308TIP3    H140339   1.020   5.082  13.382  2.4554  0.1372  0.7578
 6308TIP3    H240340   1.111   5.135  13.273  0.2155 -0.3972 -1.4665
 6309TIP3   OH240341   0.171   3.554  15.395  0.3609 -0.3774 -0.2537
 6309TIP3    H140342   0.207   3.625  15.448 -1.3511  0.7561 -0.5159
 6309TIP3    H240343   0.246   3.518  15.348  1.2205  1.6707 -0.5800
 6310TIP3   OH240344   0.355   4.942   2.137 -0.6028  0.1118  0.1212
 6310TIP3    H140345   0.295   4.953   2.211  0.6301  1.5402  0.9672
 6310TIP3    H240346   0.362   5.029   2.098  0.6056 -0.1136 -0.2092
 6311TIP3   OH240347   0.089   6.307  11.503 -0.0811 -0.7857 -0.1441
 6311TIP3    H140348   0.061   6.365  11.573  0.1461 -0.5550 -0.2423
 6311TIP3    H240349   0.087   6.219  11.543  1.2633 -0.5400  0.5643
 6312TIP3   OH240350   4.148   4.570  13.243 -0.1941 -0.3548 -0.7601
 6312TIP3    H140351   4.139   4.517  13.163  2.8070 -0.3463 -1.1941
 6312TIP3    H240352   4.197   4.647  13.215 -0.3896  0.3779  0.8126
 6313TIP3   OH240353   1.819   1.664  12.004 -0.6007 -0.4913  0.3944
 6313TIP3    H140354   1.768   1.705  12.073 -0.6987  1.0393 -0.5334
 6313TIP3    H240355   1.765   1.672  11.925 -0.0411 -1.2125 -0.0802
 6314TIP3   OH240356   5.520   4.758  16.014 -0.1355  0.0748 -0.2214
 6314TIP3    H140357   5.573   4.828  16.053 -0.9138  1.9639 -2.3458
 6314TIP3    H240358   5.430   4.787  16.026 -0.4766 -0.5940 -1.0969
 6315TIP3   OH240359   3.487   4.861  11.173 -0.1079  0.0324 -0.4584
 6315TIP3    H140360   3.474   4.950  11.140  0.3208  0.0881 -0.4857
 6315TIP3    H240361   3.458   4.804  11.101 -1.1379  0.1386 -0.1415
 6316TIP3   OH240362   3.544   5.168   5.792 -0.2753  0.4464  0.1901
 6316TIP3    H140363   3.449   5.154   5.784 -0.1101 -0.1882 -0.7569
 6316TIP3    H240364   3.555   5.262   5.781 -0.8612  0.6425  1.0905
 6317TIP3   OH240365   2.364   6.104   0.563 -0.3623  0.9869 -0.4878
 6317TIP3    H140366   2.320   6.051   0.629  0.2474  0.2396 -0.6705
 6317TIP3    H240367   2.332   6.193   0.578  0.5940  1.0362  1.5543
 6318TIP3   OH240368   1.705   2.965   3.625 -0.0930 -0.4434  0.1872
 6318TIP3    H140369   1.640   2.985   3.692 -0.5987 -1.7345  0.1091
 6318TIP3    H240370   1.752   3.048   3.612 -3.0348  1.1711 -1.2591
 6319TIP3   OH240371   1.962   1.952  16.227 -0.0021 -0.0474 -0.3638
 6319TIP3    H140372   1.931   1.977  16.315  1.0800  0.6316 -0.1604
 6319TIP3    H240373   1.983   1.859  16.235  1.8757  0.4252  0.6541
 6320TIP3   OH240374   0.691   4.489   4.129  0.6999  0.1342 -0.3614
 6320TIP3    H140375   0.680   4.541   4.050 -0.9696  0.0545 -0.2040
 6320TIP3    H240376   0.747   4.417   4.102 -0.3960 -0.2677 -1.6718
 6321TIP3   OH240377   1.219   4.987   0.087 -0.0287 -0.1110  0.3947
 6321TIP3    H140378   1.180   4.925   0.025 -0.3066 -0.2853  0.7363
 6321TIP3    H240379   1.144   5.031   0.127  0.1774  1.7072 -1.0775
 6322TIP3   OH240380   4.376   0.092  13.949  0.3640  0.4079 -0.5901
 6322TIP3    H140381   4.374   0.034  14.025  0.8219 -0.0163 -0.8883
 6322TIP3    H240382   4.349   0.036  13.876 -1.8968  1.2651 -0.4763
 6323TIP3   OH240383   6.558   1.206   2.774 -0.0916 -0.0374 -0.2203
 6323TIP3    H140384   6.575   1.266   2.847  3.9596 -0.8786 -0.2660
 6323TIP3    H240385   6.553   1.264   2.697  1.4044  0.4506  0.0277
 6324TIP3   OH240386   0.767   1.605   4.167 -0.4933 -0.1343  0.1458
 6324TIP3    H140387   0.705   1.654   4.113  0.1474  1.3727  0.7176
 6324TIP3    H240388   0.809   1.672   4.222 -0.4051 -1.4712  1.8031
 6325TIP3   OH240389   5.198   3.120  15.092  0.6568 -0.7009 -0.7442
 6325TIP3    H140390   5.275   3.165  15.128 -0.9507  1.1770  0.5966
 6325TIP3    H240391   5.193   3.038  15.141  0.9207 -0.0933  0.3320
 6326TIP3   OH240392   5.258   5.168  14.766 -0.3707 -0.4234  0.4929
 6326TIP3    H140393   5.261   5.074  14.749  1.3579 -0.4085  0.5821
 6326TIP3    H240394   5.264   5.208  14.679  1.0738 -0.3990  0.5865
 6327TIP3   OH240395   3.694   6.175   6.351  0.2215  0.3467  0.5885
 6327TIP3    H140396   3.758   6.104   6.347 -0.0504 -0.0036  1.9749
 6327TIP3    H240397   3.636   6.159   6.277  0.5263 -0.5236  0.5255
 6328TIP3   OH240398   0.714   5.609  14.824  0.2948 -0.4473  0.0479
 6328TIP3    H140399   0.780   5.567  14.878  2.8392  2.1831 -0.7430
 6328TIP3    H240400   0.664   5.663  14.885 -1.0693 -2.2393  0.6052
 6329TIP3   OH240401   6.337   2.380  13.687 -0.1391 -0.2748 -0.2478
 6329TIP3    H140402   6.371   2.350  13.603  0.2128 -0.5106 -0.0238
 6329TIP3    H240403   6.310   2.470  13.672 -0.7489 -0.5435 -0.7993
 6330TIP3   OH240404   4.399   4.409   2.948 -0.0427  0.3510  0.7429
 6330TIP3    H140405   4.416   4.393   2.855  0.2330  2.4154  0.3904
 6330TIP3    H240406   4.384   4.504   2.954 -0.4158  0.2116  2.7509
 6331TIP3   OH240407   1.792   5.743  16.684 -0.1585  0.1942 -0.0389
 6331TIP3    H140408   1.782   5.769  16.775  0.2694  1.2139 -0.2637
 6331TIP3    H240409   1.712   5.695  16.663  0.3263 -1.2600  1.2449
 6332TIP3   OH240410   5.631   6.476  16.128  0.0870 -0.7925  0.6394
 6332TIP3    H140411   5.547   6.497  16.167 -0.9103 -3.0663 -0.1371
 6332TIP3    H240412   5.684   6.554  16.142 -2.6457  1.3806 -0.3119
 6333TIP3   OH240413   1.947   3.690  10.972  0.2260 -0.5114  0.1617
 6333TIP3    H140414   1.870   3.668  11.025  1.2408  0.1655  2.0278
 6333TIP3    H240415   1.962   3.783  10.989  2.0104 -0.8508  0.6650
 6334TIP3   OH240416   1.443   1.855  12.012 -0.0190 -0.6745 -0.3904
 6334TIP3    H140417   1.374   1.793  11.988  0.4653 -2.9360  3.2071
 6334TIP3    H240418   1.398   1.939  12.020 -0.8890 -0.5565 -4.4853
 6335TIP3   OH240419   4.990   0.878   2.703  0.0335  0.0211 -0.3096
 6335TIP3    H140420   5.044   0.927   2.641  1.4361  1.3000  1.7778
 6335TIP3    H240421   4.900   0.900   2.680  0.3634 -1.1536 -3.0903
 6336TIP3   OH240422   1.921   5.019  12.660  0.1701  0.1785 -0.2932
 6336TIP3    H140423   1.944   5.046  12.571  0.7884 -1.0811 -0.5399
 6336TIP3    H240424   1.893   4.928  12.651  0.5957 -0.0810  0.8494
 6337TIP3   OH240425   2.467   5.753  13.373  0.0343  0.6854 -0.4312
 6337TIP3    H140426   2.479   5.661  13.396  0.0205 -0.0391 -2.9805
 6337TIP3    H240427   2.550   5.795  13.396 -0.2658  0.2820  1.5845
 6338TIP3   OH240428   2.116   3.082   5.455  0.2637  0.4128  0.6109
 6338TIP3    H140429   2.091   3.138   5.529  0.2852  2.5167 -0.8610
 6338TIP3    H240430   2.076   2.998   5.474  0.5570  0.7630  3.1588
 6339TIP3   OH240431   3.086   4.379   5.330  0.3318  0.4438  0.2303
 6339TIP3    H140432   3.093   4.427   5.412  3.3279 -1.0003  0.9399
 6339TIP3    H240433   2.997   4.343   5.331 -0.7368  2.8654  1.3550
 6340TIP3   OH240434   5.437   3.927   5.404  0.5382  0.4764 -0.1505
 6340TIP3    H140435   5.410   3.836   5.399 -0.2440  0.7070 -0.3283
 6340TIP3    H240436   5.357   3.975   5.425  0.7048  1.2410 -1.1284
 6341TIP3   OH240437   1.087   4.796  10.994 -0.6252 -0.1172  0.1413
 6341TIP3    H140438   1.041   4.810  10.911  1.9735 -0.9407 -1.6066
 6341TIP3    H240439   1.165   4.852  10.987  0.8634 -1.9815  0.9051
 6342TIP3   OH240440   1.593   4.832   4.162  0.2136 -0.3844 -0.0673
 6342TIP3    H140441   1.536   4.881   4.220 -1.2225 -1.6819 -0.3079
 6342TIP3    H240442   1.535   4.768   4.120  0.8227  1.3104 -3.9938
 6343TIP3   OH240443   5.459   0.262  14.904 -0.1787 -0.0829 -0.1106
 6343TIP3    H140444   5.487   0.305  14.985  0.3815 -0.8790  0.1310
 6343TIP3    H240445   5.482   0.170  14.916 -1.0109 -0.3937 -0.7742
 6344TIP3   OH240446   2.419   4.238  14.167 -0.0243  0.3505  0.1954
 6344TIP3    H140447   2.487   4.292  14.206 -0.0407  0.7894 -0.3626
 6344TIP3    H240448   2.463   4.193  14.094 -0.0711 -0.2007  0.5034
 6345TIP3   OH240449   3.152   1.089  10.979  0.0546 -0.0858  0.6672
 6345TIP3    H140450   3.203   1.013  11.007  0.5110 -1.2161 -2.7709
 6345TIP3    H240451   3.061   1.058  10.979  0.0543 -0.0876  0.8030
 6346TIP3   OH240452   0.273   2.263   2.630 -0.4096 -0.5291 -0.3606
 6346TIP3    H140453   0.295   2.214   2.710 -0.1570 -0.8002 -0.5954
 6346TIP3    H240454   0.309   2.210   2.559  2.3325  1.2786 -0.4899
 6347TIP3   OH240455   1.694   2.723  12.214 -0.2865 -0.4963  0.3714
 6347TIP3    H140456   1.748   2.759  12.284 -0.1782 -1.2160  0.6703
 6347TIP3    H240457   1.644   2.797  12.181 -1.6185 -0.4386  2.3777
 6348TIP3   OH240458   3.074   1.716  16.714 -0.5707  0.6389  1.0625
 6348TIP3    H140459   3.142   1.754  16.770  0.6169  2.4784 -1.4428
 6348TIP3    H240460   2.992   1.740  16.757  0.2776  0.4726  2.8908
 6349TIP3   OH240461   0.725   5.322   1.290  0.3052 -0.2234  0.0525
 6349TIP3    H140462   0.693   5.410   1.311 -1.7979 -1.4028  2.2100
 6349TIP3    H240463   0.724   5.318   1.195  0.5283  2.0949 -0.0989
 6350TIP3   OH240464   4.299   5.316   2.287 -0.5368  0.2590 -0.6980
 6350TIP3    H140465   4.357   5.359   2.350  0.4921 -0.9093 -0.7855
 6350TIP3    H240466   4.297   5.225   2.316 -2.5145  0.2999 -0.6024
 6351TIP3   OH240467   2.706   2.356  10.859 -0.5101  0.1630  0.1586
 6351TIP3    H140468   2.792   2.336  10.822 -0.8857 -0.3481 -0.4596
 6351TIP3    H240469   2.646   2.353  10.784 -1.3933 -1.4774  0.8760
 6352TIP3   OH240470   0.186   0.826  11.207  0.7982  0.8923  0.3736
 6352TIP3    H140471   0.256   0.824  11.142  0.6149  2.2087  0.1039
 6352TIP3    H240472   0.180   0.736  11.239  0.7389  0.1739 -1.5659
 6353TIP3   OH240473   1.658   3.920   0.442 -0.2770  0.0216 -0.3687
 6353TIP3    H140474   1.692   3.869   0.369 -0.8744 -0.1007 -0.5590
 6353TIP3    H240475   1.668   3.863   0.518 -0.9379 -0.3724 -0.5790
 6354TIP3   OH240476   5.975   2.663   3.448 -0.2402  0.1794 -0.1152
 6354TIP3    H140477   6.046   2.704   3.399 -0.1425  0.2158  0.0593
 6354TIP3    H240478   5.994   2.681   3.540  0.2517 -0.9570  0.0286
 6355TIP3   OH240479   4.989   2.583   3.768 -0.4545 -0.2423  0.0967
 6355TIP3    H140480   5.063   2.541   3.812  0.5981  0.4161 -0.9924
 6355TIP3    H240481   5.000   2.561   3.676 -0.9578  0.8393 -0.2383
 6356TIP3   OH240482   4.335   4.320  10.639 -0.1955  0.1098 -0.1335
 6356TIP3    H140483   4.374   4.398  10.680  0.2963 -0.0132 -0.3656
 6356TIP3    H240484   4.315   4.262  10.712  1.6404 -0.5544 -0.1224
 6357TIP3   OH240485   1.620   2.343   6.257  0.1959 -0.4206  0.3168
 6357TIP3    H140486   1.565   2.265   6.267  0.6874 -0.8574 -0.3780
 6357TIP3    H240487   1.558   2.416   6.259 -0.5262 -0.9558 -1.3778
 6358TIP3   OH240488   1.300   1.567  12.644 -0.3226  0.5682 -0.9436
 6358TIP3    H140489   1.274   1.576  12.736  0.5227  1.6662 -0.7906
 6358TIP3    H240490   1.285   1.474  12.624 -2.2590  0.6785 -0.2573
 6359TIP3   OH240491   4.405   2.359  15.911  0.2319  0.4662  0.1410
 6359TIP3    H140492   4.428   2.451  15.895 -0.1380  0.4354 -0.6350
 6359TIP3    H240493   4.479   2.324  15.960  0.1898  1.2801  0.7968
 6360TIP3   OH240494   3.981   4.988   3.642  0.1545 -0.1053  0.4352
 6360TIP3    H140495   3.995   4.995   3.548 -1.4569 -1.4548  0.0329
 6360TIP3    H240496   3.907   5.047   3.660 -0.4554 -0.8913  0.5755
 6361TIP3   OH240497   5.539   3.160   2.874  0.5273  0.1087  0.2007
 6361TIP3    H140498   5.584   3.209   2.942  0.3374  1.9733 -0.9510
 6361TIP3    H240499   5.543   3.069   2.903  3.7139  0.3588  0.8732
 6362TIP3   OH240500   6.122   5.925  16.211  0.1166  0.2026 -0.3850
 6362TIP3    H140501   6.201   5.966  16.175  0.0057 -0.2493 -1.1626
 6362TIP3    H240502   6.050   5.970  16.167 -0.1354  1.4062  1.1487
 6363TIP3   OH240503   5.732   4.840   2.997  0.8475 -0.3082 -0.1607
 6363TIP3    H140504   5.755   4.749   2.978  0.1257 -0.5223 -0.0471
 6363TIP3    H240505   5.757   4.853   3.088 -0.5217 -0.9015  0.3286
 6364TIP3   OH240506   2.839   1.117   4.003 -0.0440 -0.5741  0.0131
 6364TIP3    H140507   2.835   1.089   3.912  0.2347 -1.1736  0.1832
 6364TIP3    H240508   2.789   1.199   4.005  0.7973 -0.0132 -0.8774
 6365TIP3   OH240509   1.364   3.655  11.741 -0.4133  0.0738 -0.1035
 6365TIP3    H140510   1.420   3.580  11.763 -2.2570 -0.5597  3.0085
 6365TIP3    H240511   1.299   3.619  11.680  0.8198  0.1265 -1.5031
 6366TIP3   OH240512   2.684   3.932  13.823 -0.1264 -0.0040 -0.4530
 6366TIP3    H140513   2.671   3.968  13.735  0.4185  1.8940  0.2008
 6366TIP3    H240514   2.689   3.837  13.810  0.0317  0.2497 -2.4699
 6367TIP3   OH240515   5.399   4.003  13.898 -0.1319  0.1920 -0.3335
 6367TIP3    H140516   5.363   4.079  13.943  0.3063  0.6174 -0.6832
 6367TIP3    H240517   5.409   4.032  13.807 -0.8823 -0.6082 -0.6834
 6368TIP3   OH240518   3.107   6.107   3.421 -0.3904 -0.3444 -0.1958
 6368TIP3    H140519   3.171   6.178   3.428  1.9667 -2.3757  0.3927
 6368TIP3    H240520   3.086   6.085   3.512  0.0609 -1.3489 -0.3224
 6369TIP3   OH240521   6.364   0.134  11.548  0.2663 -0.7059  0.1577
 6369TIP3    H140522   6.443   0.110  11.500  0.8304 -0.8764  1.1386
 6369TIP3    H240523   6.380   0.225  11.575 -0.8269  0.0312 -1.4848
 6370TIP3   OH240524   6.407   1.004  16.967 -0.5056 -0.5229  0.5730
 6370TIP3    H140525   6.365   1.033  17.048 -0.0491 -0.7260  0.8851
 6370TIP3    H240526   6.362   0.923  16.944 -1.6636  0.3091 -0.2077
 6371TIP3   OH240527   3.436   4.063  12.776 -0.2904  0.1411 -0.0868
 6371TIP3    H140528   3.471   4.077  12.864  0.4854  1.6886 -0.6091
 6371TIP3    H240529   3.352   4.111  12.777 -1.1274 -1.2725  0.3093
 6372TIP3   OH240530   5.883   2.132   0.800  0.3978  0.1219  0.1620
 6372TIP3    H140531   5.880   2.208   0.858 -0.5562  0.3205 -0.1224
 6372TIP3    H240532   5.863   2.058   0.857  1.8647 -0.0059  0.5487
 6373TIP3   OH240533   1.630   2.290   4.356 -0.0986 -0.0491  0.1630
 6373TIP3    H140534   1.576   2.237   4.416 -0.4954  1.6390  1.3561
 6373TIP3    H240535   1.568   2.322   4.290  0.0710 -0.6785 -0.3234
 6374TIP3   OH240536   0.459   4.264   4.594 -0.2009 -0.5255 -0.0015
 6374TIP3    H140537   0.392   4.200   4.568  0.6925 -1.4598 -0.0787
 6374TIP3    H240538   0.542   4.218   4.580  0.4582  0.6264  0.0627
 6375TIP3   OH240539   4.414   4.005  14.409 -0.5004  0.5778 -0.3042
 6375TIP3    H140540   4.430   3.996  14.502 -0.1865  2.5563 -0.1303
 6375TIP3    H240541   4.498   4.032  14.372 -0.5293 -0.4985 -1.2406
 6376TIP3   OH240542   3.263   6.521  15.196  0.1178  0.0182 -0.3322
 6376TIP3    H140543   3.234   6.612  15.205  0.3796 -0.0890  2.5141
 6376TIP3    H240544   3.353   6.528  15.163 -0.4866  0.6568 -1.9511
 6377TIP3   OH240545   1.314   5.953   3.142  0.0499  0.0802  0.0457
 6377TIP3    H140546   1.275   5.890   3.082  1.2800 -1.2162  0.5456
 6377TIP3    H240547   1.396   5.912   3.170 -0.7544  0.2717  3.1157
 6378TIP3   OH240548   5.954   6.054  14.775  0.2455 -0.7618 -0.0939
 6378TIP3    H140549   5.982   6.125  14.718  1.2416 -2.1691 -1.4521
 6378TIP3    H240550   5.951   6.093  14.863  1.8498  0.6755 -0.6111
 6379TIP3   OH240551   4.526   4.337   2.671 -0.4676 -0.6459  0.0223
 6379TIP3    H140552   4.480   4.403   2.619  2.2617  0.1622 -1.5414
 6379TIP3    H240553   4.512   4.255   2.624 -1.2521 -0.6374  0.2255
 6380TIP3   OH240554   6.349   5.062  16.101  0.0369 -0.8840  0.2624
 6380TIP3    H140555   6.434   5.021  16.086  1.1815  0.7763  1.8070
 6380TIP3    H240556   6.328   5.042  16.192 -1.2294 -1.2499 -0.0950
 6381TIP3   OH240557   3.666   3.766   3.910 -0.1894  0.1610  0.8285
 6381TIP3    H140558   3.740   3.822   3.934  1.3190 -1.0668 -0.7205
 6381TIP3    H240559   3.685   3.682   3.951  1.3266 -1.3182 -2.5564
 6382TIP3   OH240560   5.955   3.517  12.951  0.4643  0.2404  0.5864
 6382TIP3    H140561   5.986   3.501  12.862  0.7217  1.1459  0.5018
 6382TIP3    H240562   5.955   3.431  12.993  0.0176 -0.2409 -0.3880
 6383TIP3   OH240563   2.562   2.696   2.127 -0.9381 -0.2093  1.2584
 6383TIP3    H140564   2.560   2.778   2.178 -2.5231  0.2574  0.5181
 6383TIP3    H240565   2.472   2.665   2.129 -1.0861 -0.1439 -1.2657
 6384TIP3   OH240566   1.397   4.861  11.771  0.0544  0.0300  0.8793
 6384TIP3    H140567   1.456   4.829  11.840  0.7975 -0.4295  0.0505
 6384TIP3    H240568   1.309   4.855  11.810  0.4514 -0.2770  1.7585
 6385TIP3   OH240569   0.852   5.335  10.931  0.3308  0.2369  0.2814
 6385TIP3    H140570   0.864   5.369  11.020  0.6414 -0.3339  0.4625
 6385TIP3    H240571   0.867   5.241  10.939 -0.8461 -0.0060 -0.1568
 6386TIP3   OH240572   0.256   3.009  15.637  0.8091 -0.1868 -0.4202
 6386TIP3    H140573   0.176   3.018  15.586 -0.2336  0.1919  1.2160
 6386TIP3    H240574   0.306   2.942  15.591 -0.5897 -0.6744 -1.3027
 6387TIP3   OH240575   6.510   3.149   5.319 -0.3595  0.3196 -0.3659
 6387TIP3    H140576   6.470   3.219   5.370 -0.2439 -0.2889  0.5703
 6387TIP3    H240577   6.601   3.146   5.349 -0.4941 -0.5703 -0.0121
 6388TIP3   OH240578   3.964   4.568   2.490  0.0487  0.5194 -0.3554
 6388TIP3    H140579   3.950   4.606   2.576 -1.5618 -0.4757 -0.1345
 6388TIP3    H240580   4.009   4.485   2.508 -2.3312 -0.8176 -0.1998
 6389TIP3   OH240581   6.391   4.110   1.799 -0.5956 -0.8339 -0.0257
 6389TIP3    H140582   6.412   4.047   1.868 -0.5997 -0.9778 -0.1567
 6389TIP3    H240583   6.387   4.058   1.719 -2.1247 -0.9461  0.0794
 6390TIP3   OH240584   2.153   2.238  15.688 -0.3669 -0.0506  0.2716
 6390TIP3    H140585   2.220   2.301  15.715  0.6706 -1.5323  1.2593
 6390TIP3    H240586   2.126   2.196  15.769  0.4277 -2.2852 -0.5531
 6391TIP3   OH240587   6.264   0.039   1.476  0.0885 -0.3810 -0.1499
 6391TIP3    H140588   6.198   0.107   1.465  0.9730  0.5918  0.3764
 6391TIP3    H240589   6.340   0.085   1.512  0.9684 -1.5173 -0.4985
 6392TIP3   OH240590   6.672   3.790  15.154 -0.2644 -0.3609  0.3232
 6392TIP3    H140591   6.597   3.772  15.098 -0.7213 -0.5341  0.9772
 6392TIP3    H240592   6.635   3.835  15.230  0.1552 -1.2916  1.1025
 6393TIP3   OH240593   1.353   5.077   0.474  0.3135 -0.2612  0.0476
 6393TIP3    H140594   1.350   5.034   0.559 -1.2105 -0.7831 -0.2358
 6393TIP3    H240595   1.349   5.171   0.494  1.3171 -0.3175  0.5793
 6394TIP3   OH240596   1.935   4.313  16.834  0.1346 -0.9240 -0.0131
 6394TIP3    H140597   1.904   4.369  16.763  2.1361 -0.2071 -0.3924
 6394TIP3    H240598   1.900   4.227  16.813 -0.8451 -0.3462 -0.8569
 6395TIP3   OH240599   0.394   4.918   1.379 -0.0274 -0.0652  0.1944
 6395TIP3    H140600   0.398   4.989   1.443 -0.2292 -0.1630  0.3157
 6395TIP3    H240601   0.485   4.908   1.349 -0.1491  0.9639 -0.6178
 6396TIP3   OH240602   2.806   3.247  11.313 -0.8346  0.0814 -0.3976
 6396TIP3    H140603   2.715   3.277  11.305 -0.8572 -0.2398 -1.6230
 6396TIP3    H240604   2.853   3.298  11.247 -0.0384  0.5513  0.5243
 6397TIP3   OH240605   4.408   2.205  12.673  0.1705 -0.4208  0.6256
 6397TIP3    H140606   4.328   2.241  12.636  0.4524 -0.1279  0.2908
 6397TIP3    H240607   4.467   2.194  12.598  1.7127  2.6354  1.2158
 6398TIP3   OH240608   2.540   2.230  11.980 -0.4546  0.0930  0.0323
 6398TIP3    H140609   2.471   2.294  11.999 -2.0536 -1.4240 -0.3492
 6398TIP3    H240610   2.511   2.187  11.899  1.4636  0.0667 -0.6890
 6399TIP3   OH240611   4.539   4.333  12.530 -0.0514  0.4072 -0.1646
 6399TIP3    H140612   4.599   4.404  12.553 -0.4319  0.5483  0.4002
 6399TIP3    H240613   4.597   4.258  12.513  0.2254 -0.2788  3.1941
 6400TIP3   OH240614   6.195   2.832  15.677  0.1203  0.2499 -0.6441
 6400TIP3    H140615   6.252   2.816  15.601  0.1130  0.6975 -0.7480
 6400TIP3    H240616   6.125   2.887  15.643 -1.4993 -1.9069 -0.9933
 6401TIP3   OH240617   2.995   1.419  14.819 -0.5822 -0.4336 -0.2678
 6401TIP3    H140618   2.950   1.367  14.753  0.1858 -0.3496 -0.8657
 6401TIP3    H240619   2.924   1.459  14.870 -1.1852 -1.8348  0.0324
 6402TIP3   OH240620   1.834   3.372   0.263  0.9649  0.5800 -0.3619
 6402TIP3    H140621   1.835   3.448   0.205 -0.1205 -1.0228 -2.6413
 6402TIP3    H240622   1.865   3.300   0.208 -2.1514 -1.4586  0.3107
 6403TIP3   OH240623   1.781   5.569   5.478 -0.0055 -0.1318 -0.8266
 6403TIP3    H140624   1.784   5.527   5.563  1.4959  2.2180  0.3956
 6403TIP3    H240625   1.856   5.535   5.430  0.4885  0.2315 -0.3176
 6404TIP3   OH240626   2.530   0.934  11.957  0.2165 -0.4040 -0.3898
 6404TIP3    H140627   2.588   0.859  11.961  0.0084 -0.5272  0.4476
 6404TIP3    H240628   2.585   1.005  11.925  0.3625 -0.9511 -1.3857
 6405TIP3   OH240629   4.943   2.749  13.743 -0.3253 -0.0119 -0.3530
 6405TIP3    H140630   4.863   2.759  13.690  0.0580  0.3767 -0.8649
 6405TIP3    H240631   4.966   2.839  13.768  1.4396  0.1789 -2.4375
 6406TIP3   OH240632   5.302   4.618   2.764 -0.3077  0.1753 -0.3663
 6406TIP3    H140633   5.255   4.694   2.798 -0.5531 -0.5869  1.1103
 6406TIP3    H240634   5.250   4.588   2.690 -2.1382 -0.5343  1.1170
 6407TIP3   OH240635   1.137   2.060   0.891  0.1058 -0.0185  0.0648
 6407TIP3    H140636   1.178   2.134   0.846  0.5299 -0.8093 -0.9018
 6407TIP3    H240637   1.048   2.089   0.909  0.6143  1.1619  0.7864
 6408TIP3   OH240638   2.438   4.527  15.329 -0.3678  0.1865  0.1570
 6408TIP3    H140639   2.404   4.521  15.419 -1.0569 -0.9898 -0.1528
 6408TIP3    H240640   2.464   4.437  15.308  1.5848  0.7987 -0.1624
 6409TIP3   OH240641   6.288   0.177   5.307 -0.3023  0.1017  0.2411
 6409TIP3    H140642   6.337   0.255   5.335 -2.2535  1.1635  0.9277
 6409TIP3    H240643   6.302   0.113   5.377  1.0131 -0.0491 -0.1439
 6410TIP3   OH240644   0.027   6.539   4.828 -0.4294  0.0462 -0.2047
 6410TIP3    H140645   0.106   6.567   4.875 -1.1960 -0.0357  1.1652
 6410TIP3    H240646   0.049   6.553   4.736  2.1245 -2.3124 -0.0770
 6411TIP3   OH240647   3.221   5.560  11.092 -0.4388  0.0490  0.3527
 6411TIP3    H140648   3.162   5.491  11.062 -0.6753  0.3284  0.1679
 6411TIP3    H240649   3.266   5.522  11.167 -2.0947  0.4121  1.5749
 6412TIP3   OH240650   6.464   5.945  12.545  0.1130 -0.0543 -0.6604
 6412TIP3    H140651   6.505   5.954  12.631 -0.5350 -0.5841 -0.2870
 6412TIP3    H240652   6.385   5.999  12.550  1.0207  1.4617 -1.5840
 6413TIP3   OH240653   3.053   0.486  11.735  0.5181  0.1016  0.0066
 6413TIP3    H140654   3.059   0.544  11.659  1.3050  0.7818  0.5683
 6413TIP3    H240655   3.110   0.412  11.714 -0.6857 -0.6143 -0.8212
 6414TIP3   OH240656   0.777   6.061  13.877  0.1908 -0.4730  0.7901
 6414TIP3    H140657   0.784   6.033  13.968 -1.3241  0.6712  1.3049
 6414TIP3    H240658   0.694   6.110  13.873  0.1612 -0.5927 -1.2291
 6415TIP3   OH240659   0.489   1.988   5.216 -0.0444  0.4756  0.0680
 6415TIP3    H140660   0.412   1.937   5.244 -0.8999  1.4702 -0.3868
 6415TIP3    H240661   0.496   1.971   5.122  0.1148  0.6263  0.0528
 6416TIP3   OH240662   1.422   0.354  16.799 -0.7253  0.6091  0.7447
 6416TIP3    H140663   1.469   0.381  16.878  0.2015 -0.7534  0.6920
 6416TIP3    H240664   1.330   0.353  16.825 -0.7438  2.9518  0.9627
 6417TIP3   OH240665   3.064   1.982   4.500 -0.7285  0.3090  0.1629
 6417TIP3    H140666   2.989   1.923   4.507  0.3359 -1.1220 -0.1566
 6417TIP3    H240667   3.119   1.944   4.432  0.3853  1.2227  0.5177
 6418TIP3   OH240668   4.507   4.284  16.670  0.3363 -0.2222  0.2832
 6418TIP3    H140669   4.479   4.197  16.701 -0.4387  0.4128  1.4491
 6418TIP3    H240670   4.470   4.291  16.582 -2.4482  0.1526  1.3647
 6419TIP3   OH240671   4.961   1.111  13.510 -0.0629 -0.3400  0.0941
 6419TIP3    H140672   5.002   1.197  13.519  0.5271 -0.6313  0.2375
 6419TIP3    H240673   4.893   1.124  13.443  0.8172 -0.0392 -0.7651
 6420TIP3   OH240674   3.771   6.739   0.449  0.3088  0.2564  0.0431
 6420TIP3    H140675   3.765   6.817   0.504  0.7657  0.7873 -0.6397
 6420TIP3    H240676   3.817   6.768   0.370 -1.9746 -0.0262 -1.4756
 6421TIP3   OH240677   0.007   0.668  15.481 -0.4376 -0.1968 -0.0810
 6421TIP3    H140678  -0.046   0.651  15.404 -0.4750  0.4155 -0.1916
 6421TIP3    H240679   0.097   0.651  15.453 -0.2154  2.0033 -0.8790
 6422TIP3   OH240680   4.289   1.253   4.873 -0.3820 -0.2431  0.6979
 6422TIP3    H140681   4.333   1.320   4.820 -1.0450 -1.3571 -1.3265
 6422TIP3    H240682   4.198   1.281   4.876 -0.7250 -1.1611 -0.4174
 6423TIP3   OH240683   4.633   0.299  11.842  0.2472  0.3552 -0.2426
 6423TIP3    H140684   4.703   0.235  11.859  0.8332  0.6019 -1.6295
 6423TIP3    H240685   4.668   0.355  11.773 -1.2328  0.6519 -0.7760
 6424TIP3   OH240686   3.095   2.772  13.268  0.1874 -0.4096  0.2431
 6424TIP3    H140687   3.186   2.778  13.239  0.1374 -0.8035 -0.0021
 6424TIP3    H240688   3.054   2.850  13.230  0.5392  0.0727  0.8204
 6425TIP3   OH240689   1.497   6.011   2.324  0.0646 -0.3602 -0.4541
 6425TIP3    H140690   1.479   5.945   2.257  1.1889 -1.1636 -0.0009
 6425TIP3    H240691   1.570   6.062   2.288  0.7681 -0.8871  0.1814
 6426TIP3   OH240692   2.693   1.815   3.951 -0.3703 -0.3754 -0.5397
 6426TIP3    H140693   2.622   1.762   3.916  0.6694 -0.5176 -2.5555
 6426TIP3    H240694   2.726   1.765   4.026 -1.4424 -1.0095 -0.4765
 6427TIP3   OH240695   2.014   5.526  15.325 -0.6265 -0.1791 -0.4629
 6427TIP3    H140696   2.108   5.534  15.339 -0.6211  1.7971 -1.2293
 6427TIP3    H240697   2.005   5.462  15.255  0.2507  0.6091 -1.3159
 6428TIP3   OH240698   1.305   6.323   6.768  0.9428  0.4833 -0.2513
 6428TIP3    H140699   1.358   6.244   6.772  0.3359  0.1091  0.7618
 6428TIP3    H240700   1.217   6.292   6.747  0.7531  0.9165 -0.1117
 6429TIP3   OH240701   4.874   3.797   5.846  0.0616 -0.2484 -0.1879
 6429TIP3    H140702   4.858   3.771   5.936  2.0456 -1.5360 -0.1454
 6429TIP3    H240703   4.910   3.719   5.804  3.7325  1.5605 -0.7937
 6430TIP3   OH240704   5.282   4.732  15.470  0.1577 -0.5199  0.2249
 6430TIP3    H140705   5.254   4.748  15.379  0.0587 -0.3381  0.2861
 6430TIP3    H240706   5.321   4.815  15.498 -0.3085 -0.4009  0.5279
 6431TIP3   OH240707   6.274   0.014   4.550 -0.0428 -0.5191  0.5251
 6431TIP3    H140708   6.326   0.086   4.513  0.4750 -0.2666  1.6963
 6431TIP3    H240709   6.302  -0.063   4.501  0.7441 -0.2233  0.4978
 6432TIP3   OH240710   5.900   4.925   1.926  0.7088 -0.3764 -0.2881
 6432TIP3    H140711   5.872   4.840   1.890  0.2405 -0.1186 -0.5413
 6432TIP3    H240712   5.881   4.918   2.020 -1.4734  0.2486 -0.6175
 6433TIP3   OH240713   2.962   2.458   2.542 -0.0876  0.1747 -0.2515
 6433TIP3    H140714   2.991   2.366   2.535  0.7819  0.3587  0.6358
 6433TIP3    H240715   2.930   2.466   2.631  0.8690  1.0010  0.0398
 6434TIP3   OH240716   0.890   0.408   2.157  0.1441  0.4858  0.4979
 6434TIP3    H140717   0.862   0.361   2.235 -2.6484 -0.1735 -0.7683
 6434TIP3    H240718   0.973   0.367   2.133  0.4164 -0.1615  2.3692
 6435TIP3   OH240719   1.774   5.891  15.707 -1.0824  0.1303 -0.0507
 6435TIP3    H140720   1.729   5.808  15.687  0.7288 -1.3130  1.5265
 6435TIP3    H240721   1.841   5.898  15.639 -1.6434  0.6808 -0.5641
 6436TIP3   OH240722   5.818   0.702  14.666 -0.0286 -0.6636  0.0303
 6436TIP3    H140723   5.730   0.698  14.630 -0.6152 -0.8322  1.4196
 6436TIP3    H240724   5.863   0.769  14.614 -0.2809 -2.0462 -2.1067
 6437TIP3   OH240725   0.995   2.573  11.766  0.1955 -0.2765  0.2345
 6437TIP3    H140726   0.932   2.544  11.701  1.2873 -1.6149 -0.2664
 6437TIP3    H240727   1.080   2.559  11.725  0.8548  1.1986  1.0051
 6438TIP3   OH240728   1.456   1.753  11.533  0.8176  0.3572  0.5068
 6438TIP3    H140729   1.483   1.731  11.444  0.3076  0.5553  0.2937
 6438TIP3    H240730   1.503   1.834  11.554  2.2475 -0.5928  1.0708
 6439TIP3   OH240731   0.381   1.018  10.987  0.0260 -0.6201  0.5080
 6439TIP3    H140732   0.335   1.086  11.037 -0.6393 -3.4298  4.2420
 6439TIP3    H240733   0.463   1.006  11.034  0.9130 -1.2406 -1.1348
 6440TIP3   OH240734   0.904   1.016   4.585 -0.2552  0.1151 -0.3338
 6440TIP3    H140735   0.931   1.023   4.494 -0.6410  1.1787 -0.3855
 6440TIP3    H240736   0.896   0.922   4.601 -0.1125 -0.0845 -1.3700
 6441TIP3   OH240737   1.530   4.974  16.426 -0.2573  0.0648 -0.3647
 6441TIP3    H140738   1.508   4.976  16.519 -0.0175  2.0344 -0.2942
 6441TIP3    H240739   1.618   4.937  16.423 -0.3458 -0.1994  0.1619
 6442TIP3   OH240740   2.453   1.802  15.390  0.5228  0.4468 -0.1619
 6442TIP3    H140741   2.405   1.743  15.449  0.9041  0.2135 -0.0822
 6442TIP3    H240742   2.410   1.791  15.305 -0.4582  1.2846  0.2115
 6443TIP3   OH240743   5.946   2.782   4.867  0.3370 -0.2185 -0.0951
 6443TIP3    H140744   5.957   2.855   4.805  0.5768 -0.4010 -0.2702
 6443TIP3    H240745   5.965   2.821   4.953  2.1754 -0.4495 -0.3554
 6444TIP3   OH240746   0.741   0.001  11.939  0.1091  0.0092 -0.1305
 6444TIP3    H140747   0.757   0.086  11.899  1.9317  0.9516  2.3135
 6444TIP3    H240748   0.727   0.021  12.032 -0.8167 -2.2592  0.2794
 6445TIP3   OH240749   0.050   0.959  16.695 -0.7371 -0.0071  0.7352
 6445TIP3    H140750   0.065   1.046  16.658  0.1112 -1.0647 -1.6691
 6445TIP3    H240751   0.104   0.957  16.774  0.1060  1.2982  0.2327
 6446TIP3   OH240752   4.300   3.668  14.669  0.3049 -0.5368 -0.6889
 6446TIP3    H140753   4.292   3.661  14.764  0.2111  0.3201 -0.6230
 6446TIP3    H240754   4.265   3.755  14.649 -0.9125 -1.2090 -1.6483
 6447TIP3   OH240755   5.102   2.117  12.512  0.0037  0.2712  0.3825
 6447TIP3    H140756   5.073   2.132  12.602 -0.0983  0.2746  0.3485
 6447TIP3    H240757   5.173   2.180  12.499 -0.7423  1.0610  0.0747
 6448TIP3   OH240758   2.526   1.311   2.575  0.4735 -0.1237  0.0580
 6448TIP3    H140759   2.525   1.407   2.577  0.1801 -0.0791 -1.4741
 6448TIP3    H240760   2.537   1.289   2.483  1.6780 -1.5809  0.5187
 6449TIP3   OH240761   6.064   3.848  12.906 -0.1705 -0.4224  0.2818
 6449TIP3    H140762   6.012   3.768  12.893 -1.2212  0.0020  1.6950
 6449TIP3    H240763   6.014   3.917  12.863  0.1519 -0.3170  0.0714
 6450TIP3   OH240764   3.690   3.592  13.186  0.1747 -0.0870  0.1755
 6450TIP3    H140765   3.630   3.547  13.127  0.3361  0.1874 -0.2060
 6450TIP3    H240766   3.658   3.572  13.274 -0.3296 -0.1419 -0.0183
 6451TIP3   OH240767   2.988   3.105  13.777 -0.0877 -0.5164  0.5406
 6451TIP3    H140768   2.945   3.021  13.793 -0.0613 -0.8447 -1.0058
 6451TIP3    H240769   3.019   3.100  13.687  1.3732  0.5225  0.9481
 6452TIP3   OH240770   6.453   3.917   2.382 -0.1383 -0.8364  0.2759
 6452TIP3    H140771   6.472   4.010   2.397  1.1517 -1.0624  0.2148
 6452TIP3    H240772   6.522   3.871   2.430  0.3528 -1.7069 -1.2075
 6453TIP3   OH240773   2.715   5.579  10.985 -0.1368  0.3181  0.1379
 6453TIP3    H140774   2.716   5.568  11.080  3.3802 -2.6289  0.0158
 6453TIP3    H240775   2.788   5.638  10.967 -0.2639  0.2085 -0.7669
 6454TIP3   OH240776   1.385   0.129  16.614  0.3032 -0.5719 -0.3149
 6454TIP3    H140777   1.404   0.219  16.643  2.3401 -0.7682 -0.9203
 6454TIP3    H240778   1.412   0.074  16.688  2.1784 -0.8500 -1.1479
 6455TIP3   OH240779   4.347   5.169   3.317  0.3122 -0.1535  0.6193
 6455TIP3    H140780   4.407   5.242   3.302  0.7656  0.0203  2.8848
 6455TIP3    H240781   4.260   5.210   3.320  0.5227  0.2480  1.4715
 6456TIP3   OH240782   5.187   1.075  16.835  0.7360  0.1567  0.0094
 6456TIP3    H140783   5.176   1.162  16.796  0.1772  0.4421  0.7941
 6456TIP3    H240784   5.195   1.092  16.929 -1.3415 -0.7655  0.4072
 6457TIP3   OH240785   1.085   5.840   6.300 -0.1080  0.0827  0.6413
 6457TIP3    H140786   1.075   5.748   6.324 -0.4336 -0.0190  0.1445
 6457TIP3    H240787   1.167   5.844   6.252 -0.6450 -0.1748 -0.3381
 6458TIP3   OH240788   6.242   0.718  12.341  0.1415  0.5855  0.0429
 6458TIP3    H140789   6.178   0.678  12.282 -0.0166  0.0692  0.5524
 6458TIP3    H240790   6.224   0.812  12.335  0.0809  0.5365 -0.6688
 6459TIP3   OH240791   6.478   0.722  13.201 -0.5291  0.2491  0.7988
 6459TIP3    H140792   6.471   0.693  13.292 -0.5605 -3.6109 -0.2420
 6459TIP3    H240793   6.455   0.644  13.150  0.1136  2.0809 -2.5407
 6460TIP3   OH240794   1.190   6.333   0.009 -0.2554  0.0085  0.0231
 6460TIP3    H140795   1.161   6.379   0.088 -1.2402 -2.7139  1.4061
 6460TIP3    H240796   1.108   6.300  -0.029  0.4555 -1.7352 -0.0714
 6461TIP3   OH240797   5.622   1.616  12.069 -0.3600 -0.0971  0.1014
 6461TIP3    H140798   5.542   1.564  12.061  0.5269 -1.7397  1.4358
 6461TIP3    H240799   5.600   1.685  12.132 -0.9277 -0.0832 -0.1047
 6462TIP3   OH240800   3.911   4.361  11.310  0.3029 -0.0889  0.5961
 6462TIP3    H140801   3.959   4.398  11.236  1.3126  0.9992  1.7393
 6462TIP3    H240802   3.823   4.398  11.303  0.5948  0.5632  0.3203
 6463TIP3   OH240803   4.516   2.838  15.623 -0.3135  0.6241  0.7667
 6463TIP3    H140804   4.467   2.804  15.699  1.5270 -1.2224  1.2123
 6463TIP3    H240805   4.513   2.766  15.560  1.6815  0.4996  0.7686
 6464TIP3   OH240806   4.072   3.464   5.240  0.7601 -0.1942  0.3275
 6464TIP3    H140807   4.078   3.369   5.233 -0.6180 -0.3508  0.9996
 6464TIP3    H240808   4.102   3.484   5.329  0.1275 -0.1016  0.5229
 6465TIP3   OH240809   4.512   1.482   6.478 -0.3332 -0.7020 -0.2011
 6465TIP3    H140810   4.528   1.566   6.436  0.1191 -0.2328  0.8672
 6465TIP3    H240811   4.520   1.418   6.408  0.6697  0.0250 -0.7810
 6466TIP3   OH240812   1.300   0.840  15.052 -0.3070 -0.1503 -0.1233
 6466TIP3    H140813   1.217   0.887  15.064 -0.0569 -0.1116  1.7692
 6466TIP3    H240814   1.291   0.763  15.107  1.5194  0.6991  1.4692
 6467TIP3   OH240815   5.469   0.869  11.611  0.5170  0.7456 -0.2579
 6467TIP3    H140816   5.384   0.909  11.630  0.1125 -0.4611  0.5471
 6467TIP3    H240817   5.528   0.905  11.677 -0.4434 -1.9178  2.2747
 6468TIP3   OH240818   5.045   5.475  15.797 -0.0231  1.2057  0.8274
 6468TIP3    H140819   5.011   5.425  15.871 -0.3693  1.2876  0.7268
 6468TIP3    H240820   4.971   5.531  15.770 -0.3397  0.2183 -0.4328
 6469TIP3   OH240821   1.470   4.436  11.693 -0.0396 -0.0583 -0.0353
 6469TIP3    H140822   1.437   4.515  11.650  1.7979  0.9688  0.3536
 6469TIP3    H240823   1.471   4.370  11.623 -0.5577  0.5605 -0.6480
 6470TIP3   OH240824   6.652   2.378  14.317 -0.2047  0.4300  0.1701
 6470TIP3    H140825   6.573   2.427  14.294 -0.8513  0.1840  1.7012
 6470TIP3    H240826   6.641   2.357  14.410  0.8393 -1.1484 -0.0080
 6471TIP3   OH240827   2.751   3.044   1.466  0.5915 -0.5879  0.6148
 6471TIP3    H140828   2.723   2.977   1.403 -0.5748  0.0728  0.4053
 6471TIP3    H240829   2.801   3.106   1.413  0.0150 -0.2838  0.4121
 6472TIP3   OH240830   1.790   0.452   4.954 -0.0485  0.4328 -0.3006
 6472TIP3    H140831   1.803   0.531   4.902  2.6370 -0.3900 -1.0221
 6472TIP3    H240832   1.769   0.384   4.891  0.3122  0.0178  0.0215
 6473TIP3   OH240833   5.422   2.765   5.409 -0.0601  0.2071  0.2021
 6473TIP3    H140834   5.327   2.776   5.414 -0.3601 -0.8859 -1.9312
 6473TIP3    H240835   5.450   2.830   5.345  0.7308  0.8676  1.1921
 6474TIP3   OH240836   5.001   2.856  14.651  0.1737  0.3411  0.4168
 6474TIP3    H140837   5.066   2.913  14.609 -1.2117  1.0196 -0.8836
 6474TIP3    H240838   4.929   2.914  14.675 -1.0360 -0.7541 -0.4332
 6475TIP3   OH240839   0.995   4.661  11.623 -0.4924 -0.3116  0.1664
 6475TIP3    H140840   0.957   4.735  11.576 -0.4834 -1.4237 -1.6641
 6475TIP3    H240841   0.965   4.583  11.576  0.9561 -1.4062  0.9439
 6476TIP3   OH240842   5.054   0.504  11.741  0.1165  0.4210  1.3087
 6476TIP3    H140843   5.121   0.436  11.740 -0.3157 -0.0116 -0.1850
 6476TIP3    H240844   5.048   0.530  11.833  2.1838  0.3419  1.5067
 6477TIP3   OH240845   0.035   1.445   4.521  0.4443 -0.0900 -0.3548
 6477TIP3    H140846   0.074   1.533   4.520  0.5440 -0.1108  0.5616
 6477TIP3    H240847   0.100   1.390   4.478  0.0835  0.3890 -1.5651
 6478TIP3   OH240848   3.910   3.090  14.184 -0.6118 -0.4332 -0.1098
 6478TIP3    H140849   3.963   3.029  14.234  0.1622 -1.2082 -1.7728
 6478TIP3    H240850   3.972   3.159  14.157 -0.7326 -0.6285 -0.9268
 6479TIP3   OH240851   0.924   1.802   1.106  0.5717 -0.1410  0.2521
 6479TIP3    H140852   0.847   1.774   1.056 -0.0021  3.0602 -0.9161
 6479TIP3    H240853   0.986   1.730   1.097 -1.0832 -1.4414 -1.5718
 6480TIP3   OH240854   0.527   1.376   0.907 -0.0247  0.1456 -0.7098
 6480TIP3    H140855   0.613   1.345   0.934 -0.4068  0.0969  0.4794
 6480TIP3    H240856   0.537   1.471   0.897 -0.5296  0.6070  2.3550
 6481TIP3   OH240857   1.183   0.865  14.275  0.1880  0.1691  0.1254
 6481TIP3    H140858   1.213   0.837  14.188  2.6657  1.2729  0.5275
 6481TIP3    H240859   1.103   0.914  14.258 -0.7075 -1.6419 -1.2328
 6482TIP3   OH240860   5.044   4.596   3.837  0.1991  0.1606 -0.5663
 6482TIP3    H140861   5.066   4.674   3.785 -0.7923  1.6488  1.1367
 6482TIP3    H240862   5.088   4.610   3.921 -1.0372 -0.4676  0.2175
 6483TIP3   OH240863   5.361   3.715   3.197 -0.5179  0.2616  0.4074
 6483TIP3    H140864   5.275   3.754   3.180 -0.4808 -0.8701 -3.4096
 6483TIP3    H240865   5.348   3.621   3.182  0.8673 -0.3226  2.4928
 6484TIP3   OH240866   0.996   3.689   1.511  0.3402 -0.5022  0.3233
 6484TIP3    H140867   1.040   3.647   1.437  0.1984  0.0564 -0.0900
 6484TIP3    H240868   0.907   3.655   1.508  0.0251  0.3131 -0.4372
 6485TIP3   OH240869   2.617   0.031   4.829  0.6942  0.3575 -0.2918
 6485TIP3    H140870   2.578   0.023   4.743 -1.4209  0.2254  0.6296
 6485TIP3    H240871   2.561   0.093   4.876  0.5788 -1.0693  1.6049
 6486TIP3   OH240872   3.050   5.379   0.244  0.1917  0.3261  0.5455
 6486TIP3    H140873   3.061   5.284   0.240 -1.7376  0.0907 -1.0404
 6486TIP3    H240874   2.982   5.392   0.310 -0.1496  0.5210  0.1598
 6487TIP3   OH240875   3.746   1.545  12.969  0.1634 -0.2334 -0.1905
 6487TIP3    H140876   3.786   1.584  12.891  2.0873 -0.8755  0.4283
 6487TIP3    H240877   3.820   1.526  13.027 -0.7302 -3.8942 -0.0427
 6488TIP3   OH240878   5.795   0.684  13.794 -0.2521  0.2923  0.1958
 6488TIP3    H140879   5.811   0.775  13.767  1.4097  0.5034  1.6749
 6488TIP3    H240880   5.793   0.688  13.890 -2.5140 -0.9159  0.2785
 6489TIP3   OH240881   1.942   2.458   0.947  0.0217 -0.8251  0.0127
 6489TIP3    H140882   1.959   2.365   0.934  0.1288 -0.9019  0.6420
 6489TIP3    H240883   1.847   2.466   0.946  0.0241 -0.6953 -1.5735
 6490TIP3   OH240884   3.221   6.168  17.096  0.1679 -0.2235  0.1696
 6490TIP3    H140885   3.228   6.112  17.019  1.3325  0.8595 -0.5515
 6490TIP3    H240886   3.218   6.257  17.061 -3.3194  0.2177  1.1713
 6491TIP3   OH240887   1.197   6.528  13.989 -0.0626  0.7676  0.6196
 6491TIP3    H140888   1.189   6.465  14.061  0.4900 -0.4448 -0.3322
 6491TIP3    H240889   1.192   6.474  13.910  0.1971  1.9582 -0.2338
 6492TIP3   OH240890   5.614   0.912   3.863 -0.1138 -0.3361  0.2003
 6492TIP3    H140891   5.532   0.934   3.906  0.1741  0.2169  0.4662
 6492TIP3    H240892   5.603   0.944   3.773 -0.5569 -1.1306 -0.0403
 6493TIP3   OH240893   4.643   2.775  17.054  0.1291  1.0434  0.5176
 6493TIP3    H140894   4.670   2.830  16.980 -0.5572 -0.3530 -0.8326
 6493TIP3    H240895   4.547   2.775  17.049  0.1253 -0.8204  0.0303
 6494TIP3   OH240896   0.957   5.262  16.809  0.0602 -0.1615 -0.1309
 6494TIP3    H140897   0.988   5.222  16.890 -0.1006  1.2732  0.6675
 6494TIP3    H240898   0.890   5.201  16.776  0.1896 -0.8052  0.7549
 6495TIP3   OH240899   1.770   0.460   4.413  0.6859 -0.2396 -0.3697
 6495TIP3    H140900   1.751   0.554   4.415  0.3649 -0.3038  1.3317
 6495TIP3    H240901   1.834   0.447   4.483 -1.4381 -1.6573  1.4904
 6496TIP3   OH240902   0.779   4.365   1.490 -0.4128 -0.3325  0.2281
 6496TIP3    H140903   0.747   4.452   1.465 -0.8175 -0.4084  0.4663
 6496TIP3    H240904   0.753   4.356   1.582 -1.3253 -1.1290 -0.0941
 6497TIP3   OH240905   4.417   5.467  13.696  0.2245 -0.0425  0.1604
 6497TIP3    H140906   4.455   5.474  13.608 -3.1361 -2.4836 -1.7273
 6497TIP3    H240907   4.464   5.394  13.736  1.1061  0.4463  0.0542
 6498TIP3   OH240908   6.352   4.901   2.468 -0.4325  0.2394  0.0551
 6498TIP3    H140909   6.286   4.831   2.463  0.8806 -1.0385 -0.1700
 6498TIP3    H240910   6.306   4.975   2.508 -2.0069 -0.5821 -0.1514
 6499TIP3   OH240911   3.858   5.086  13.191 -1.0542 -0.2116  0.2689
 6499TIP3    H140912   3.905   5.146  13.133 -0.3656 -1.3139 -0.3427
 6499TIP3    H240913   3.809   5.143  13.249 -0.4998  0.9466 -0.3631
 6500TIP3   OH240914   3.433   4.192  15.575 -0.7416  0.2928 -0.3645
 6500TIP3    H140915   3.396   4.116  15.618  2.2073 -1.9050 -1.3790
 6500TIP3    H240916   3.416   4.265  15.635 -1.9055 -1.5062  1.6122
 6501TIP3   OH240917   1.636   0.205   4.107  0.3807  0.3246 -0.0078
 6501TIP3    H140918   1.714   0.173   4.061  1.3482  1.8202  0.5098
 6501TIP3    H240919   1.587   0.253   4.041  1.0102  1.2010  0.1450
 6502TIP3   OH240920   4.993   4.206  12.753 -0.2125  0.0305 -0.4010
 6502TIP3    H140921   4.997   4.118  12.790 -0.3738 -0.1549 -0.8129
 6502TIP3    H240922   4.998   4.264  12.828  2.2541 -0.2769 -0.2486
 6503TIP3   OH240923   4.926   3.405  15.833  0.2858  0.0551 -0.1191
 6503TIP3    H140924   4.983   3.392  15.758  1.0391 -0.2166  0.4874
 6503TIP3    H240925   4.984   3.400  15.909 -0.1172  2.3707  0.4054
 6504TIP3   OH240926   6.096   1.674   6.527 -0.3129  0.0197 -0.4033
 6504TIP3    H140927   6.184   1.704   6.505  0.0708  0.3841  1.4739
 6504TIP3    H240928   6.101   1.578   6.520  0.2523  0.0358 -0.2694
 6505TIP3   OH240929   6.229   6.609   5.338  0.2657 -0.0048 -0.8702
 6505TIP3    H140930   6.142   6.622   5.300  0.0364 -1.7605 -1.0243
 6505TIP3    H240931   6.264   6.533   5.292  0.4177 -1.5543  1.6424
 6506TIP3   OH240932   0.271   4.391   1.078  0.0122  0.3814 -0.3650
 6506TIP3    H140933   0.201   4.344   1.032 -1.0305  0.2727  1.2402
 6506TIP3    H240934   0.321   4.322   1.123 -1.2020  0.6742  1.5647
 6507TIP3   OH240935   4.634   6.386  12.941 -0.5959  0.5352  0.1455
 6507TIP3    H140936   4.607   6.478  12.935 -2.4925  0.0920  1.1161
 6507TIP3    H240937   4.691   6.383  13.019  0.1912  1.0099 -0.3897
 6508TIP3   OH240938   3.556   3.555   5.377 -0.4118  0.1939  0.5643
 6508TIP3    H140939   3.572   3.460   5.374 -0.2301  0.2456 -0.6362
 6508TIP3    H240940   3.548   3.575   5.470  0.2425 -0.8917  0.8750
 6509TIP3   OH240941   4.766   3.493   6.273  0.3822 -0.7719  0.8917
 6509TIP3    H140942   4.841   3.472   6.328  0.3254 -0.8228  0.9501
 6509TIP3    H240943   4.777   3.586   6.252 -0.3580 -0.3593  2.1911
 6510TIP3   OH240944   0.566   4.952   0.535  0.3982  0.4482  0.1469
 6510TIP3    H140945   0.653   4.993   0.539  1.4985 -1.5610 -1.7246
 6510TIP3    H240946   0.509   5.021   0.501  2.2815  0.4675 -3.3511
 6511TIP3   OH240947   6.419   2.886   2.530 -0.7410  0.0842  0.3365
 6511TIP3    H140948   6.349   2.882   2.595  0.4162  0.7895  1.6661
 6511TIP3    H240949   6.386   2.947   2.464 -0.4548  2.4071  2.1934
 6512TIP3   OH240950   3.585   4.809   0.712 -0.3120  0.1906  1.2849
 6512TIP3    H140951   3.654   4.762   0.759  0.4482  0.7763  0.7823
 6512TIP3    H240952   3.599   4.901   0.735 -1.0962  0.2895  1.3826
 6513TIP3   OH240953   4.261   6.666   0.715  0.0661  0.6939 -0.5337
 6513TIP3    H140954   4.278   6.737   0.778 -0.6455  0.3749  0.0314
 6513TIP3    H240955   4.310   6.691   0.638 -1.1518  2.4772 -0.7979
 6514TIP3   OH240956   2.695   1.552  16.025  0.2271  0.1327  0.1289
 6514TIP3    H140957   2.737   1.607  16.091 -1.3452  0.9362  0.4889
 6514TIP3    H240958   2.654   1.481  16.076  0.5604 -0.2769 -0.1613
 6515TIP3   OH240959   0.917   5.125   3.589 -0.2429  0.2441  0.2836
 6515TIP3    H140960   0.824   5.115   3.612 -0.1111  0.3180  0.8619
 6515TIP3    H240961   0.917   5.130   3.494 -0.9540  1.3143  0.3164
 6516TIP3   OH240962   2.334   4.571   5.017 -0.3285  0.4209 -0.5780
 6516TIP3    H140963   2.275   4.618   4.959  0.3090  0.5762 -1.1157
 6516TIP3    H240964   2.416   4.564   4.968  0.4292  1.1200  0.5403
 6517TIP3   OH240965   4.635   1.712  13.897 -0.2927  0.3313 -0.2375
 6517TIP3    H140966   4.650   1.643  13.961 -1.0386  0.1339 -0.2742
 6517TIP3    H240967   4.722   1.750  13.882 -0.3381  1.5883  2.2323
 6518TIP3   OH240968   5.756   5.193  15.072 -0.3379  0.7449 -0.7276
 6518TIP3    H140969   5.680   5.249  15.058 -1.7774 -0.5070  1.4980
 6518TIP3    H240970   5.787   5.215  15.160  0.2540 -0.5511 -0.5751
 6519TIP3   OH240971   2.018   6.466   4.119  0.1823  0.2268 -0.1508
 6519TIP3    H140972   2.016   6.445   4.025  0.8898  1.7479 -0.5284
 6519TIP3    H240973   1.965   6.545   4.127  1.1556  0.8244  0.5339
 6520TIP3   OH240974   6.224   4.148   3.285  0.6033 -0.3093 -1.0167
 6520TIP3    H140975   6.310   4.133   3.324  0.4055 -2.2127 -1.2115
 6520TIP3    H240976   6.220   4.085   3.213 -1.7722 -1.8519  0.3487
 6521TIP3   OH240977   3.291   0.601  14.754  0.8466  0.3249  0.3028
 6521TIP3    H140978   3.298   0.569  14.665 -0.2498  0.5587  0.1127
 6521TIP3    H240979   3.370   0.569  14.798  0.2190 -1.9271 -0.0771
 6522TIP3   OH240980   1.881   1.540  14.762  0.5697  0.3981  0.1428
 6522TIP3    H140981   1.940   1.532  14.687  0.1547  0.9385 -0.2591
 6522TIP3    H240982   1.884   1.633  14.785 -0.1363  0.4391  0.0975
 6523TIP3   OH240983   3.724   0.296   3.033 -0.1478 -0.2402  0.4339
 6523TIP3    H140984   3.717   0.204   3.008  0.3843 -0.7027  1.8995
 6523TIP3    H240985   3.760   0.295   3.122 -0.2132  1.3827  0.5203
 6524TIP3   OH240986   0.098   4.724   4.886 -0.0196  0.2917 -0.0154
 6524TIP3    H140987   0.087   4.713   4.981 -1.0478  0.3598 -0.1179
 6524TIP3    H240988   0.157   4.652   4.861 -1.0726 -0.7615  0.4174
 6525TIP3   OH240989   3.574   2.150   3.537 -0.2309  0.5351 -0.3206
 6525TIP3    H140990   3.629   2.076   3.512 -1.6510 -0.8894  0.5742
 6525TIP3    H240991   3.605   2.223   3.482  1.1654 -0.7161 -1.2717
 6526TIP3   OH240992   1.249   4.104   3.412 -0.9779  0.1006  0.5143
 6526TIP3    H140993   1.172   4.122   3.465 -1.2839  1.4209 -0.3423
 6526TIP3    H240994   1.225   4.132   3.324  0.3269  0.1312  0.1440
 6527TIP3   OH240995   1.399   2.743   5.565 -0.0554  0.0121 -0.0645
 6527TIP3    H140996   1.360   2.818   5.520  0.4564 -0.5252 -1.4753
 6527TIP3    H240997   1.492   2.749   5.545  0.2094 -0.1931  1.0473
 6528TIP3   OH240998   5.890   5.126  11.192 -0.3636  1.4361 -0.1221
 6528TIP3    H140999   5.819   5.190  11.181 -0.8129  1.2554  1.4792
 6528TIP3    H241000   5.925   5.143  11.279 -1.3627 -1.2661  0.9445
 6529TIP3   OH241001   2.619   6.478   3.908 -0.0427 -0.2287  0.4458
 6529TIP3    H141002   2.524   6.477   3.916 -0.1331 -0.5307 -0.5152
 6529TIP3    H241003   2.643   6.386   3.897  0.1064  0.0106 -1.7188
 6530TIP3   OH241004   2.011   4.723  14.599 -0.1558  0.2757 -0.5632
 6530TIP3    H141005   2.020   4.640  14.551 -0.8210  0.0794 -0.3534
 6530TIP3    H241006   2.075   4.715  14.670  0.4236  0.3254 -1.0707
 6531TIP3   OH241007   1.196   6.640  14.460 -0.3423 -0.0175  0.4586
 6531TIP3    H141008   1.184   6.684  14.376  1.0370  1.6039  1.0416
 6531TIP3    H241009   1.284   6.666  14.488 -0.0911 -1.9231  1.6067
 6532TIP3   OH241010   4.225   3.365   4.739 -0.2538 -0.0814  0.4627
 6532TIP3    H141011   4.244   3.441   4.685  0.1371 -0.3450  0.2229
 6532TIP3    H241012   4.229   3.397   4.829 -0.4471  0.2560  0.3545
 6533TIP3   OH241013   6.751   4.809  11.719 -0.5305 -0.0588 -0.1498
 6533TIP3    H141014   6.782   4.877  11.779 -0.1425 -0.0003 -0.4154
 6533TIP3    H241015   6.666   4.840  11.689 -0.3070  0.3668 -0.3553
 6534TIP3   OH241016   6.291   1.165   2.807 -0.1055  0.1699  0.1237
 6534TIP3    H141017   6.260   1.173   2.717 -0.0710  0.3813  0.1324
 6534TIP3    H241018   6.387   1.165   2.799 -0.1022  0.2425  0.1659
 6535TIP3   OH241019   6.773   2.180   1.295  0.3976  1.2855 -0.0624
 6535TIP3    H141020   6.739   2.173   1.384  0.6491  1.3441  0.0369
 6535TIP3    H241021   6.867   2.164   1.303  0.2937  0.3881 -0.4352
 6536TIP3   OH241022   1.098   1.667  13.984 -0.2222 -0.0443 -0.0266
 6536TIP3    H141023   1.057   1.586  13.952 -2.0322  0.9854 -0.4257
 6536TIP3    H241024   1.029   1.732  13.981  1.2645  1.6138  0.0608
 6537TIP3   OH241025   0.789   1.071   1.951 -0.4220 -0.1244  1.1272
 6537TIP3    H141026   0.813   0.982   1.927  2.0761  0.7045  0.1479
 6537TIP3    H241027   0.807   1.076   2.045  1.3219 -0.1801  0.8363
 6538TIP3   OH241028   5.869   0.296   2.984 -0.2337  0.0443  0.2735
 6538TIP3    H141029   5.887   0.223   3.043  0.2953  0.6373  0.8761
 6538TIP3    H241030   5.795   0.341   3.024 -0.9500 -0.5003 -0.4236
 6539TIP3   OH241031   0.637   2.280   1.246  0.1053 -0.2772  0.0151
 6539TIP3    H141032   0.597   2.323   1.171  0.3945  1.0240  0.5839
 6539TIP3    H241033   0.630   2.186   1.226 -0.3503  0.0201 -1.3491
 6540TIP3   OH241034   2.435   6.200  11.384 -0.3342 -0.2587  0.9416
 6540TIP3    H141035   2.346   6.217  11.414 -1.1412 -2.8547  0.2861
 6540TIP3    H241036   2.426   6.188  11.289  0.2604 -2.8140  1.1565
 6541TIP3   OH241037   2.217   2.408   5.075  0.8564 -0.5042 -0.4489
 6541TIP3    H141038   2.218   2.478   5.010  1.3716 -1.4534 -1.4816
 6541TIP3    H241039   2.302   2.415   5.119  1.8533 -1.7905 -2.0349
 6542TIP3   OH241040   0.651   3.159   0.543  0.4226  0.0128 -0.7934
 6542TIP3    H141041   0.710   3.112   0.602  0.2750  0.5797 -0.1853
 6542TIP3    H241042   0.707   3.224   0.500  0.2880  0.4141 -0.3680
 6543TIP3   OH241043   2.174   3.589  14.650  1.1012  0.2001 -0.5633
 6543TIP3    H141044   2.217   3.591  14.736  0.9847  0.7305 -0.5096
 6543TIP3    H241045   2.218   3.658  14.600  0.7533  0.3088 -0.7222
 6544TIP3   OH241046   4.774   0.305  12.265  0.5857  0.4712  0.0620
 6544TIP3    H141047   4.855   0.298  12.216  0.3368  1.0929 -0.4616
 6544TIP3    H241048   4.707   0.324  12.199 -0.3904 -2.1211  0.1854
 6545TIP3   OH241049   0.613   4.615  12.885 -0.2015 -0.2840  0.6095
 6545TIP3    H141050   0.607   4.539  12.942 -2.1236 -0.8214 -0.2088
 6545TIP3    H241051   0.641   4.579  12.801  1.9104  0.3966  0.9735
 6546TIP3   OH241052   3.838   6.113   4.930  0.0628  0.0157 -0.4559
 6546TIP3    H141053   3.764   6.174   4.931  0.7254  0.8833 -1.6854
 6546TIP3    H241054   3.808   6.038   4.981 -1.0589  1.0481  0.4654
 6547TIP3   OH241055   3.212   3.920  16.750  0.3681  0.0561 -0.1110
 6547TIP3    H141056   3.235   3.942  16.660 -0.2465 -1.1320 -0.5659
 6547TIP3    H241057   3.178   4.002  16.786  2.6164  1.1294 -0.2635
 6548TIP3   OH241058   6.061   2.479   6.359  0.4542 -0.4123  0.3377
 6548TIP3    H141059   6.060   2.529   6.441  1.3787 -0.9155  0.6720
 6548TIP3    H241060   6.000   2.526   6.302  0.1129  0.1890  1.1683
 6549TIP3   OH241061   6.132   1.800  17.091  0.3248 -0.1412 -0.0998
 6549TIP3    H141062   6.043   1.802  17.057  1.1280  0.0626 -2.3994
 6549TIP3    H241063   6.123   1.809  17.186 -2.0337  0.6704 -0.3604
 6550TIP3   OH241064   3.315   3.496  12.692 -0.7353 -0.5302  0.0687
 6550TIP3    H141065   3.340   3.502  12.600 -2.4571  0.2050 -0.4060
 6550TIP3    H241066   3.339   3.408  12.719 -0.6769 -0.9237 -1.2420
 6551TIP3   OH241067   5.951   0.128  10.762  0.0059  0.3808  0.5434
 6551TIP3    H141068   6.041   0.162  10.762  0.0750  0.3750 -1.8280
 6551TIP3    H241069   5.960   0.037  10.734 -0.8271  0.8047 -1.2182
 6552TIP3   OH241070   3.781   4.936   2.449  0.4476  0.1254 -0.0748
 6552TIP3    H141071   3.751   5.026   2.438 -0.0715 -0.1821 -1.2282
 6552TIP3    H241072   3.877   4.943   2.442  0.6175  0.8763  2.0862
 6553TIP3   OH241073   4.180   5.062   5.386 -0.0107  0.3086 -0.0253
 6553TIP3    H141074   4.265   5.065   5.432 -0.8258 -1.9306  1.8598
 6553TIP3    H241075   4.140   4.980   5.416 -1.9718  0.2425 -2.4938
 6554TIP3   OH241076   5.474   6.778   3.766 -0.6783  0.4236  0.0344
 6554TIP3    H141077   5.445   6.831   3.840 -0.6367 -0.3150  0.5776
 6554TIP3    H241078   5.527   6.708   3.804 -1.0069 -0.2098 -0.6486
 6555TIP3   OH241079   1.591   2.558  15.344 -0.0380  0.2033 -0.0624
 6555TIP3    H141080   1.564   2.534  15.256  0.8550  1.0647 -0.5890
 6555TIP3    H241081   1.676   2.515  15.355  0.0435  0.4385  0.2295
 6556TIP3   OH241082   6.611   4.351  17.025  0.6533 -0.1791  0.1385
 6556TIP3    H141083   6.665   4.365  17.102  0.0023 -0.5299  0.6683
 6556TIP3    H241084   6.624   4.429  16.971  0.5683  0.3855  0.9257
 6557TIP3   OH241085   2.729   0.013  15.927 -0.3012 -0.1594  0.6240
 6557TIP3    H141086   2.823   0.024  15.912 -0.2366 -1.2865  0.0436
 6557TIP3    H241087   2.693  -0.005  15.840 -0.7568 -1.5847  1.0832
 6558TIP3   OH241088   2.202   1.913   0.869  0.3003  0.1559  0.5493
 6558TIP3    H141089   2.206   1.842   0.805  0.7798  1.8174 -1.3869
 6558TIP3    H241090   2.112   1.912   0.900 -0.2359 -0.0900 -0.9261
 6559TIP3   OH241091   1.579   0.651  15.020  0.4859 -0.0618 -0.2372
 6559TIP3    H141092   1.532   0.734  15.011 -0.0589 -0.4239 -0.8013
 6559TIP3    H241093   1.523   0.587  14.976 -0.5719 -1.2825  2.6121
 6560TIP3   OH241094   0.175   4.054   3.318 -0.8454  0.6120  0.0813
 6560TIP3    H141095   0.169   3.967   3.358  0.1202 -0.1610 -1.3588
 6560TIP3    H241096   0.084   4.079   3.302 -1.1688  0.2392  1.2624
 6561TIP3   OH241097   5.765   1.994   2.001 -0.0633 -0.6685  0.1780
 6561TIP3    H141098   5.722   1.914   2.030 -0.7302 -0.6000 -0.5851
 6561TIP3    H241099   5.858   1.979   2.019 -0.4354 -0.5465  2.4520
 6562TIP3   OH241100   3.987   2.076   0.932 -0.2314  0.3007 -0.2748
 6562TIP3    H141101   3.911   2.037   0.975  0.5456  0.2491  1.1138
 6562TIP3    H241102   3.959   2.165   0.909 -0.6267  0.3672  0.4475
 6563TIP3   OH241103   4.484   1.807  14.735 -0.2975 -0.5513 -0.7514
 6563TIP3    H141104   4.436   1.844  14.661 -1.6411 -2.1306 -0.7181
 6563TIP3    H241105   4.418   1.796  14.804  0.2195 -2.1568 -0.4634
 6564TIP3   OH241106   5.519   4.454   2.758  0.1438 -0.4540  0.2920
 6564TIP3    H141107   5.446   4.515   2.770  0.0809 -0.4663 -0.0054
 6564TIP3    H241108   5.502   4.384   2.821 -0.5709 -0.8821 -0.3563
 6565TIP3   OH241109   5.519   2.615   1.516 -0.2272 -0.0077 -0.2498
 6565TIP3    H141110   5.525   2.705   1.482 -0.1861 -0.2228 -0.8305
 6565TIP3    H241111   5.607   2.595   1.547  0.2136 -0.4297 -1.6685
 6566TIP3   OH241112   5.333   3.671   5.661 -0.3708 -0.0094 -0.7409
 6566TIP3    H141113   5.325   3.706   5.750  0.5991 -0.4442 -0.4603
 6566TIP3    H241114   5.428   3.665   5.647 -0.5212  0.0691 -1.8112
 6567TIP3   OH241115   1.321   4.535  15.081  0.0874 -0.7243  0.2794
 6567TIP3    H141116   1.360   4.617  15.112  0.0778 -0.1536 -1.1541
 6567TIP3    H241117   1.390   4.469  15.094  1.6428  0.2705 -2.2139
 6568TIP3   OH241118   2.691   2.231   5.761  0.3610  0.3404  0.1003
 6568TIP3    H141119   2.618   2.278   5.802  0.4270  0.2973  0.2708
 6568TIP3    H241120   2.671   2.231   5.668  0.5593  1.0472  0.0544
 6569TIP3   OH241121   2.104   5.795   0.635 -0.8579 -0.2609  0.4008
 6569TIP3    H141122   2.114   5.771   0.543  0.7930 -0.9922  0.7337
 6569TIP3    H241123   2.192   5.787   0.671 -1.7564 -1.6329  2.4504
 6570TIP3   OH241124   4.775   1.698   4.877  0.5355  0.0976  0.1128
 6570TIP3    H141125   4.695   1.738   4.911  0.5154  0.8149 -0.7379
 6570TIP3    H241126   4.813   1.651   4.951 -1.7662 -2.0516  0.0452
 6571TIP3   OH241127   3.360   3.044  13.535 -0.4350 -0.1469  0.5248
 6571TIP3    H141128   3.368   3.139  13.526 -1.4956 -0.1363 -0.5193
 6571TIP3    H241129   3.427   3.009  13.476 -0.2558 -0.0367  0.6653
 6572TIP3   OH241130   4.602   3.642  16.855 -0.2612 -0.0672 -0.9984
 6572TIP3    H141131   4.648   3.721  16.884 -2.6235  0.6874  1.0962
 6572TIP3    H241132   4.655   3.570  16.888  1.0567  0.6490 -1.4729
 6573TIP3   OH241133   2.450   1.511   5.028 -0.1574 -0.2972  0.5356
 6573TIP3    H141134   2.430   1.509   4.935  0.5471  0.8902  0.3501
 6573TIP3    H241135   2.382   1.567   5.066  0.6551  0.7731  0.4403
 6574TIP3   OH241136   2.675   4.578  12.369  0.1948  0.5076  0.7492
 6574TIP3    H141137   2.679   4.545  12.280  0.5411  0.8891  0.6189
 6574TIP3    H241138   2.766   4.583  12.397  0.2239  2.1277  0.4660
 6575TIP3   OH241139   1.129   4.789   5.152  0.6282 -0.1425  0.3141
 6575TIP3    H141140   1.065   4.860   5.153  0.8521  0.0539  0.8369
 6575TIP3    H241141   1.104   4.732   5.225  2.6082  1.3504  2.2865
 6576TIP3   OH241142   4.960   1.719  13.260 -0.3640  0.1710  0.0048
 6576TIP3    H141143   4.994   1.736  13.349  1.8594 -0.6395 -0.6211
 6576TIP3    H241144   5.026   1.758  13.202 -0.7504 -1.0667 -1.3111
 6577TIP3   OH241145   2.036   6.545   2.579  0.0579  0.4488  0.1388
 6577TIP3    H141146   2.098   6.596   2.527  1.1686 -0.3927  0.5954
 6577TIP3    H241147   2.012   6.471   2.524  1.4780 -0.6135  0.8853
 6578TIP3   OH241148   2.506   2.405   1.046  0.2085 -0.2951 -0.2595
 6578TIP3    H141149   2.500   2.440   0.957  0.9344  0.6075  0.0317
 6578TIP3    H241150   2.453   2.325   1.044  0.5591 -0.5139 -1.6024
 6579TIP3   OH241151   6.442   5.265   1.166  0.0724 -0.3085 -0.3007
 6579TIP3    H141152   6.513   5.323   1.192  0.6154 -1.3044  0.5204
 6579TIP3    H241153   6.486   5.187   1.132 -0.6373 -0.0071 -2.0221
 6580TIP3   OH241154   3.665   1.106   0.075 -0.1538 -0.1153  0.0310
 6580TIP3    H141155   3.606   1.127   0.003  0.1763  2.5669  0.4297
 6580TIP3    H241156   3.713   1.029   0.045 -1.7066 -0.5091 -1.5754
 6581TIP3   OH241157   6.206   4.985   3.829 -0.2950 -0.0992  0.0875
 6581TIP3    H141158   6.287   4.950   3.792  0.0009  0.0396  0.5990
 6581TIP3    H241159   6.152   5.004   3.753  0.6336  0.9828 -0.3389
 6582TIP3   OH241160   0.404   4.431   3.481  0.2504 -0.4647  0.3662
 6582TIP3    H141161   0.324   4.437   3.429  0.8761  0.1873 -0.5638
 6582TIP3    H241162   0.375   4.449   3.570 -0.5285  0.6825 -0.0773
 6583TIP3   OH241163   6.647   5.287   2.309 -0.0649  0.6129  0.2541
 6583TIP3    H141164   6.617   5.196   2.311  1.9623 -0.1530 -0.7458
 6583TIP3    H241165   6.684   5.298   2.221  1.3745  1.8034  0.9514
 6584TIP3   OH241166   6.271   5.746  13.421  0.1365 -0.3261 -1.0561
 6584TIP3    H141167   6.356   5.709  13.398  0.3568 -0.2712 -0.3672
 6584TIP3    H241168   6.287   5.794  13.503 -0.5588 -0.3373 -0.9053
 6585TIP3   OH241169   5.445   6.428   5.630 -0.0894 -0.1524 -0.6888
 6585TIP3    H141170   5.417   6.519   5.645  1.4111 -0.0971  2.8622
 6585TIP3    H241171   5.379   6.375   5.675  0.1489 -0.6694 -0.9417
 6586TIP3   OH241172   4.830   6.129  16.330 -0.1032  0.0718 -0.1388
 6586TIP3    H141173   4.807   6.205  16.276 -2.5681 -1.8931 -2.1587
 6586TIP3    H241174   4.797   6.151  16.417 -0.3414  1.4964 -0.5621
 6587TIP3   OH241175   4.824   6.461   4.754 -0.7189  0.1810  0.3006
 6587TIP3    H141176   4.796   6.447   4.844 -2.1248 -2.3645 -0.4326
 6587TIP3    H241177   4.837   6.556   4.747  0.9875  0.3450  3.5563
 6588TIP3   OH241178   2.671   1.813   3.584  0.2836 -0.4593 -0.0893
 6588TIP3    H141179   2.587   1.860   3.586  0.3251 -0.3990  0.4102
 6588TIP3    H241180   2.736   1.882   3.566  0.1987 -0.5579 -0.8216
 6589TIP3   OH241181   4.158   1.349  15.892  0.0571  0.2136  0.1911
 6589TIP3    H141182   4.192   1.422  15.944  0.0417  0.2774  0.1113
 6589TIP3    H241183   4.175   1.373  15.801  0.4936 -0.1085  0.1859
 6590TIP3   OH241184   2.257   6.685   5.749 -0.2758  0.2714 -0.1860
 6590TIP3    H141185   2.246   6.692   5.844 -1.5036 -0.1751 -0.2691
 6590TIP3    H241186   2.238   6.593   5.729 -1.5898  0.6772 -1.0124
 6591TIP3   OH241187   2.710   5.399   5.680 -0.1236  0.4614  0.7957
 6591TIP3    H141188   2.634   5.401   5.621 -0.1260  0.5406  0.8020
 6591TIP3    H241189   2.739   5.490   5.686 -1.3018  0.7682  2.4412
 6592TIP3   OH241190   0.625   3.192   5.933 -0.5456  0.7450  0.6047
 6592TIP3    H141191   0.611   3.278   5.892 -0.1250  0.6112  0.1686
 6592TIP3    H241192   0.677   3.211   6.011  1.7361  0.6481 -0.8157
 6593TIP3   OH241193   5.707   0.260  15.330 -0.5488 -0.0840  0.5211
 6593TIP3    H141194   5.699   0.207  15.410 -1.8682 -1.1361 -0.2746
 6593TIP3    H241195   5.749   0.341  15.360 -1.3646 -0.2837  2.3524
 6594TIP3   OH241196   1.018   1.491  11.431 -0.4351  0.6135 -0.4471
 6594TIP3    H141197   1.088   1.538  11.478  1.2955 -0.5241 -1.7686
 6594TIP3    H241198   1.033   1.512  11.339  0.2080 -2.1534 -1.0617
 6595TIP3   OH241199   1.238   5.531   0.110 -0.0363 -0.4271  0.3907
 6595TIP3    H141200   1.312   5.510   0.053 -0.9182 -2.3268 -0.1372
 6595TIP3    H241201   1.161   5.511   0.057 -0.9038 -0.4943  1.6351
 6596TIP3   OH241202   6.415   5.969  11.726 -0.3217  0.7075 -0.4877
 6596TIP3    H141203   6.381   5.880  11.724 -0.4741  0.7726 -0.8294
 6596TIP3    H241204   6.486   5.966  11.790 -0.3002  0.3323 -0.5269
 6597TIP3   OH241205   3.857   5.005   0.767  0.2255 -0.2657 -0.5241
 6597TIP3    H141206   3.773   5.045   0.787  0.7895  1.0557 -0.6886
 6597TIP3    H241207   3.874   5.029   0.676  0.1547 -1.6883 -0.9263
 6598TIP3   OH241208   4.817   5.625   4.946 -0.7051 -0.2212  0.4224
 6598TIP3    H141209   4.751   5.694   4.940  0.7053  1.0669 -3.2586
 6598TIP3    H241210   4.888   5.664   4.996 -0.9524  0.0312  0.5784
 6599TIP3   OH241211   3.056   4.560   5.560  0.0766 -0.0254 -0.0647
 6599TIP3    H141212   2.998   4.624   5.519  1.7694  1.8293  0.2529
 6599TIP3    H241213   3.097   4.608   5.632  0.6424 -1.8159  0.8723
 6600TIP3   OH241214   0.964   2.928   4.309  0.6067 -0.7565 -0.0832
 6600TIP3    H141215   0.919   2.847   4.286 -1.5993  0.6129 -0.9408
 6600TIP3    H241216   0.954   2.935   4.404  0.8112 -1.4713 -0.0043
 6601TIP3   OH241217   1.880   2.047  13.622  0.3402  0.3370 -0.1958
 6601TIP3    H141218   1.789   2.039  13.651  0.6823 -1.5418  0.5235
 6601TIP3    H241219   1.879   2.014  13.532  0.3650 -0.1667 -0.0184
 6602TIP3   OH241220   0.046   4.446   1.513  0.1606  0.2741  0.2465
 6602TIP3    H141221   0.084   4.358   1.522 -1.6630 -0.4556  1.2974
 6602TIP3    H241222   0.042   4.460   1.418  0.3102 -0.8609  0.0550
 6603TIP3   OH241223   5.435   1.233  14.140  0.5257  0.3065 -0.3338
 6603TIP3    H141224   5.486   1.195  14.212 -0.3787  3.9695  2.5756
 6603TIP3    H241225   5.371   1.166  14.118  0.0309 -0.6082  3.2524
 6604TIP3   OH241226   5.807   3.805   5.912  0.3926 -0.2058 -0.4187
 6604TIP3    H141227   5.873   3.802   5.982 -0.1837 -3.6647  0.1315
 6604TIP3    H241228   5.854   3.773   5.835 -0.3498 -1.7112 -0.2632
 6605TIP3   OH241229   6.419   0.250   2.577 -0.1061 -0.1568 -0.0403
 6605TIP3    H141230   6.419   0.341   2.548  0.6244 -0.0843  0.1520
 6605TIP3    H241231   6.332   0.217   2.556 -1.0528  1.1409  1.6468
 6606TIP3   OH241232   1.756   2.941   0.358  0.5069 -0.5305 -0.2251
 6606TIP3    H141233   1.780   2.908   0.272  1.9925 -2.0440  0.7030
 6606TIP3    H241234   1.699   2.872   0.395 -2.8285  1.5099 -1.1129
 6607TIP3   OH241235   5.836   5.275   0.088 -0.0996 -0.2759  0.1547
 6607TIP3    H141236   5.784   5.354   0.071 -0.6128 -0.4149  1.0110
 6607TIP3    H241237   5.837   5.268   0.183  0.7189 -0.7957  0.1088
 6608TIP3   OH241238   5.925   6.489  14.370 -0.4681  0.4491 -0.0971
 6608TIP3    H141239   5.973   6.409  14.348 -0.4174 -0.4980  2.9417
 6608TIP3    H241240   5.979   6.560  14.334  0.0483 -0.8211 -1.9238
 6609TIP3   OH241241   3.560   2.752   2.152  0.1413 -0.3610 -0.4762
 6609TIP3    H141242   3.584   2.842   2.174  0.2864 -0.8139  1.3635
 6609TIP3    H241243   3.603   2.699   2.219 -1.3619 -1.6586 -0.4971
 6610TIP3   OH241244   5.007   3.578   3.658 -0.4020 -0.0089 -0.2670
 6610TIP3    H141245   5.072   3.559   3.726 -0.0198  0.1199 -0.5948
 6610TIP3    H241246   5.051   3.639   3.599 -0.8283  0.0938 -0.4829
 6611TIP3   OH241247   0.355   1.362  15.925  0.3241  0.1348 -0.7222
 6611TIP3    H141248   0.298   1.438  15.937  1.0891  0.6655 -0.4332
 6611TIP3    H241249   0.443   1.395  15.938  0.6033 -1.0970  0.9162
 6612TIP3   OH241250   1.544   2.257  14.135 -0.1893 -0.4182  0.1437
 6612TIP3    H141251   1.558   2.337  14.186 -0.1591  0.3333 -1.0020
 6612TIP3    H241252   1.608   2.262  14.065 -0.4781 -1.2460 -0.1950
 6613TIP3   OH241253   0.907   4.026  15.668  0.7607 -0.1175 -0.3083
 6613TIP3    H141254   0.842   4.046  15.602  1.5451  0.0651 -1.0438
 6613TIP3    H241255   0.958   3.954  15.631 -0.2594 -1.6632  1.1107
 6614TIP3   OH241256   1.094   4.170  10.343  0.0498 -0.1120  0.0148
 6614TIP3    H141257   1.176   4.185  10.389  0.9163  0.1233 -1.5398
 6614TIP3    H241258   1.071   4.079  10.363 -1.4727  0.8643  3.6599
 6615TIP3   OH241259   1.432   0.500  16.021  0.1364  0.1507 -0.0985
 6615TIP3    H141260   1.382   0.419  16.028  0.0913  0.2687  1.0991
 6615TIP3    H241261   1.506   0.488  16.081  1.1452  0.2819 -1.2803
 6616TIP3   OH241262   6.644   3.776  16.361 -0.4435  0.5418  0.1750
 6616TIP3    H141263   6.571   3.794  16.420 -0.5391  0.4940  0.0730
 6616TIP3    H241264   6.606   3.785  16.273 -0.5831 -0.4787  0.1199
 6617TIP3   OH241265   4.135   0.217  14.718  0.1624 -0.1833 -0.1326
 6617TIP3    H141266   4.215   0.167  14.732  0.9271  0.2300 -2.5473
 6617TIP3    H241267   4.064   0.157  14.741  1.1071 -1.6811 -0.9846
 6618TIP3   OH241268   0.206   5.683   3.119 -0.6396 -0.3786  0.3988
 6618TIP3    H141269   0.197   5.678   3.024  0.6023 -0.1553  0.2472
 6618TIP3    H241270   0.179   5.597   3.150 -0.0342 -0.8216 -0.2595
 6619TIP3   OH241271   0.821   1.840  14.338 -0.2673  0.3076  0.8542
 6619TIP3    H141272   0.894   1.856  14.278  0.3319  0.9005  1.7035
 6619TIP3    H241273   0.816   1.920  14.390 -1.0646 -0.0147  1.2842
 6620TIP3   OH241274   3.113   2.903  14.342  0.0615 -0.5819  0.2770
 6620TIP3    H141275   3.022   2.906  14.369  0.1693  0.3474  0.5770
 6620TIP3    H241276   3.151   2.983  14.377  0.3170  0.4960 -2.2938
 6621TIP3   OH241277   2.136   5.971   3.198 -0.2178  0.1397 -0.0317
 6621TIP3    H141278   2.155   5.981   3.291 -1.3576  1.6713  0.0798
 6621TIP3    H241279   2.168   6.052   3.158 -0.2143 -0.2738 -0.8887
 6622TIP3   OH241280   5.235   2.940  13.933  0.0934  0.2248 -0.0050
 6622TIP3    H141281   5.263   2.934  14.024 -0.3090 -0.3920  0.0867
 6622TIP3    H241282   5.315   2.960  13.884  0.5847 -0.8318  0.3268
 6623TIP3   OH241283   6.359   2.808   2.812 -0.0913  0.8210 -0.4586
 6623TIP3    H141284   6.419   2.774   2.745  0.7032  1.3491 -0.0294
 6623TIP3    H241285   6.283   2.750   2.808  1.0463 -0.7676 -0.0412
 6624TIP3   OH241286   1.983   0.241  13.962 -0.6462 -0.0952 -0.3761
 6624TIP3    H141287   1.925   0.317  13.968 -1.6645 -0.7909 -0.9635
 6624TIP3    H241288   2.051   0.257  14.026 -1.1939  1.0162 -0.0474
 6625TIP3   OH241289   0.289   1.514   5.938 -0.8288 -0.2715 -0.6836
 6625TIP3    H141290   0.357   1.565   5.894 -1.0276 -1.3002 -2.2513
 6625TIP3    H241291   0.319   1.424   5.933 -0.7328 -0.4382  1.5962
 6626TIP3   OH241292   3.012   4.253  12.028  0.2066  0.1228 -0.5527
 6626TIP3    H141293   3.054   4.224  12.109 -3.3636 -0.0598  1.4452
 6626TIP3    H241294   3.007   4.348  12.037  2.3347  0.4178 -1.9986
 6627TIP3   OH241295   2.377   0.083  16.039  0.4762  0.2782  0.1466
 6627TIP3    H141296   2.419   0.074  16.124 -0.2089  0.3361  0.5007
 6627TIP3    H241297   2.350  -0.006  16.016 -0.6502  0.4645  0.6874
 6628TIP3   OH241298   4.543   1.990   1.981 -0.2247 -0.4160 -0.1338
 6628TIP3    H141299   4.587   1.983   1.896  2.4867 -0.5342  1.1652
 6628TIP3    H241300   4.566   1.909   2.027 -1.6185 -0.3436  0.7471
 6629TIP3   OH241301   0.510   3.276   3.416 -0.3235 -0.1933 -0.6042
 6629TIP3    H141302   0.561   3.273   3.497 -0.6911  0.4944 -0.3442
 6629TIP3    H241303   0.474   3.364   3.413 -3.2147 -1.2288  0.2822
 6630TIP3   OH241304   1.264   5.527  13.385 -0.4416 -0.3281  0.1843
 6630TIP3    H141305   1.356   5.529  13.361 -0.3147 -1.2320  0.5603
 6630TIP3    H241306   1.225   5.460  13.329 -1.2707  1.2838 -1.2504
 6631TIP3   OH241307   4.624   1.609  13.512 -0.8369 -0.4574 -0.0071
 6631TIP3    H141308   4.562   1.604  13.586 -0.3417 -0.5101  0.4119
 6631TIP3    H241309   4.568   1.605  13.434 -1.3485 -0.7342  0.3619
 6632TIP3   OH241310   1.240   0.756   3.232 -0.2405  0.1643  0.1441
 6632TIP3    H141311   1.275   0.827   3.286  1.7546  1.6208 -2.7870
 6632TIP3    H241312   1.293   0.679   3.255  0.3259  0.6601  0.5249
 6633TIP3   OH241313   0.390   0.386   5.713  0.5173 -0.1745  0.0530
 6633TIP3    H141314   0.391   0.398   5.618 -2.0852 -0.4156 -0.0835
 6633TIP3    H241315   0.321   0.445   5.743  1.5223  0.1491  1.8687
 6634TIP3   OH241316   4.494   4.863  15.610  0.2826 -0.6620  0.3244
 6634TIP3    H141317   4.480   4.920  15.686 -0.0425  0.6887 -0.7088
 6634TIP3    H241318   4.422   4.801  15.612  0.7089 -1.1416  1.5432
 6635TIP3   OH241319   1.202   1.564   2.547  0.3949  0.1045  0.3753
 6635TIP3    H141320   1.175   1.597   2.461 -0.8791 -0.6902  0.4494
 6635TIP3    H241321   1.169   1.630   2.609  0.0952 -0.0226  0.3507
 6636TIP3   OH241322   3.326   0.536  16.206 -0.2195  0.4635 -0.2258
 6636TIP3    H141323   3.402   0.588  16.179  0.8320 -0.8289  0.1539
 6636TIP3    H241324   3.303   0.486  16.128  0.3456 -0.3432  0.1167
 6637TIP3   OH241325   3.543   0.217   1.279 -0.0661  0.0073 -0.1239
 6637TIP3    H141326   3.501   0.172   1.205  1.1029  0.8062 -1.2985
 6637TIP3    H241327   3.507   0.173   1.357 -1.3827 -0.7962 -1.1431
 6638TIP3   OH241328   3.065   6.116  11.698 -0.0380 -0.0518 -0.2088
 6638TIP3    H141329   3.123   6.148  11.629 -0.3350 -1.9633 -1.3987
 6638TIP3    H241330   2.995   6.070  11.652 -2.1250  1.4863  1.2257
 6639TIP3   OH241331   5.627   2.650   6.252  0.3989  0.0216  0.5288
 6639TIP3    H141332   5.623   2.745   6.259 -2.6379  0.4544 -3.3016
 6639TIP3    H241333   5.549   2.619   6.299  0.9902 -0.5319  1.1623
 6640TIP3   OH241334   3.371   5.119  10.825 -0.7249  0.0791 -0.4483
 6640TIP3    H141335   3.422   5.186  10.872 -2.1426  1.1852 -0.4127
 6640TIP3    H241336   3.323   5.073  10.893 -1.2228  0.3275 -0.6229
 6641TIP3   OH241337   6.588   5.782   2.221 -0.3626 -0.8266  0.6482
 6641TIP3    H141338   6.603   5.749   2.133  0.1577 -0.2786  0.5189
 6641TIP3    H241339   6.582   5.877   2.211 -0.4385 -0.7688  1.1810
 6642TIP3   OH241340   5.828   0.814  16.646  0.1189  0.0377  0.8362
 6642TIP3    H141341   5.855   0.905  16.660 -2.0680  0.8731  0.0069
 6642TIP3    H241342   5.814   0.779  16.734 -0.0270  0.8274  1.1304
 6643TIP3   OH241343   0.439   6.550   4.616 -0.3823  0.0795  0.0440
 6643TIP3    H141344   0.387   6.485   4.568  1.7036 -0.6329 -1.3680
 6643TIP3    H241345   0.385   6.630   4.614 -1.9373 -0.9288 -0.2731
 6644TIP3   OH241346   4.580   4.102  16.095  0.1356  0.4081 -0.0219
 6644TIP3    H141347   4.650   4.167  16.087  0.0158  0.4553 -0.7236
 6644TIP3    H241348   4.620   4.031  16.147  0.8898  0.1849 -0.8790
 6645TIP3   OH241349   6.209   0.881   2.489  0.3016  0.2793 -0.1052
 6645TIP3    H141350   6.218   0.863   2.396 -1.5265  0.3912 -0.3340
 6645TIP3    H241351   6.298   0.873   2.524  0.9738  0.0191 -1.8054
 6646TIP3   OH241352   4.640   6.431  12.313  0.0451 -0.2890  0.2282
 6646TIP3    H141353   4.735   6.423  12.302 -0.2370 -1.7882 -1.8529
 6646TIP3    H241354   4.629   6.500  12.378  2.5494 -0.1053  0.5733
 6647TIP3   OH241355   6.572   2.876   1.375 -0.1333  0.3443  0.5304
 6647TIP3    H141356   6.631   2.808   1.341  0.0627  0.4748  0.6082
 6647TIP3    H241357   6.513   2.895   1.303 -0.0296  0.2696  0.4259
 6648TIP3   OH241358   0.970   3.684   4.474  0.5444 -0.3269 -0.1338
 6648TIP3    H141359   1.028   3.689   4.398  0.4658 -1.1357 -0.2553
 6648TIP3    H241360   1.015   3.735   4.541  1.1659 -0.5281 -0.3849
 6649TIP3   OH241361   0.955   3.835   2.841 -0.1469 -0.0249  0.3753
 6649TIP3    H141362   0.887   3.812   2.904 -1.2200  0.4145 -0.5851
 6649TIP3    H241363   0.934   3.784   2.763  0.1407  0.7285 -0.2057
 6650TIP3   OH241364   2.015   1.383  15.303  0.5145 -0.2689  0.0446
 6650TIP3    H141365   2.100   1.403  15.265  1.4899  1.8224  2.9512
 6650TIP3    H241366   2.032   1.310  15.363  0.2513  0.0809  0.5514
 6651TIP3   OH241367   5.154   5.590   2.750  0.2442 -0.0816  0.1229
 6651TIP3    H141368   5.074   5.548   2.716  0.0062  0.9000 -0.5651
 6651TIP3    H241369   5.165   5.553   2.838  0.1334 -1.7002 -0.5107
 6652TIP3   OH241370   5.281   1.916   3.617  0.1500  0.0822  0.3449
 6652TIP3    H141371   5.328   1.947   3.540  0.9619  0.4275  0.9632
 6652TIP3    H241372   5.252   1.828   3.594 -0.3255  0.4845 -0.6422
 6653TIP3   OH241373   3.576   5.006   4.722  0.2287  0.2797  0.1492
 6653TIP3    H141374   3.579   4.998   4.626  1.0107  1.6277  0.0401
 6653TIP3    H241375   3.668   5.012   4.748 -0.0372  1.4866  0.8362
 6654TIP3   OH241376   1.425   6.420  16.710 -0.3422 -0.0673 -0.3497
 6654TIP3    H141377   1.509   6.453  16.742  0.1164 -0.7362 -0.8469
 6654TIP3    H241378   1.366   6.495  16.720  0.5487  0.7469 -0.9399
 6655TIP3   OH241379   0.276   6.495  17.030 -0.3804  0.2302 -0.2834
 6655TIP3    H141380   0.335   6.554  17.077 -0.6248  0.6851 -0.5309
 6655TIP3    H241381   0.326   6.415  17.018  0.2119  0.6319 -0.5506
 6656TIP3   OH241382   5.854   5.878   4.286  0.3111 -0.4562 -0.3311
 6656TIP3    H141383   5.769   5.865   4.326  0.7484  0.5859  0.9877
 6656TIP3    H241384   5.849   5.964   4.245  0.9140 -0.1286  0.2651
 6657TIP3   OH241385   5.864   6.165  10.760 -0.1824 -0.1009 -0.0764
 6657TIP3    H141386   5.838   6.148  10.669 -0.3125 -2.1633  0.2836
 6657TIP3    H241387   5.871   6.077  10.799  2.2335  0.6120  1.2631
 6658TIP3   OH241388   1.666   1.161   0.669 -0.6360 -0.1678 -0.6033
 6658TIP3    H141389   1.762   1.155   0.665 -0.4877  1.6663 -0.2986
 6658TIP3    H241390   1.648   1.204   0.752 -1.8732 -2.4848  0.4310
 6659TIP3   OH241391   5.004   5.087  11.964 -0.0912 -0.0151  0.5775
 6659TIP3    H141392   4.967   5.138  11.892  0.7311  1.4464  1.1417
 6659TIP3    H241393   4.972   5.130  12.043  0.3340 -0.6009  1.0841
 6660TIP3   OH241394   0.347   1.637   1.336 -0.3335 -0.3147 -0.5492
 6660TIP3    H141395   0.351   1.581   1.412  0.5069  0.6336  0.1343
 6660TIP3    H241396   0.352   1.726   1.371 -0.5628  0.1639 -1.6657
 6661TIP3   OH241397   0.259   6.766   4.652 -0.0656  0.6083 -0.0441
 6661TIP3    H141398   0.325   6.832   4.668 -1.7104  2.4999 -0.6035
 6661TIP3    H241399   0.211   6.798   4.576 -0.8202 -1.3455 -0.4591
 6662TIP3   OH241400   5.181   2.530   2.828  0.1372 -0.5765  0.4150
 6662TIP3    H141401   5.204   2.611   2.873 -1.0681 -0.5166  0.9604
 6662TIP3    H241402   5.212   2.461   2.885  0.6540 -0.4994  0.2278
 6663TIP3   OH241403   6.253   4.883   1.498 -0.1281 -0.4709 -0.1678
 6663TIP3    H141404   6.191   4.898   1.427 -0.4056  0.9784  0.3529
 6663TIP3    H241405   6.198   4.870   1.575  0.2071 -0.5189  0.0643
 6664TIP3   OH241406   2.362   4.378  11.517 -0.3738 -0.5781 -0.2503
 6664TIP3    H141407   2.326   4.347  11.601 -1.0074 -0.2170 -0.3819
 6664TIP3    H241408   2.370   4.473  11.528  2.7618 -0.8290  0.6144
 6665TIP3   OH241409   0.956   1.491   2.874 -0.3897  0.0937  0.3315
 6665TIP3    H141410   0.946   1.499   2.779 -0.8856  0.6479  0.4284
 6665TIP3    H241411   1.049   1.509   2.890 -0.2401 -0.2969 -0.0728
 6666TIP3   OH241412   3.109   2.913  12.722 -0.5200  0.0411  0.3691
 6666TIP3    H141413   3.071   2.971  12.656  0.8305  2.8523  1.9014
 6666TIP3    H241414   3.070   2.941  12.805 -0.3030 -1.7187  1.1160
 6667TIP3   OH241415   6.335   1.382  14.947  0.3501 -0.6064  0.0652
 6667TIP3    H141416   6.285   1.464  14.948  0.1992 -0.6774  1.9027
 6667TIP3    H241417   6.425   1.410  14.930  0.7115  0.2794  2.8990
 6668TIP3   OH241418   0.509   1.549   1.144 -0.3058  0.3596  0.5821
 6668TIP3    H141419   0.446   1.585   1.206 -1.1937 -1.0197  0.5365
 6668TIP3    H241420   0.474   1.462   1.122  1.1134 -0.0530 -0.1927
 6669TIP3   OH241421   6.528   3.180   6.705  0.0333  0.2990 -0.2248
 6669TIP3    H141422   6.514   3.102   6.758 -1.0651 -0.2165 -1.2272
 6669TIP3    H241423   6.600   3.226   6.748  0.5587 -1.1555  0.5017
 6670TIP3   OH241424   3.114   3.382   2.486 -0.6080 -0.0495 -0.9972
 6670TIP3    H141425   3.046   3.314   2.491  0.2444 -0.8904  2.9279
 6670TIP3    H241426   3.067   3.461   2.460 -2.6797 -1.0738 -0.5894
 6671TIP3   OH241427   4.508   1.060  13.061 -0.1079  0.5620 -0.3633
 6671TIP3    H141428   4.531   1.117  12.988  0.1832  1.1417  0.1730
 6671TIP3    H241429   4.435   1.103  13.105  1.4233  1.6350  1.2703
 6672TIP3   OH241430   0.095   4.510  13.458  0.0796  0.3987  0.2145
 6672TIP3    H141431   0.087   4.536  13.366  2.3197  1.2056  0.1720
 6672TIP3    H241432   0.010   4.530  13.497 -0.1454  2.3837 -1.1432
 6673TIP3   OH241433   2.036   3.972  11.274  0.0132  0.0238 -0.5516
 6673TIP3    H141434   1.981   3.973  11.196  0.7461  0.9738 -1.0765
 6673TIP3    H241435   2.117   4.015  11.247  1.3107 -1.9334  0.0018
 6674TIP3   OH241436   0.547   3.715   0.237 -0.3463 -0.3647 -0.0783
 6674TIP3    H141437   0.576   3.802   0.262  1.4283 -0.2241 -2.3155
 6674TIP3    H241438   0.576   3.658   0.309 -0.7630  0.7479  0.9929
 6675TIP3   OH241439   6.493   1.824   3.322 -0.0112  0.0443  0.8409
 6675TIP3    H141440   6.442   1.842   3.244  0.7886 -3.2682 -0.6191
 6675TIP3    H241441   6.583   1.811   3.291  0.2562 -1.7822  2.1386
 6676TIP3   OH241442   3.315   4.011   3.898  0.2203  0.5020 -0.4159
 6676TIP3    H141443   3.387   4.017   3.836  0.4452  0.4384 -0.1642
 6676TIP3    H241444   3.348   4.054   3.977  0.6217 -1.0219  0.2863
 6677TIP3   OH241445   5.616   2.497  15.619 -0.1009  0.0007 -0.6624
 6677TIP3    H141446   5.620   2.506  15.524  0.8844 -2.2791 -0.9154
 6677TIP3    H241447   5.694   2.447  15.642  0.1940  1.3245  1.5007
 6678TIP3   OH241448   0.013   1.057  13.092  0.5024  0.3084  0.0775
 6678TIP3    H141449  -0.015   0.966  13.101  0.8904  0.3361  2.0228
 6678TIP3    H241450  -0.004   1.079  13.000 -0.3202 -1.4723 -0.2300
 6679TIP3   OH241451   0.705   3.919  15.099  0.3575 -0.0646  1.2601
 6679TIP3    H141452   0.722   3.896  15.008  1.6954 -3.8880  2.2736
 6679TIP3    H241453   0.681   4.012  15.097  0.1844 -0.0270 -2.9322
 6680TIP3   OH241454   0.337   3.062  15.886 -0.4602  0.4839  0.3418
 6680TIP3    H141455   0.384   3.145  15.893 -0.7346  0.7587 -0.7956
 6680TIP3    H241456   0.310   3.057  15.794 -1.3837 -0.3586  0.6331
 6681TIP3   OH241457   6.453   2.021  11.287 -0.1651  0.6116  0.2073
 6681TIP3    H141458   6.368   2.032  11.245  0.6994  0.5843 -1.6377
 6681TIP3    H241459   6.505   1.971  11.225  0.9323 -0.2048  1.7031
 6682TIP3   OH241460   5.764   3.137  16.121 -0.3604 -0.3251 -0.0973
 6682TIP3    H141461   5.744   3.068  16.184  0.1085 -0.2372  0.1562
 6682TIP3    H241462   5.859   3.129  16.107 -0.0321  1.1914  1.0365
 6683TIP3   OH241463   4.815   1.977   2.817  0.8928 -0.1258  0.6135
 6683TIP3    H141464   4.863   1.894   2.810 -0.1615 -0.8263  1.2626
 6683TIP3    H241465   4.723   1.950   2.821  0.5553  1.0607  1.2352
 6684TIP3   OH241466   2.117   0.344   2.956  0.3674 -0.2344  0.2730
 6684TIP3    H141467   2.037   0.387   2.986  0.5880  0.4087 -0.0407
 6684TIP3    H241468   2.088   0.262   2.917 -0.1953  0.2518 -0.3485
 6685TIP3   OH241469   0.894   5.916  11.736  0.0917  0.9596  0.1608
 6685TIP3    H141470   0.835   5.865  11.681 -0.8853  0.6049  1.4727
 6685TIP3    H241471   0.914   5.995  11.685  0.0401  0.1838 -1.0860
 6686TIP3   OH241472   5.328   5.752   4.836  0.3865 -0.4585 -0.0447
 6686TIP3    H141473   5.257   5.814   4.819  0.9162 -0.0414 -0.8017
 6686TIP3    H241474   5.307   5.676   4.782  0.2162 -0.5655  0.1731
 6687TIP3   OH241475   5.878   0.946   5.271  0.2385  0.3371 -0.1466
 6687TIP3    H141476   5.839   0.866   5.306 -2.0348  1.7668  0.7761
 6687TIP3    H241477   5.866   0.940   5.177  0.3611 -0.5161 -0.1118
 6688TIP3   OH241478   2.578   2.765  10.671  0.1103 -0.1816 -0.0511
 6688TIP3    H141479   2.543   2.829  10.609  0.8250 -0.8680 -1.2062
 6688TIP3    H241480   2.670   2.786  10.679  0.1896 -0.5868  0.1549
 6689TIP3   OH241481   1.588   2.917   4.994 -0.3240 -0.2605 -0.5931
 6689TIP3    H141482   1.598   2.898   4.900  1.4899 -0.5482 -0.3762
 6689TIP3    H241483   1.498   2.893   5.013 -0.6046 -0.6223 -2.1739
 6690TIP3   OH241484   4.381   4.241  14.224  0.4100  0.0523  0.0213
 6690TIP3    H141485   4.368   4.208  14.313 -0.2955 -1.4564 -0.6139
 6690TIP3    H241486   4.353   4.333  14.228  1.4395  0.3196  1.5984
 6691TIP3   OH241487   6.566   3.650   6.698 -1.0145 -0.2395 -0.0844
 6691TIP3    H141488   6.579   3.581   6.632 -2.0540 -1.2250  0.6894
 6691TIP3    H241489   6.503   3.710   6.658 -2.4164 -1.3661  0.3347
 6692TIP3   OH241490   5.836   2.263  14.547 -0.3769 -0.3582 -0.0290
 6692TIP3    H141491   5.749   2.230  14.570 -0.3962  0.1943  0.7284
 6692TIP3    H241492   5.839   2.351  14.585  0.3829 -0.2391 -0.3504
 6693TIP3   OH241493   6.286   6.606   4.974 -0.2097 -0.1691  0.0091
 6693TIP3    H141494   6.370   6.578   5.009  0.8498  2.2518 -0.4011
 6693TIP3    H241495   6.278   6.697   5.001 -2.3985 -0.1314 -0.5725
 6694TIP3   OH241496   1.592   3.591  13.442 -0.3027 -0.5613  0.0989
 6694TIP3    H141497   1.640   3.627  13.517 -0.8069  0.1422  0.0998
 6694TIP3    H241498   1.659   3.558  13.383  0.1134 -0.8125  0.7134
 6695TIP3   OH241499   3.942   4.247  16.098 -0.2393  0.5898 -0.2597
 6695TIP3    H141500   3.868   4.295  16.062 -0.2369 -0.0513 -1.1644
 6695TIP3    H241501   4.019   4.296  16.070 -0.2808  0.6947 -0.1891
 6696TIP3   OH241502   4.049   5.488  11.987  0.1447 -0.0521 -0.1176
 6696TIP3    H141503   4.088   5.518  12.069  0.2827  1.0019 -0.5467
 6696TIP3    H241504   3.955   5.482  12.005  0.2418 -0.4296  0.2844
 6697TIP3   OH241505   4.801   0.308  11.368  0.1629 -0.3702  0.1318
 6697TIP3    H141506   4.822   0.305  11.275 -0.4435  2.6548 -0.2074
 6697TIP3    H241507   4.707   0.326  11.371  0.0495 -1.0584  1.3540
 6698TIP3   OH241508   3.711   3.519  13.461  0.3826  0.1574 -0.1908
 6698TIP3    H141509   3.642   3.577  13.494  2.1918  2.4902 -0.2089
 6698TIP3    H241510   3.744   3.474  13.539 -0.4912 -0.2396 -0.0414
 6699TIP3   OH241511   2.523   5.616  15.373  0.0886 -0.0003  0.0456
 6699TIP3    H141512   2.504   5.691  15.430 -0.4344 -0.8018  0.9689
 6699TIP3    H241513   2.609   5.636  15.335 -0.4799  1.5172 -0.5119
 6700TIP3   OH241514   6.271   3.937  11.236  0.5924  0.0244 -0.2619
 6700TIP3    H141515   6.307   3.852  11.261  3.6361  1.3289  0.3238
 6700TIP3    H241516   6.289   3.944  11.142  2.4391  0.8071  0.0894
 6701TIP3   OH241517   0.380   1.847  16.220 -0.5664  0.3135  0.4074
 6701TIP3    H141518   0.448   1.893  16.268 -0.2660  0.6518 -0.3382
 6701TIP3    H241519   0.375   1.761  16.263  0.8170  0.0187  0.0194
 6702TIP3   OH241520   4.683   1.516   1.439 -0.3007  0.0796  0.2497
 6702TIP3    H141521   4.622   1.573   1.392  1.9189  0.5738 -2.2662
 6702TIP3    H241522   4.750   1.575   1.473  0.4031 -0.7335  0.3053
 6703TIP3   OH241523   0.611   2.381   2.452 -0.2225 -0.4047 -0.2278
 6703TIP3    H141524   0.678   2.405   2.516  0.5660 -1.7814 -0.4839
 6703TIP3    H241525   0.531   2.372   2.503 -0.4547  2.1010 -0.0499
 6704TIP3   OH241526   0.861   1.239   6.001 -0.4055  0.0800  0.0621
 6704TIP3    H141527   0.920   1.307   6.033 -2.0154  1.9182 -0.6922
 6704TIP3    H241528   0.880   1.163   6.057  1.2250  1.2192  1.1528
 6705TIP3   OH241529   3.218   6.502  14.357 -0.3910  0.3130  0.3836
 6705TIP3    H141530   3.224   6.552  14.438  1.9492  0.1835  0.3571
 6705TIP3    H241531   3.302   6.456  14.351 -0.3090  0.6558 -2.3037
 6706TIP3   OH241532   3.744   0.751   5.079 -0.0180  0.4036  0.1553
 6706TIP3    H141533   3.723   0.686   5.012  0.8388 -0.9219  1.1333
 6706TIP3    H241534   3.836   0.738   5.098 -0.2106  0.8412  1.4979
 6707TIP3   OH241535   2.756   5.183   2.655 -0.5490 -0.5378 -0.5890
 6707TIP3    H141536   2.798   5.098   2.666  3.1590  0.8784 -2.2635
 6707TIP3    H241537   2.828   5.244   2.639 -2.9024  3.1575  1.3435
 6708TIP3   OH241538   4.829   3.414  11.611 -0.2951  0.5696  0.1694
 6708TIP3    H141539   4.766   3.401  11.541 -1.5537 -2.1721  1.6531
 6708TIP3    H241540   4.783   3.467  11.676 -0.2127  0.5733  0.2251
 6709TIP3   OH241541   1.385   3.361  12.050  0.1048 -0.3665 -0.6147
 6709TIP3    H141542   1.438   3.349  12.129  0.4249 -0.3573 -0.8302
 6709TIP3    H241543   1.296   3.371  12.084  0.4958  1.8094 -0.0993
 6710TIP3   OH241544   0.022   6.549  14.936  0.2725 -0.1622  0.1076
 6710TIP3    H141545  -0.008   6.618  14.877  2.0769  1.1868  0.6677
 6710TIP3    H241546   0.043   6.476  14.879  1.2553  0.8438 -0.8642
 6711TIP3   OH241547   2.930   2.911   2.258 -0.2845  0.4130 -0.7917
 6711TIP3    H141548   3.022   2.925   2.234  0.1301 -0.9764 -0.0830
 6711TIP3    H241549   2.923   2.817   2.270 -1.2167  0.7233  1.5391
 6712TIP3   OH241550   3.444   4.716  11.757  0.1670  0.7062 -0.4411
 6712TIP3    H141551   3.507   4.789  11.757 -0.9441  1.6834 -0.1689
 6712TIP3    H241552   3.416   4.709  11.666  1.4476 -0.4548 -0.7848
 6713TIP3   OH241553   4.836   6.485  10.454 -0.0401 -0.3647 -0.3920
 6713TIP3    H141554   4.825   6.578  10.477 -0.6083 -0.0494 -1.8430
 6713TIP3    H241555   4.914   6.483  10.400  0.7234 -0.9510  0.6963
 6714TIP3   OH241556   3.701   4.815  12.734 -0.0915 -0.0930  0.1234
 6714TIP3    H141557   3.647   4.884  12.773 -1.0315 -0.6450 -0.1640
 6714TIP3    H241558   3.692   4.741  12.794 -0.7881 -0.6385 -0.6397
 6715TIP3   OH241559   1.516   5.185  13.165  0.0743 -0.7082  0.2040
 6715TIP3    H141560   1.440   5.167  13.110  1.5315  0.8898 -2.6119
 6715TIP3    H241561   1.557   5.099  13.179 -1.3642 -1.3788  0.4199
 6716TIP3   OH241562   5.459   5.622  12.178 -0.0802 -0.1902  0.3494
 6716TIP3    H141563   5.549   5.601  12.154 -0.0740  0.0785  0.1408
 6716TIP3    H241564   5.414   5.537  12.174 -0.2146 -0.0824 -1.2064
 6717TIP3   OH241565   1.717   3.233   3.097  0.1205  0.6473 -0.2781
 6717TIP3    H141566   1.759   3.233   3.182  0.1700 -1.0735 -0.2660
 6717TIP3    H241567   1.648   3.299   3.104 -0.3937 -0.0314  1.3613
 6718TIP3   OH241568   2.719   5.887   3.870 -0.0295  0.6609 -0.4512
 6718TIP3    H141569   2.683   5.816   3.817  0.1105  0.9083 -0.8793
 6718TIP3    H241570   2.791   5.846   3.918 -0.3923  0.3471 -0.1640
 6719TIP3   OH241571   4.282   2.006  13.773  0.0769 -0.3525 -0.2996
 6719TIP3    H141572   4.340   1.950  13.824  0.0221  0.1018  0.2702
 6719TIP3    H241573   4.243   1.948  13.708  1.0770 -0.6817 -0.6100
 6720TIP3   OH241574   5.911   4.316  14.360 -0.2751  0.1395 -0.3833
 6720TIP3    H141575   5.830   4.365  14.370 -2.3761 -3.1660  0.5758
 6720TIP3    H241576   5.954   4.322  14.445  0.7930  2.2317 -1.0134
 6721TIP3   OH241577   1.958   1.542  15.792 -0.7161  0.6012 -0.4028
 6721TIP3    H141578   1.868   1.519  15.769 -0.8098 -2.0916  2.0005
 6721TIP3    H241579   2.011   1.482  15.740 -0.3266  1.4984 -1.0654
 6722TIP3   OH241580   4.656   0.137  13.783  0.1196 -0.2935  0.4761
 6722TIP3    H141581   4.665   0.089  13.865  2.7847  0.4701  0.7451
 6722TIP3    H241582   4.712   0.214  13.795 -1.3870  1.1434 -1.1684
 6723TIP3   OH241583   3.797   1.933  10.555  0.8662 -0.4982 -0.0423
 6723TIP3    H141584   3.839   1.849  10.539  1.3864 -0.6901  2.0295
 6723TIP3    H241585   3.704   1.918  10.539  1.2206 -0.7606 -2.1215
 6724TIP3   OH241586   1.475   4.657   0.121  0.0087 -0.1981 -0.1325
 6724TIP3    H141587   1.511   4.745   0.109  0.6252 -0.4257 -0.0064
 6724TIP3    H241588   1.551   4.599   0.115 -0.4720 -0.7759 -0.7919
 6725TIP3   OH241589   6.190   0.843  14.279 -0.1210  0.9738 -0.1981
 6725TIP3    H141590   6.170   0.903  14.207  0.4741  0.0329 -1.1809
 6725TIP3    H241591   6.206   0.759  14.236 -0.7061  0.1604  1.1323
 6726TIP3   OH241592   5.514   4.661   3.321 -0.0810 -0.0891 -0.0543
 6726TIP3    H141593   5.452   4.655   3.393 -0.2961 -1.3636 -0.3120
 6726TIP3    H241594   5.471   4.616   3.248  0.7838 -0.2354 -0.4967
 6727TIP3   OH241595   6.708   5.771  12.235 -0.2905 -0.5623 -0.2238
 6727TIP3    H141596   6.738   5.739  12.320 -2.7882  0.5000  1.1514
 6727TIP3    H241597   6.744   5.860  12.229 -0.1771 -0.6099 -0.2724
 6728TIP3   OH241598   3.820   1.230   3.947 -0.1631  0.1040  0.1921
 6728TIP3    H141599   3.787   1.254   4.034  0.3597 -0.7050  0.6230
 6728TIP3    H241600   3.762   1.276   3.886  0.3378  1.8411  0.9712
 6729TIP3   OH241601   3.084   3.901   5.366 -0.5556 -0.0541  0.0416
 6729TIP3    H141602   3.175   3.923   5.350 -0.7931  0.2416 -0.9553
 6729TIP3    H241603   3.064   3.831   5.305 -0.7853 -0.6746  0.8079
 6730TIP3   OH241604   0.122   4.681   4.420  0.4442  0.0261  0.2972
 6730TIP3    H141605   0.143   4.766   4.458  0.3764  0.5470 -0.7914
 6730TIP3    H241606   0.167   4.681   4.335 -0.4351 -0.5852 -0.1826
 6731TIP3   OH241607   5.133   0.211   1.622  0.3252  0.1354  0.0838
 6731TIP3    H141608   5.206   0.245   1.673 -1.0731 -0.3319  2.5291
 6731TIP3    H241609   5.117   0.124   1.659 -1.6308  0.3455 -0.1919
 6732TIP3   OH241610   5.461   2.117  12.940 -0.1219  0.1492  0.1633
 6732TIP3    H141611   5.383   2.163  12.908 -0.7725 -0.6828  0.5001
 6732TIP3    H241612   5.432   2.026  12.949  0.6949 -0.0439  0.9388
 6733TIP3   OH241613   5.629   0.825  16.446 -0.4031 -0.0473 -0.2713
 6733TIP3    H141614   5.675   0.863  16.371 -1.4728  2.0570  0.0518
 6733TIP3    H241615   5.689   0.835  16.519 -1.1292  2.3856  0.0825
 6734TIP3   OH241616   3.616   2.347  13.426 -0.4903  0.3255 -0.5295
 6734TIP3    H141617   3.545   2.284  13.421 -0.0962 -0.1210 -0.5279
 6734TIP3    H241618   3.646   2.357  13.336  1.0267 -1.3250 -0.2814
 6735TIP3   OH241619   1.308   4.675  12.348 -0.0308  0.4767 -0.1190
 6735TIP3    H141620   1.261   4.736  12.290  0.3215  0.6806 -0.1916
 6735TIP3    H241621   1.243   4.608  12.369 -0.4959  0.9956  0.1454
 6736TIP3   OH241622   5.481   0.473   1.801 -0.0080  0.1466  0.2316
 6736TIP3    H141623   5.442   0.556   1.774  2.2699  1.1874 -0.1909
 6736TIP3    H241624   5.495   0.483   1.895 -0.3095 -0.0204  0.2942
 6737TIP3   OH241625   1.053   4.402   2.084  0.0783  0.4120  0.4735
 6737TIP3    H141626   1.096   4.389   2.168 -0.8246  1.6760  1.1775
 6737TIP3    H241627   1.069   4.495   2.063 -1.3442  0.6248  0.2311
 6738TIP3   OH241628   3.768   0.689  15.688  0.5697  0.3081  0.0975
 6738TIP3    H141629   3.792   0.620  15.626 -1.5504 -1.0259  0.6739
 6738TIP3    H241630   3.729   0.758  15.635  0.2796 -0.0982 -0.2184
 6739TIP3   OH241631   6.344   2.548  15.365  0.3291  0.2983  0.3059
 6739TIP3    H141632   6.396   2.624  15.340  0.4382  0.2165  0.2880
 6739TIP3    H241633   6.258   2.585  15.386 -0.5545  0.1199 -2.5606
 6740TIP3   OH241634   0.279   5.192   3.998  0.1258 -0.3291 -0.4669
 6740TIP3    H141635   0.334   5.203   3.921 -0.2750 -0.0722 -0.7198
 6740TIP3    H241636   0.333   5.141   4.059  0.8039  0.2781 -0.5380
 6741TIP3   OH241637   0.116   2.751   0.982  0.4701 -0.5307 -0.3359
 6741TIP3    H141638   0.160   2.720   0.903  2.1186 -0.3431  0.4730
 6741TIP3    H241639   0.177   2.813   1.021 -0.5719 -0.1699  0.7826
 6742TIP3   OH241640   2.971   4.258   2.499  0.4717 -0.0088 -0.0463
 6742TIP3    H141641   2.889   4.303   2.518  1.0637  0.2963  2.0602
 6742TIP3    H241642   3.039   4.324   2.515  1.1464  0.1645 -3.1020
 6743TIP3   OH241643   5.569   1.690  16.437 -0.3502  0.3849  0.4286
 6743TIP3    H141644   5.492   1.689  16.495  0.2963  1.3958  1.3390
 6743TIP3    H241645   5.535   1.661  16.352 -1.2585 -1.4742  1.3668
 6744TIP3   OH241646   0.535   0.706   1.240  0.1546 -0.0370  0.0614
 6744TIP3    H141647   0.494   0.626   1.208  1.3113 -0.8220  0.4586
 6744TIP3    H241648   0.468   0.773   1.232 -1.2054 -1.2712  0.7143
 6745TIP3   OH241649   0.309   3.286   1.333  0.4655 -0.0653  0.2395
 6745TIP3    H141650   0.218   3.265   1.355  0.5791  0.9473  1.8987
 6745TIP3    H241651   0.324   3.372   1.374  1.4434  0.9775 -2.1114
 6746TIP3   OH241652   1.906   0.488  12.840  0.1098  0.5216 -0.0719
 6746TIP3    H141653   1.908   0.399  12.803  0.6823  1.0402 -1.3429
 6746TIP3    H241654   1.959   0.540  12.779 -1.7391  2.1233 -0.3896
 6747TIP3   OH241655   3.708   0.072   6.086 -0.6412  0.3094 -0.6383
 6747TIP3    H141656   3.725  -0.022   6.093  0.5054  0.4354 -1.4577
 6747TIP3    H241657   3.616   0.078   6.061 -0.2199 -0.7030 -2.6619
 6748TIP3   OH241658   1.151   2.785   3.056 -0.0422  0.2310 -0.3651
 6748TIP3    H141659   1.149   2.863   3.112  1.0792  0.6649 -0.8931
 6748TIP3    H241660   1.070   2.789   3.005 -0.7456  0.2001  0.7148
 6749TIP3   OH241661   5.076   4.457   1.981  0.0932  0.4479 -0.4970
 6749TIP3    H141662   5.069   4.394   1.909 -2.4084 -1.0006  0.8440
 6749TIP3    H241663   4.998   4.512   1.973  1.2974  2.2255 -0.5515
 6750TIP3   OH241664   6.339   1.887  14.293  0.4542 -0.3384  0.0798
 6750TIP3    H141665   6.341   1.858  14.384 -1.6607 -0.6850  0.0582
 6750TIP3    H241666   6.263   1.945  14.287  0.9961  0.2868 -1.3135
 6751TIP3   OH241667   1.477   3.851  12.714  0.2916 -0.0823 -0.5080
 6751TIP3    H141668   1.548   3.808  12.666 -0.3989  0.4213 -2.0556
 6751TIP3    H241669   1.474   3.939  12.678 -0.1024  0.4060  0.6703
 6752TIP3   OH241670   1.666   4.807   0.376 -0.2672 -0.0780 -0.1504
 6752TIP3    H141671   1.747   4.766   0.345 -0.0408 -0.1314  0.4895
 6752TIP3    H241672   1.637   4.861   0.303 -0.2336 -0.8954 -0.7766
 6753TIP3   OH241673   1.083   3.520  16.677 -0.1649  0.0258 -0.0745
 6753TIP3    H141674   1.043   3.434  16.667  1.3157 -0.5066 -1.7806
 6753TIP3    H241675   1.010   3.577  16.705 -1.4291 -1.4920 -0.1613
 6754TIP3   OH241676   0.414   3.652   1.016  0.5328 -0.4958 -0.3762
 6754TIP3    H141677   0.423   3.695   0.931  1.6867  1.1838  0.5392
 6754TIP3    H241678   0.319   3.642   1.028  0.2784  0.7942 -1.1320
 6755TIP3   OH241679   6.482   3.741   0.375 -0.3002  0.3621 -0.0772
 6755TIP3    H141680   6.562   3.792   0.361 -0.1187  0.2688  0.5951
 6755TIP3    H241681   6.424   3.769   0.304 -0.0406  1.1785  0.0200
 6756TIP3   OH241682   5.533   4.227  12.426 -0.1891  0.2401 -0.3772
 6756TIP3    H141683   5.517   4.315  12.393 -0.5707  0.0128 -0.8211
 6756TIP3    H241684   5.613   4.234  12.477 -0.2285  0.8467 -0.3960
 6757TIP3   OH241685   4.305   2.214   0.387  0.1468  0.0522  0.4106
 6757TIP3    H141686   4.257   2.290   0.353 -3.1710 -2.1264 -0.2671
 6757TIP3    H241687   4.350   2.179   0.311 -0.0046  0.1838  0.2579
 6758TIP3   OH241688   5.672   5.695  14.689 -0.0392 -0.1839 -0.1103
 6758TIP3    H141689   5.683   5.635  14.616 -0.8150  0.3891 -0.7186
 6758TIP3    H241690   5.761   5.728  14.706  0.0968  0.0014 -1.0816
 6759TIP3   OH241691   1.474   6.322   0.578 -0.3717  0.3832 -0.4065
 6759TIP3    H141692   1.546   6.262   0.597 -0.9798 -0.2512 -0.0160
 6759TIP3    H241693   1.404   6.294   0.637 -0.8671  1.1148 -0.6329
 6760TIP3   OH241694   4.408   3.499  11.576 -0.4750 -0.2522 -0.1032
 6760TIP3    H141695   4.454   3.518  11.494  2.4510 -0.2035  1.4147
 6760TIP3    H241696   4.354   3.577  11.591  0.0832  0.3818 -1.2437
 6761TIP3   OH241697   3.740   1.011   0.623  0.3192 -0.6351  0.4752
 6761TIP3    H141698   3.824   0.978   0.590  0.6210 -0.6148  1.2083
 6761TIP3    H241699   3.711   1.072   0.556 -0.3438 -2.4938 -1.0398
 6762TIP3   OH241700   3.975   1.323   3.443  0.0013  0.4559  0.0743
 6762TIP3    H141701   4.033   1.400   3.448 -1.0191  1.1849  1.7778
 6762TIP3    H241702   3.897   1.355   3.398 -1.3478  1.1569  2.6825
 6763TIP3   OH241703   4.121   1.026  14.624 -0.2070  0.1020  0.4938
 6763TIP3    H141704   4.037   1.031  14.668 -0.4327 -2.3346  0.4871
 6763TIP3    H241705   4.150   1.117  14.616 -3.2658  1.1079 -0.3909
 6764TIP3   OH241706   0.587   4.229   0.872  0.0080  0.1832  0.7302
 6764TIP3    H141707   0.622   4.272   0.950  0.7345 -2.0382  1.7079
 6764TIP3    H241708   0.517   4.173   0.906 -0.5910  0.2038 -0.4327
 6765TIP3   OH241709   1.629   6.509  14.014  0.5777 -0.2347 -0.0258
 6765TIP3    H141710   1.710   6.464  14.036  0.3931  0.1456  1.5912
 6765TIP3    H241711   1.560   6.445  14.033  0.3775  0.3159  1.2112
 6766TIP3   OH241712   4.223   4.240   3.447  0.1624  0.2442  0.7086
 6766TIP3    H141713   4.317   4.248   3.459  0.5910 -0.7190 -1.5136
 6766TIP3    H241714   4.199   4.315   3.392 -0.2871  0.2042  0.8434
 6767TIP3   OH241715   3.657   2.424   5.442 -0.5764  0.2267 -0.7020
 6767TIP3    H141716   3.694   2.444   5.528 -0.6714  0.9127 -0.8165
 6767TIP3    H241717   3.727   2.380   5.395 -0.3234  0.3949 -0.4847
 6768TIP3   OH241718   4.404   3.236  14.031 -0.1535  0.3953  0.1805
 6768TIP3    H141719   4.417   3.271  14.119 -0.9269  0.9033  0.1026
 6768TIP3    H241720   4.466   3.163  14.025  0.7886  1.1348  0.6930
 6769TIP3   OH241721   1.245   6.439   3.128  0.5241 -0.1287 -0.2656
 6769TIP3    H141722   1.201   6.466   3.208 -1.4766 -0.0018 -1.3478
 6769TIP3    H241723   1.299   6.364   3.154  1.3749  1.0303  1.5314
 6770TIP3   OH241724   3.769   5.598   0.067 -0.5878 -0.1694 -0.2122
 6770TIP3    H141725   3.781   5.537   0.140  0.6415 -0.8641 -0.9514
 6770TIP3    H241726   3.682   5.634   0.080 -0.5811 -0.6252  1.3371
 6771TIP3   OH241727   1.310   1.173  17.072  0.3067 -0.3527 -0.3041
 6771TIP3    H141728   1.326   1.179  17.166 -1.8479 -0.6896  0.1365
 6771TIP3    H241729   1.360   1.097  17.044 -1.2833 -2.0563  1.1899
 6772TIP3   OH241730   4.528   6.333  14.138  0.1222  0.1885  0.1622
 6772TIP3    H141731   4.456   6.296  14.190 -0.7975  1.4343 -0.1675
 6772TIP3    H241732   4.485   6.392  14.077  1.2419 -0.6806 -1.5629
 6773TIP3   OH241733   0.850   6.616  15.650 -0.3189 -0.0946 -0.4422
 6773TIP3    H141734   0.828   6.528  15.683  0.8960 -0.1005  0.3936
 6773TIP3    H241735   0.793   6.674  15.701  0.9733 -0.1727  1.1938
 6774TIP3   OH241736   0.234   0.196  17.124  0.1216  0.8157  0.9076
 6774TIP3    H141737   0.213   0.287  17.100  3.2213  1.9241  1.9092
 6774TIP3    H241738   0.277   0.204  17.209  0.2686 -1.6680  1.1284
 6775TIP3   OH241739   1.994   2.624   0.740 -0.3568 -0.0721  0.3021
 6775TIP3    H141740   1.923   2.686   0.723 -0.4675 -0.1909  0.3336
 6775TIP3    H241741   1.961   2.567   0.809  0.5721  1.2398  1.9264
 6776TIP3   OH241742   0.055   4.840   2.622 -0.1422 -0.3841 -0.0650
 6776TIP3    H141743  -0.035   4.812   2.639  0.1743 -1.2984  0.1717
 6776TIP3    H241744   0.097   4.840   2.708 -0.1774  1.0728 -0.0172
 6777TIP3   OH241745   3.672   6.496   2.964 -0.1726 -0.2364 -0.0317
 6777TIP3    H141746   3.633   6.581   2.945  2.6979  1.2229  0.1047
 6777TIP3    H241747   3.700   6.503   3.056  2.6168 -0.1449 -0.7960
 6778TIP3   OH241748   5.232   5.644   4.456  0.0643  0.1923  0.3389
 6778TIP3    H141749   5.196   5.657   4.368  1.4092 -1.0231 -0.4450
 6778TIP3    H241750   5.315   5.690   4.455  0.0076  0.3182  1.0456
 6779TIP3   OH241751   6.724   0.688  12.292  0.9689 -0.0434  0.1084
 6779TIP3    H141752   6.807   0.672  12.246  1.1388  1.6944 -0.2358
 6779TIP3    H241753   6.692   0.771  12.256 -0.1015  0.1504  1.4339
 6780TIP3   OH241754   4.112   0.907   3.441 -0.7340 -0.0152  0.0792
 6780TIP3    H141755   4.164   0.964   3.498  0.0170  1.0384 -1.5747
 6780TIP3    H241756   4.173   0.840   3.412 -1.3040 -0.9797  1.0532
 6781TIP3   OH241757   1.057   4.095  14.078 -0.2030  0.3079 -0.2250
 6781TIP3    H141758   1.095   4.077  13.992 -0.6693 -0.0088 -0.3652
 6781TIP3    H241759   1.123   4.064  14.140 -0.4401 -0.7150 -0.4653
 6782TIP3   OH241760   1.264   4.222  16.555  0.1560  0.1390 -0.2207
 6782TIP3    H141761   1.227   4.283  16.491  2.2414 -0.2325 -1.8781
 6782TIP3    H241762   1.234   4.136  16.527  2.3209 -0.1961 -1.7466
 6783TIP3   OH241763   3.903   5.440  12.736  0.1925  0.1837  0.5339
 6783TIP3    H141764   3.958   5.377  12.689  0.9486  1.6723 -0.6965
 6783TIP3    H241765   3.835   5.464  12.672 -0.8138 -0.2436  1.4051
 6784TIP3   OH241766   4.711   3.788   2.591  0.5366 -0.5676  0.2601
 6784TIP3    H141767   4.740   3.704   2.625  1.4405 -1.5892 -2.6867
 6784TIP3    H241768   4.786   3.820   2.539 -1.4590 -0.4906 -2.8478
 6785TIP3   OH241769   6.003   6.749  11.068  0.2367  0.1575 -0.2747
 6785TIP3    H141770   6.004   6.706  11.153 -1.2423  0.3765 -0.1241
 6785TIP3    H241771   6.030   6.681  11.006 -0.3416 -0.4951  0.1718
 6786TIP3   OH241772   3.848   5.599  10.561 -0.4041 -0.2882 -0.4103
 6786TIP3    H141773   3.890   5.585  10.646 -2.3907 -1.8264  0.3875
 6786TIP3    H241774   3.756   5.613  10.581 -0.5855  1.6184 -2.2008
 6787TIP3   OH241775   4.739   1.575   0.342 -0.1155  0.4238  0.5691
 6787TIP3    H141776   4.697   1.660   0.334  0.4118  0.6719  0.3342
 6787TIP3    H241777   4.671   1.512   0.319  0.5283  0.9538 -3.4637
 6788TIP3   OH241778   5.972   2.668   1.980  0.9485  0.8806 -0.4602
 6788TIP3    H141779   5.879   2.677   1.959  0.3360 -2.0140  0.5907
 6788TIP3    H241780   5.992   2.743   2.036 -1.3293  0.4692  1.0151
 6789TIP3   OH241781   4.281   3.245  14.805 -0.1880 -0.3418  0.3998
 6789TIP3    H141782   4.287   3.195  14.724 -0.3972  0.7058 -0.2841
 6789TIP3    H241783   4.321   3.189  14.871  0.5391 -0.9610 -0.5435
 6790TIP3   OH241784   4.910   6.644  13.721 -0.3185  0.0345  0.4389
 6790TIP3    H141785   4.974   6.572  13.725 -1.4565 -0.9812  1.2133
 6790TIP3    H241786   4.853   6.620  13.649 -0.4057  0.4230  0.3816
 6791TIP3   OH241787   3.945   0.297  10.640  0.1143 -0.3262 -0.1561
 6791TIP3    H141788   3.960   0.373  10.584  1.7553 -2.4526 -2.9152
 6791TIP3    H241789   4.028   0.282  10.684  0.1247 -1.0156 -0.3885
 6792TIP3   OH241790   6.505   1.935  15.889 -0.0944  0.2752 -0.4120
 6792TIP3    H141791   6.477   1.856  15.843 -3.3528  0.4775  0.9294
 6792TIP3    H241792   6.428   1.962  15.940  1.6001  3.0508  0.9571
 6793TIP3   OH241793   4.227   4.558   2.680 -0.4176 -0.7193  0.0415
 6793TIP3    H141794   4.317   4.590   2.680  0.4451 -2.8033  1.9359
 6793TIP3    H241795   4.176   4.630   2.718  0.8321 -0.2483  0.9218
 6794TIP3   OH241796   6.105   1.096  14.172 -0.3235  0.1479 -0.1433
 6794TIP3    H141797   6.069   1.182  14.149  2.2061  1.0990 -0.9261
 6794TIP3    H241798   6.156   1.112  14.251 -0.0757 -0.7071 -0.1192
 6795TIP3   OH241799   1.442   1.868   2.763  0.3523  0.5430 -0.1751
 6795TIP3    H141800   1.422   1.941   2.705  0.8888  0.5658 -0.3387
 6795TIP3    H241801   1.407   1.894   2.848 -2.1029 -0.2598 -0.8507
 6796TIP3   OH241802   5.197   2.141   4.190  0.3760  0.2611 -0.4219
 6796TIP3    H141803   5.208   2.107   4.279 -1.8357  0.1356 -0.1578
 6796TIP3    H241804   5.263   2.210   4.183  1.3683 -0.5128  0.8914
 6797TIP3   OH241805   3.106   3.633  12.957  0.5375 -0.2126 -0.3446
 6797TIP3    H141806   3.104   3.585  12.874  0.7831  0.1884 -0.5880
 6797TIP3    H241807   3.137   3.569  13.021 -1.2906 -1.0270 -0.2064
 6798TIP3   OH241808   2.800   3.775   2.865  0.0285  0.4039 -0.2090
 6798TIP3    H141809   2.809   3.865   2.834  1.5505  0.3996  0.1639
 6798TIP3    H241810   2.878   3.730   2.832 -1.0266 -0.9756 -0.9798
 6799TIP3   OH241811   6.431   0.031   4.825  0.2339 -0.2020 -0.0052
 6799TIP3    H141812   6.463   0.086   4.753 -0.2834  1.4592  0.9872
 6799TIP3    H241813   6.492  -0.043   4.827  2.4587  1.5084  0.1135
 6800TIP3   OH241814   3.684   0.989   5.961  0.2265 -0.0553 -0.1511
 6800TIP3    H141815   3.604   1.029   5.994 -0.3273 -1.8265  0.7561
 6800TIP3    H241816   3.695   1.026   5.873 -1.3765  0.4670 -0.1624
 6801TIP3   OH241817   6.403   0.490  17.006 -0.4945  0.1468  0.8463
 6801TIP3    H141818   6.449   0.503  16.922 -0.5525 -0.1624  0.7663
 6801TIP3    H241819   6.428   0.566  17.058 -2.9900  2.0759 -0.5588
 6802TIP3   OH241820   5.944   2.347   0.948  0.1136  0.1911  0.0323
 6802TIP3    H141821   6.007   2.414   0.975  0.3572  0.6200 -1.5081
 6802TIP3    H241822   5.860   2.392   0.945  0.2822  0.4562 -1.0302
 6803TIP3   OH241823   1.534   2.347   5.919  0.3012  0.7056 -0.2820
 6803TIP3    H141824   1.443   2.325   5.940  0.7756 -0.1324  1.0643
 6803TIP3    H241825   1.542   2.440   5.942 -0.0096  0.5659  0.4390
 6804TIP3   OH241826   2.709   1.643   1.651  0.0422  0.2098  0.2740
 6804TIP3    H141827   2.626   1.688   1.641  0.6689  1.7073  1.4812
 6804TIP3    H241828   2.753   1.687   1.723  2.6327  0.6267 -1.3873
 6805TIP3   OH241829   1.217   0.095  13.546  0.0553 -0.3474  0.0942
 6805TIP3    H141830   1.203   0.007  13.511  1.2032 -0.3502 -0.4183
 6805TIP3    H241831   1.143   0.146  13.513 -0.4608 -1.0464  0.1482
 6806TIP3   OH241832   0.095   6.028   2.649  0.1258 -0.4457 -0.4735
 6806TIP3    H141833   0.151   6.027   2.571 -0.5129 -1.5338 -0.9405
 6806TIP3    H241834   0.119   6.109   2.695  2.3291 -1.0343 -0.4643
 6807TIP3   OH241835   6.020   5.249   3.348  0.1375  0.0755 -0.9973
 6807TIP3    H141836   5.964   5.311   3.396  0.2562 -0.5248 -0.0587
 6807TIP3    H241837   6.089   5.304   3.311  0.5218  0.4795  0.2367
 6808TIP3   OH241838   6.156   0.933  16.016  0.2870 -0.6848 -0.5328
 6808TIP3    H141839   6.180   0.879  16.091 -0.3071 -2.3823 -1.4917
 6808TIP3    H241840   6.218   0.907  15.947 -0.7475 -1.0419 -1.3649
 6809TIP3   OH241841   4.688   5.033   3.299 -0.8457  0.1182  0.0429
 6809TIP3    H141842   4.755   5.057   3.236 -1.2780 -1.2454 -0.9811
 6809TIP3    H241843   4.641   5.115   3.316  1.1040  1.1373  0.8927
 6810TIP3   OH241844   0.459   0.217   5.419  0.1242  0.5915  0.2871
 6810TIP3    H141845   0.484   0.309   5.431  3.1510 -0.3200  2.0741
 6810TIP3    H241846   0.520   0.185   5.353 -0.9920 -0.1603 -0.4119
 6811TIP3   OH241847   2.137   1.272  12.874 -0.1199  0.5502  0.3313
 6811TIP3    H141848   2.224   1.240  12.851 -0.2570  0.3703  0.0636
 6811TIP3    H241849   2.135   1.267  12.970 -0.2076 -0.4320  0.2866
 6812TIP3   OH241850   2.561   2.439  16.863 -0.1373  0.2306  0.4630
 6812TIP3    H141851   2.522   2.524  16.843  0.4271  0.0923 -1.4883
 6812TIP3    H241852   2.648   2.460  16.897  0.2664  0.4632 -0.6525
 6813TIP3   OH241853   5.637   0.565  15.496  0.2994 -0.3630 -0.5441
 6813TIP3    H141854   5.662   0.642  15.547  1.6784 -1.2038  0.1385
 6813TIP3    H241855   5.647   0.492  15.557 -0.5841 -1.1262 -1.2878
 6814TIP3   OH241856   6.700   4.495   4.377  0.2431 -0.1998 -0.1676
 6814TIP3    H141857   6.634   4.526   4.315 -0.4035 -1.6060 -0.2286
 6814TIP3    H241858   6.753   4.572   4.397 -1.1579  0.8742 -0.4480
 6815TIP3   OH241859   6.612   5.562   3.886 -0.5550  0.3451 -0.3585
 6815TIP3    H141860   6.627   5.498   3.956  1.5633  0.2381 -0.8461
 6815TIP3    H241861   6.592   5.508   3.809 -0.1226  0.3207 -0.4568
 6816TIP3   OH241862   0.821   2.430   5.444 -0.2736  0.0324 -0.5400
 6816TIP3    H141863   0.839   2.429   5.350 -0.0709  1.4517 -0.5508
 6816TIP3    H241864   0.907   2.418   5.484 -0.3712 -0.6514 -0.5327
 6817TIP3   OH241865   5.658   0.713  12.494  0.0280  0.1031  0.2770
 6817TIP3    H141866   5.703   0.774  12.436 -1.7876  1.6169  0.3437
 6817TIP3    H241867   5.723   0.690  12.561  1.3635  0.3328 -0.9172
 6818TIP3   OH241868   1.583   0.452  12.172  0.2094 -0.1950 -0.0185
 6818TIP3    H141869   1.517   0.403  12.124 -0.1790  0.1977  0.1058
 6818TIP3    H241870   1.536   0.527  12.208  1.2655  1.6519 -2.2642
 6819TIP3   OH241871   6.734   3.114  12.695  0.5855 -0.3291  0.0504
 6819TIP3    H141872   6.725   3.133  12.601  1.8193  0.5677  0.0904
 6819TIP3    H241873   6.667   3.168  12.736 -0.0512 -0.8235 -0.3039
 6820TIP3   OH241874   4.966   0.168   5.938  0.6722  0.5873 -0.2526
 6820TIP3    H141875   4.996   0.173   6.029 -0.5813 -0.0056  0.2110
 6820TIP3    H241876   4.913   0.247   5.926 -0.0767  0.1012 -0.1266
 6821TIP3   OH241877   4.256   4.486   1.258  0.2078 -0.0669 -0.2438
 6821TIP3    H141878   4.208   4.510   1.178 -0.7419 -2.1404 -0.3690
 6821TIP3    H241879   4.299   4.566   1.285  0.3026  0.7816 -2.6741
 6822TIP3   OH241880   4.352   0.911  13.618 -0.0818  0.3091  0.3102
 6822TIP3    H141881   4.333   0.938  13.529  0.7928 -0.8458 -0.2584
 6822TIP3    H241882   4.435   0.952  13.639  1.1200 -1.5866 -0.4628
 6823TIP3   OH241883   4.829   3.167  13.580  0.5306  0.5985  0.0076
 6823TIP3    H141884   4.807   3.193  13.490  0.2184  1.7071  0.3907
 6823TIP3    H241885   4.921   3.140  13.575  0.3105 -0.0324 -0.7820
 6824TIP3   OH241886   4.095   3.645   1.797 -0.2556  0.0386 -0.1855
 6824TIP3    H141887   4.098   3.553   1.770 -0.7464 -0.0986  0.2224
 6824TIP3    H241888   4.020   3.651   1.856 -0.8174  0.9098 -0.9640
 6825TIP3   OH241889   1.623   5.380   2.741  0.5527  0.2788  0.1329
 6825TIP3    H141890   1.670   5.462   2.728  0.1205  0.5252  0.1083
 6825TIP3    H241891   1.532   5.406   2.756  0.1493 -0.2414 -1.2234
 6826TIP3   OH241892   0.881   5.682   4.050 -0.5238 -0.6690  0.1966
 6826TIP3    H141893   0.810   5.744   4.036 -0.2076 -0.4247 -0.3826
 6826TIP3    H241894   0.951   5.735   4.089 -0.3497 -0.7166 -0.0494
 6827TIP3   OH241895   4.860   2.741   5.412 -0.7096 -0.3475 -0.0871
 6827TIP3    H141896   4.810   2.794   5.349  2.0923  1.7010 -0.7927
 6827TIP3    H241897   4.848   2.787   5.495  1.3167  1.3072 -0.6074
 6828TIP3   OH241898   0.026   1.892   3.543  0.5613  0.5097  0.4405
 6828TIP3    H141899  -0.004   1.840   3.617  2.0623 -1.6187 -0.3773
 6828TIP3    H241900  -0.018   1.854   3.467 -0.2506  2.0802  0.0696
 6829TIP3   OH241901   2.154   2.224  16.615  0.4809 -0.0296  0.4726
 6829TIP3    H141902   2.193   2.309  16.599 -0.2326  0.3872  0.8813
 6829TIP3    H241903   2.226   2.169  16.646  1.2321  0.0251 -1.0903
 6830TIP3   OH241904   4.849   4.908   3.507  0.7429  0.9397 -0.3708
 6830TIP3    H141905   4.813   4.820   3.510  0.6587  0.9533 -0.8796
 6830TIP3    H241906   4.810   4.947   3.429  0.1486  1.7086  0.2979
 6831TIP3   OH241907   4.382   6.259   2.360  0.0752  0.2620  0.0280
 6831TIP3    H141908   4.434   6.338   2.349  2.2700 -1.0683  0.1056
 6831TIP3    H241909   4.339   6.270   2.445  0.2917  1.3849  0.0071
 6832TIP3   OH241910   4.853   2.511  12.302  0.5429 -0.2700  0.2688
 6832TIP3    H141911   4.931   2.554  12.267 -0.6026  0.7408 -1.1546
 6832TIP3    H241912   4.805   2.580  12.346 -1.2826  0.0197 -1.9757
 6833TIP3   OH241913   2.402   3.082   0.551 -0.0918  0.1907 -0.1783
 6833TIP3    H141914   2.390   3.085   0.646  1.0278 -0.7352  0.0189
 6833TIP3    H241915   2.326   3.033   0.519 -0.6024  0.7158  0.1971
 6834TIP3   OH241916   2.894   0.980  16.100 -0.4731  0.3470 -0.2386
 6834TIP3    H141917   2.899   0.891  16.066  0.7149  0.0180  0.7163
 6834TIP3    H241918   2.949   0.979  16.179 -1.0405  1.7314  0.2129
 6835TIP3   OH241919   3.751   0.376   4.209 -0.2868 -0.1791  0.8211
 6835TIP3    H141920   3.798   0.444   4.160 -1.4150 -0.2791 -0.4704
 6835TIP3    H241921   3.669   0.365   4.161 -0.2012 -2.3590  1.0823
 6836TIP3   OH241922   6.743   0.694  12.672 -0.1800  0.4071  0.4190
 6836TIP3    H141923   6.674   0.735  12.621  0.9239  2.2254  0.3119
 6836TIP3    H241924   6.698   0.629  12.726 -1.6282 -0.0968 -1.3308
 6837TIP3   OH241925   0.670   6.549  16.042  0.3815 -0.4044 -0.5258
 6837TIP3    H141926   0.643   6.472  16.092 -0.5187  0.0782 -0.2476
 6837TIP3    H241927   0.595   6.607  16.045  0.8059  0.2070 -1.3108
 6838TIP3   OH241928   1.884   3.327   0.927  0.4174  0.0874  0.1453
 6838TIP3    H141929   1.878   3.421   0.943  1.1018  0.4584 -1.5529
 6838TIP3    H241930   1.931   3.292   1.003 -0.9219  0.8924  1.3927
 6839TIP3   OH241931   1.083   4.664  14.939 -0.2200  0.3566  0.2505
 6839TIP3    H141932   1.127   4.581  14.955 -0.7008  0.2094  0.8539
 6839TIP3    H241933   0.991   4.640  14.927 -0.2258  0.7062 -0.5209
 6840TIP3   OH241934   1.252   4.432  16.371 -0.2474 -0.2867  0.4017
 6840TIP3    H141935   1.262   4.388  16.287 -0.7576 -0.4217  0.4070
 6840TIP3    H241936   1.305   4.511  16.363 -1.1826  0.2738 -0.4671
 6841TIP3   OH241937   5.960   5.748  12.589  0.2266  0.0365 -0.4980
 6841TIP3    H141938   5.916   5.688  12.649  1.0380  0.8189  0.9459
 6841TIP3    H241939   6.040   5.701  12.564 -0.7266 -0.8411 -2.0859
 6842TIP3   OH241940   3.484   4.530   4.614  0.6160  0.2300  0.0733
 6842TIP3    H141941   3.455   4.596   4.677 -0.1638  0.7653 -0.8185
 6842TIP3    H241942   3.505   4.454   4.667 -0.5802  0.4748  0.9493
 6843TIP3   OH241943   1.747   4.812  12.577 -0.2538 -0.1472  0.6821
 6843TIP3    H141944   1.664   4.796  12.532 -0.2243  1.2055  0.0942
 6843TIP3    H241945   1.787   4.725  12.586  0.6102 -0.4333 -3.6482
 6844TIP3   OH241946   4.604   5.685  16.505 -0.1941 -0.3599 -0.4910
 6844TIP3    H141947   4.647   5.620  16.561 -2.1007 -1.2041  0.0899
 6844TIP3    H241948   4.666   5.700  16.433  2.1175  0.3749  1.5152
 6845TIP3   OH241949   1.531   5.624  16.636  0.0129 -0.4208 -0.0822
 6845TIP3    H141950   1.452   5.657  16.679  0.0672  1.5099 -1.3333
 6845TIP3    H241951   1.501   5.596  16.549  0.9702  2.4429 -1.4388
 6846TIP3   OH241952   1.491   4.121   3.013 -0.7127  0.0495  0.3299
 6846TIP3    H141953   1.427   4.143   2.945 -0.4024  0.4502  0.1656
 6846TIP3    H241954   1.572   4.103   2.965 -0.5450  0.1284  0.5829
 6847TIP3   OH241955   0.886   2.550  15.155 -0.0780 -0.7310 -0.0124
 6847TIP3    H141956   0.874   2.565  15.249  1.7132 -1.7615  0.4297
 6847TIP3    H241957   0.799   2.527  15.123 -0.9208  0.6038  1.1793
 6848TIP3   OH241958   1.039   1.036  12.285  0.0446  0.2197 -0.9870
 6848TIP3    H141959   1.070   1.114  12.331 -0.0679  0.5512 -1.4594
 6848TIP3    H241960   0.948   1.026  12.313  0.9154 -1.5814  1.5068
 6849TIP3   OH241961   0.513   0.079  15.595 -0.2621 -0.4331 -0.1986
 6849TIP3    H141962   0.538   0.057  15.505  1.0764 -0.0141  0.0523
 6849TIP3    H241963   0.511   0.174  15.598 -2.7471 -0.4135 -0.3953
 6850TIP3   OH241964   2.473   5.383  15.516 -0.2499 -0.4727 -0.4581
 6850TIP3    H141965   2.492   5.465  15.471  0.5454 -1.8242 -2.7126
 6850TIP3    H241966   2.550   5.328  15.501 -0.0049 -1.1174  2.4471
 6851TIP3   OH241967   4.257   6.625   5.629 -0.0285 -0.0144  0.1713
 6851TIP3    H141968   4.309   6.590   5.556  0.4842  0.7284  0.1680
 6851TIP3    H241969   4.216   6.548   5.668  3.0914 -1.0435  1.7606
 6852TIP3   OH241970   0.527   1.044  12.882  0.6279  0.3052 -0.5822
 6852TIP3    H141971   0.502   1.102  12.955 -0.0952 -1.2221  0.4505
 6852TIP3    H241972   0.447   1.035  12.831  0.6944  0.0980 -0.6474
 6853TIP3   OH241973   6.098   0.481   0.788  0.8544  0.3642 -0.4518
 6853TIP3    H141974   6.047   0.404   0.812  1.8431 -0.2892 -0.3505
 6853TIP3    H241975   6.081   0.544   0.858  3.0584 -1.2222  1.6784
 6854TIP3   OH241976   0.836   2.266  16.976 -0.0667  0.3828  0.1834
 6854TIP3    H141977   0.742   2.283  16.978  0.0337  0.9879  2.0569
 6854TIP3    H241978   0.854   2.224  17.060  0.6127 -4.1475 -1.8993
 6855TIP3   OH241979   5.899   5.430   3.763 -0.6105  0.5250  0.0471
 6855TIP3    H141980   5.923   5.445   3.855  0.6157 -0.0339 -0.1612
 6855TIP3    H241981   5.888   5.335   3.757 -0.0414  0.4881 -0.5185
 6856TIP3   OH241982   6.613   2.328   1.649  0.8788 -0.2448  0.3814
 6856TIP3    H141983   6.630   2.267   1.578 -0.1569  0.6544 -0.6892
 6856TIP3    H241984   6.579   2.274   1.720  0.1252 -0.9395 -0.4869
 6857TIP3   OH241985   4.294   5.577   3.918  0.7720 -0.0171 -0.3428
 6857TIP3    H141986   4.264   5.494   3.881 -0.0478  0.9294 -1.8858
 6857TIP3    H241987   4.355   5.551   3.987  0.1314 -1.9065 -0.4183
 6858TIP3   OH241988   6.325   3.689  11.636  0.3142  0.0403 -0.1744
 6858TIP3    H141989   6.392   3.726  11.692  0.6466  1.5640 -1.4972
 6858TIP3    H241990   6.243   3.698  11.685  0.6647  0.8654  0.2650
 6859TIP3   OH241991   4.784   5.287  15.472  0.1159 -0.4158  0.2489
 6859TIP3    H141992   4.850   5.228  15.436 -0.4320 -0.4928 -0.6564
 6859TIP3    H241993   4.804   5.372  15.432  0.0007 -0.3182  0.3985
 6860TIP3   OH241994   5.306   6.184   2.072 -0.0284 -0.4067  0.1511
 6860TIP3    H141995   5.319   6.166   1.979  0.8571 -2.6254  0.6202
 6860TIP3    H241996   5.222   6.142   2.092 -0.4200  0.4309  0.2790
 6861TIP3   OH241997   3.448   3.143   6.776  0.0696 -0.6131 -0.0828
 6861TIP3    H141998   3.383   3.073   6.772  0.8726 -1.5649  2.0085
 6861TIP3    H241999   3.481   3.140   6.866  0.9426  1.7415 -0.2468
 6862TIP3   OH242000   3.229   1.581   2.032  0.6919  0.1443  0.7260
 6862TIP3    H142001   3.290   1.561   2.103  1.1099  0.0278  0.3383
 6862TIP3    H242002   3.285   1.603   1.958  0.2454  1.4944  0.7741
 6863TIP3   OH242003   5.629   6.404  12.266  0.0799 -0.3014  0.3129
 6863TIP3    H142004   5.624   6.357  12.182 -0.3432 -0.1903  0.2746
 6863TIP3    H242005   5.595   6.491  12.247  0.5838 -0.0676  0.4562
 6864TIP3   OH242006   6.096   4.576  13.438 -0.7957 -0.2356 -0.2038
 6864TIP3    H142007   6.187   4.547  13.441 -0.1265  1.6535 -0.5993
 6864TIP3    H242008   6.061   4.537  13.358 -0.4122 -1.1237  0.0449
 6865TIP3   OH242009   1.228   6.153   0.194  0.1221 -0.4119 -0.5563
 6865TIP3    H142010   1.281   6.081   0.159  1.7747  0.5754 -0.2126
 6865TIP3    H242011   1.246   6.226   0.135 -0.2076  0.1745  0.0537
 6866TIP3   OH242012   0.739   0.201   6.315 -0.1828 -0.1645 -0.3296
 6866TIP3    H142013   0.770   0.119   6.278  2.8458  0.4117  0.6772
 6866TIP3    H242014   0.708   0.177   6.403  0.7115 -0.2661 -0.0302
 6867TIP3   OH242015   1.264   2.124  11.131 -0.3880  0.3201 -0.2782
 6867TIP3    H142016   1.207   2.053  11.161  0.6301 -0.3403  0.1299
 6867TIP3    H242017   1.315   2.087  11.059 -0.4951  0.9205 -0.6748
 6868TIP3   OH242018   2.419   1.502   3.836  0.5627  0.8131  0.0658
 6868TIP3    H142019   2.490   1.515   3.899  0.1868  0.0350  0.6700
 6868TIP3    H242020   2.388   1.413   3.854 -1.5217  1.6361  0.8092
 6869TIP3   OH242021   1.976   6.005   1.814 -0.3059  0.8227 -0.6170
 6869TIP3    H142022   1.963   6.060   1.891 -0.9799  0.2706 -0.3302
 6869TIP3    H242023   2.063   5.968   1.825 -0.9317 -0.3489  0.5902
 6870TIP3   OH242024   3.913   1.467   1.367  0.2041  0.1297  0.7496
 6870TIP3    H142025   3.944   1.527   1.299 -0.7937  2.3370  2.1225
 6870TIP3    H242026   3.877   1.392   1.320  1.1545  0.7636 -1.0629
 6871TIP3   OH242027   0.384   3.442  13.368 -0.0400 -0.3126  0.0923
 6871TIP3    H142028   0.402   3.348  13.372  0.5133 -0.2739 -1.0719
 6871TIP3    H242029   0.343   3.463  13.452 -1.5333 -1.8832 -0.1953
 6872TIP3   OH242030   3.263   1.534  14.256 -0.1747 -0.2117  0.1274
 6872TIP3    H142031   3.242   1.597  14.188  1.8276 -0.0403 -0.4087
 6872TIP3    H242032   3.282   1.588  14.333  0.6657 -0.1801 -0.0872
 6873TIP3   OH242033   3.018   0.757   2.155  0.5738 -0.0529  0.1790
 6873TIP3    H142034   3.070   0.677   2.148  0.1627 -0.4220  1.1210
 6873TIP3    H242035   3.063   0.809   2.222 -0.1213 -0.2771  0.8389
 6874TIP3   OH242036   5.675   2.905  10.752 -0.2258 -0.0384 -0.9685
 6874TIP3    H142037   5.658   2.895  10.659  0.2334 -0.3416 -1.0221
 6874TIP3    H242038   5.757   2.858  10.767 -1.5915 -2.2421  0.0573
 6875TIP3   OH242039   5.800   4.109  16.010 -0.2617 -0.0709 -0.1068
 6875TIP3    H142040   5.758   4.154  16.083 -0.1554 -2.6019  1.5996
 6875TIP3    H242041   5.740   4.122  15.936 -0.8075  1.7771  0.6010
 6876TIP3   OH242042   1.035   2.752  15.424  0.1282 -0.2010 -0.3594
 6876TIP3    H142043   0.980   2.754  15.502  1.1792  2.2268  0.4100
 6876TIP3    H242044   1.013   2.832  15.377  1.3771 -0.3280 -1.2031
 6877TIP3   OH242045   4.659   5.298   0.684 -0.0804 -0.3061 -0.3125
 6877TIP3    H142046   4.572   5.271   0.654 -0.9941  0.5019  1.4922
 6877TIP3    H242047   4.678   5.377   0.633 -0.0425 -0.9004 -1.2539
 6878TIP3   OH242048   6.288   1.460   1.995 -0.1392  0.0430  0.6297
 6878TIP3    H142049   6.268   1.463   2.089  0.9525  1.1157  0.8562
 6878TIP3    H242050   6.215   1.412   1.956 -0.8679  0.0306  1.9587
 6879TIP3   OH242051   2.504   2.050  17.105 -0.4295 -0.0392 -0.0175
 6879TIP3    H142052   2.501   1.970  17.158  1.1677 -0.6996 -0.8421
 6879TIP3    H242053   2.425   2.097  17.129 -0.9441 -1.4177  1.2021
 6880TIP3   OH242054   4.099   5.781  13.242 -0.5519 -0.4566  0.0156
 6880TIP3    H142055   4.067   5.724  13.172 -0.1843  0.3110 -0.7949
 6880TIP3    H242056   4.175   5.734  13.278  1.0913  0.4501 -2.0881
 6881TIP3   OH242057   5.371   4.681  11.528  0.3318  0.0664  0.0021
 6881TIP3    H142058   5.276   4.695  11.524 -0.2391 -2.4654  1.8859
 6881TIP3    H242059   5.406   4.762  11.565 -1.2338  0.6885  0.1910
 6882TIP3   OH242060   4.977   4.753   5.871  0.3789  0.2705 -0.2522
 6882TIP3    H142061   4.900   4.697   5.863  0.5828  0.0210 -0.4629
 6882TIP3    H242062   5.020   4.722   5.951  0.5205  0.0952 -0.3981
 6883TIP3   OH242063   3.680   3.798   1.687 -0.2468  0.4732  0.0825
 6883TIP3    H142064   3.670   3.719   1.634 -1.5997  0.0664  0.8946
 6883TIP3    H242065   3.739   3.772   1.758 -0.2682  0.3434  0.0542
 6884TIP3   OH242066   1.506   3.289  14.179 -0.1848 -0.7006 -0.3691
 6884TIP3    H142067   1.477   3.203  14.209 -0.9022 -0.0496  0.9282
 6884TIP3    H242068   1.563   3.320  14.250 -1.2426  0.5443 -0.0128
 6885TIP3   OH242069   0.803   3.072  11.604 -0.1153 -0.4133  0.2420
 6885TIP3    H142070   0.818   2.981  11.632  1.8148  0.1216  1.1452
 6885TIP3    H242071   0.735   3.066  11.537  0.6875 -2.6404 -0.4495
 6886TIP3   OH242072   1.141   3.986  11.101  0.7558  0.2160  1.2854
 6886TIP3    H142073   1.207   4.033  11.050  2.0180 -2.2556  0.4626
 6886TIP3    H242074   1.110   3.917  11.043 -0.7871 -0.1723  2.5109
 6887TIP3   OH242075   4.385   1.886  12.411  0.8404 -0.0627 -0.3311
 6887TIP3    H142076   4.393   1.792  12.390  0.2057 -0.1153 -0.3505
 6887TIP3    H242077   4.473   1.920  12.398  1.4422 -0.9453  1.1257
 6888TIP3   OH242078   3.786   5.778  14.235 -0.2538  0.2701  0.0006
 6888TIP3    H142079   3.740   5.754  14.316 -0.2723 -3.3603 -0.9060
 6888TIP3    H242080   3.875   5.799  14.264 -0.9068  1.5967  1.1754
 6889TIP3   OH242081   5.783   2.769  16.842 -0.2781  0.1087  0.2265
 6889TIP3    H142082   5.812   2.698  16.899 -1.0214 -0.1545  0.2965
 6889TIP3    H242083   5.855   2.782  16.780  0.6015  0.4892  1.2911
 6890TIP3   OH242084   2.774   5.524   2.650  0.4145 -0.2541 -1.1483
 6890TIP3    H142085   2.800   5.614   2.630  0.1979  0.4686  1.4408
 6890TIP3    H242086   2.710   5.533   2.721 -0.2302 -2.4269 -1.3757
 6891TIP3   OH242087   3.977   3.498  10.469  0.2046 -0.1646 -0.4348
 6891TIP3    H142088   3.984   3.405  10.446 -0.6776 -0.7139  1.3152
 6891TIP3    H242089   4.066   3.524  10.491  0.2527 -1.0310  0.4869
 6892TIP3   OH242090   1.938   1.805   0.590 -0.0005 -0.0984  0.1012
 6892TIP3    H142091   1.997   1.768   0.524 -1.5209  0.3604 -1.5912
 6892TIP3    H242092   1.931   1.898   0.568 -0.8921 -0.0277  0.6173
 6893TIP3   OH242093   4.825   2.280  11.968 -0.8194 -0.0959 -0.1179
 6893TIP3    H142094   4.893   2.346  11.957 -0.0771 -0.5893  1.2350
 6893TIP3    H242095   4.746   2.329  11.992  0.5302  0.2986  4.5893
 6894TIP3   OH242096   3.237   5.930   2.002 -0.0834  0.2787  0.5387
 6894TIP3    H142097   3.188   5.965   1.928  0.7321 -1.3699 -0.8488
 6894TIP3    H242098   3.240   6.002   2.065  0.1902  2.1704 -1.5120
 6895TIP3   OH242099   3.468   3.396   0.689  0.1074  0.1042 -0.3106
 6895TIP3    H142100   3.538   3.353   0.642 -0.3020 -3.1785  1.7420
 6895TIP3    H242101   3.389   3.348   0.664 -0.1819 -1.5044  3.0965
 6896TIP3   OH242102   0.777   5.397   4.584  0.0680 -0.2278  0.2015
 6896TIP3    H142103   0.718   5.345   4.637 -2.4513 -0.0321 -2.2072
 6896TIP3    H242104   0.812   5.463   4.644 -2.4818 -0.1036  1.6653
 6897TIP3   OH242105   0.853   2.961  15.823 -0.4670 -0.4897  0.5306
 6897TIP3    H142106   0.759   2.963  15.840 -0.7704 -2.2116 -0.6623
 6897TIP3    H242107   0.861   2.925  15.735  1.3303 -2.0898  1.2539
 6898TIP3   OH242108   2.959   5.371   1.515 -0.0826 -0.0607  0.2585
 6898TIP3    H142109   3.026   5.435   1.541  1.9026 -2.0264  0.2449
 6898TIP3    H242110   2.943   5.390   1.422  1.7094 -0.6000 -0.1837
 6899TIP3   OH242111   4.931   4.316  16.416  0.0258  0.6947 -0.0398
 6899TIP3    H142112   4.861   4.381  16.414  0.6942  1.4143 -1.2161
 6899TIP3    H242113   4.995   4.351  16.478 -1.1651 -0.5608  1.9877
 6900TIP3   OH242114   6.587   1.891  14.909  0.0108 -0.2103  0.1797
 6900TIP3    H142115   6.574   1.904  15.003 -1.2200  2.1526 -0.2411
 6900TIP3    H242116   6.499   1.882  14.874  0.4149 -0.3195 -0.8368
 6901TIP3   OH242117   4.866   2.516   5.608 -0.2289  0.2193  0.0713
 6901TIP3    H142118   4.907   2.518   5.694 -0.6006  1.7939  0.2550
 6901TIP3    H242119   4.859   2.609   5.583  0.6771 -0.2394 -2.0480
 6902TIP3   OH242120   6.379   5.325  10.709  0.1451  0.1040 -0.3939
 6902TIP3    H142121   6.383   5.270  10.788 -0.9574  0.9706  0.2987
 6902TIP3    H242122   6.471   5.336  10.684  0.4181 -1.6434 -0.2844
 6903TIP3   OH242123   2.141   0.815   4.569  0.2834  0.1863  0.2875
 6903TIP3    H142124   2.074   0.848   4.630  0.5875  1.1019  0.1514
 6903TIP3    H242125   2.217   0.871   4.585  0.4479  0.2880 -0.7655
 6904TIP3   OH242126   1.093   5.938   3.909  0.2385  0.0362 -0.1063
 6904TIP3    H142127   1.074   5.849   3.878 -0.0262  0.1902 -0.3961
 6904TIP3    H242128   1.161   5.927   3.975  0.5981 -0.3373 -0.5299
 6905TIP3   OH242129   5.364   1.013  12.565  0.4501  0.5717 -0.1816
 6905TIP3    H142130   5.345   1.088  12.509 -2.7511 -0.0871 -0.1681
 6905TIP3    H242131   5.354   1.046  12.654 -0.5801  0.2651 -0.1690
 6906TIP3   OH242132   0.508   3.951  15.359 -0.1003 -0.1819  0.2328
 6906TIP3    H142133   0.593   3.972  15.318 -0.5017 -0.9894 -1.0884
 6906TIP3    H242134   0.459   4.033  15.353  0.6218  0.3430  1.1588
 6907TIP3   OH242135   4.316   6.507   0.484 -0.1922 -0.3492 -0.6610
 6907TIP3    H142136   4.385   6.480   0.544 -2.1419 -2.0499  0.9837
 6907TIP3    H242137   4.335   6.599   0.465  1.4348 -0.2201  1.2256
 6908TIP3   OH242138   5.671   6.304   0.818 -0.2794  0.7344 -0.1533
 6908TIP3    H142139   5.656   6.211   0.838 -1.1481  1.1129  1.1044
 6908TIP3    H242140   5.702   6.341   0.901 -0.5644  1.6857 -0.4582
 6909TIP3   OH242141   2.502   4.275  15.293  0.0123  0.1792  0.0064
 6909TIP3    H142142   2.538   4.209  15.352 -0.1901  0.5195  0.5138
 6909TIP3    H242143   2.430   4.230  15.248 -1.4986  0.6135  1.8560
 6910TIP3   OH242144   3.977   0.024  10.903  0.2106 -0.3309  0.2062
 6910TIP3    H142145   4.032  -0.005  10.830  1.3009 -0.9167  1.2323
 6910TIP3    H242146   3.889   0.030  10.865  1.2777  3.5536 -2.3351
 6911TIP3   OH242147   0.886   5.472  14.641 -0.0789  0.3535  0.3650
 6911TIP3    H142148   0.842   5.533  14.700  0.4836  1.3942 -0.2588
 6911TIP3    H242149   0.846   5.388  14.659 -0.9147  0.9163  1.2178
 6912TIP3   OH242150   4.564   6.294   4.506 -0.1051 -0.3437 -0.3261
 6912TIP3    H142151   4.513   6.222   4.470  0.3076 -1.0891  0.5293
 6912TIP3    H242152   4.591   6.263   4.593  0.4837  0.6515 -0.1389
 6913TIP3   OH242153   5.741   5.204  15.472 -0.1917 -0.1913  0.7674
 6913TIP3    H142154   5.667   5.241  15.423  0.8613  1.3749  0.2908
 6913TIP3    H242155   5.745   5.256  15.552  0.0603 -0.6416  1.0540
 6914TIP3   OH242156   2.959   0.094  17.072 -0.0536  0.6774 -0.2344
 6914TIP3    H142157   2.891   0.109  17.138  1.5495  2.7415  1.1125
 6914TIP3    H242158   2.957   0.173  17.018  2.0302  1.4139  0.6541
 6915TIP3   OH242159   3.393   4.744  11.411  0.4845 -0.1790 -1.2098
 6915TIP3    H142160   3.378   4.662  11.365 -0.7849 -0.0597 -1.0510
 6915TIP3    H242161   3.443   4.797  11.349 -0.5843 -0.2758 -2.1928
 6916TIP3   OH242162   3.726   5.747  16.777 -0.2954  0.0112  0.0517
 6916TIP3    H142163   3.653   5.739  16.839  1.0522  0.0361  1.7348
 6916TIP3    H242164   3.804   5.741  16.832  1.1256 -3.7372 -1.9954
 6917TIP3   OH242165   0.215   6.448   5.094  0.2830  0.5215 -0.3483
 6917TIP3    H142166   0.222   6.527   5.041  0.3158  2.0833  1.8787
 6917TIP3    H242167   0.282   6.458   5.162 -1.4699 -0.1167  1.5742
 6918TIP3   OH242168   6.467   6.465  17.069 -0.1140 -0.0051  0.2243
 6918TIP3    H142169   6.487   6.479  16.976  0.1217 -0.3758  0.2198
 6918TIP3    H242170   6.552   6.459  17.112 -0.2136 -0.6709  0.3395
 6919TIP3   OH242171   2.377   1.464  14.244 -0.8146  0.2033 -0.3952
 6919TIP3    H142172   2.384   1.486  14.337 -0.1160  0.0411 -0.4017
 6919TIP3    H242173   2.468   1.453  14.216 -0.9001  1.8816 -1.4829
 6920TIP3   OH242174   0.695   5.492  12.950  0.3243  0.2895  0.3218
 6920TIP3    H142175   0.707   5.571  13.002  1.4917  1.2394 -1.2845
 6920TIP3    H242176   0.687   5.524  12.860  0.4325 -1.3937 -0.3226
 6921TIP3   OH242177   0.651   4.459  11.846  0.0273  0.4313  0.0372
 6921TIP3    H142178   0.698   4.531  11.803  0.4257  0.3265  0.2911
 6921TIP3    H242179   0.591   4.503  11.906  0.6190  0.5598  0.5579
 6922TIP3   OH242180   6.759   1.299   1.122 -0.0697 -0.5935 -0.5655
 6922TIP3    H142181   6.758   1.280   1.028  0.5837 -0.7174 -0.5501
 6922TIP3    H242182   6.715   1.225   1.162 -0.1569 -0.6446 -0.7530
 6923TIP3   OH242183   6.321   1.496   1.660 -0.3121 -0.2612  0.1983
 6923TIP3    H142184   6.300   1.517   1.569 -0.9077 -1.2405  0.0998
 6923TIP3    H242185   6.317   1.581   1.705 -2.2382 -0.0384 -0.2852
 6924TIP3   OH242186   3.340   2.772   0.646  0.2356 -0.9196 -0.3098
 6924TIP3    H142187   3.256   2.728   0.660 -1.1862  1.6261 -0.2391
 6924TIP3    H242188   3.395   2.744   0.719 -0.4869 -2.7241 -0.4213
 6925TIP3   OH242189   4.162   1.253   1.777  0.2028 -0.6587  0.6630
 6925TIP3    H142190   4.112   1.306   1.716 -0.1363 -0.4839  1.0878
 6925TIP3    H242191   4.229   1.211   1.723 -0.7528 -1.3596 -0.0304
 6926TIP3   OH242192   6.349   6.274   3.845 -0.2739 -0.2483  0.1627
 6926TIP3    H142193   6.264   6.232   3.846 -0.0770 -0.6898 -0.6723
 6926TIP3    H242194   6.403   6.221   3.904 -0.4615 -0.2315  0.3471
 6927TIP3   OH242195   3.100   5.587   4.782  0.3139  0.5293 -0.1306
 6927TIP3    H142196   3.070   5.504   4.820  2.1951  0.2703  0.9075
 6927TIP3    H242197   3.195   5.583   4.788  0.4873  2.3212 -1.0674
 6928TIP3   OH242198   6.814   0.686  14.800 -0.1502 -0.2012  0.0692
 6928TIP3    H142199   6.793   0.727  14.716 -0.3530  0.2010  0.3111
 6928TIP3    H242200   6.838   0.596  14.778  1.7348  0.4440 -0.6358
 6929TIP3   OH242201   5.272   4.876   1.117  0.5418  0.1067  0.0166
 6929TIP3    H142202   5.251   4.923   1.037 -0.1785  2.0586  1.2815
 6929TIP3    H242203   5.187   4.858   1.157  0.9354  1.4097  1.5348
 6930TIP3   OH242204   3.282   1.252  16.016 -0.0973  0.0693  0.3318
 6930TIP3    H142205   3.219   1.181  16.005  0.6946 -1.1853  2.9734
 6930TIP3    H242206   3.229   1.330  16.025 -1.0045 -0.1503 -2.2195
 6931TIP3   OH242207   3.119   5.081  13.293  0.0002  0.5997  0.1734
 6931TIP3    H142208   3.109   5.071  13.198 -0.2932 -1.9264  0.3956
 6931TIP3    H242209   3.032   5.108  13.324 -0.6897 -1.1985 -0.0544
 6932TIP3   OH242210   2.910   2.185  11.315 -0.5209 -0.1138  0.7184
 6932TIP3    H142211   2.951   2.153  11.235 -0.9782  0.5893  0.1923
 6932TIP3    H242212   2.984   2.208  11.372 -0.1678 -2.0985  1.1455
 6933TIP3   OH242213   5.075   1.830   3.259  0.1096  0.4388  0.2791
 6933TIP3    H142214   5.125   1.750   3.276 -1.2268 -1.5935 -4.1025
 6933TIP3    H242215   5.131   1.881   3.200 -0.9834  0.4283 -0.7901
 6934TIP3   OH242216   5.246   2.971   0.351 -0.3498  0.2653 -0.2576
 6934TIP3    H142217   5.291   3.051   0.326 -1.1152  0.8305  0.1460
 6934TIP3    H242218   5.206   2.990   0.436  0.5755 -0.9864  0.4919
 6935TIP3   OH242219   6.071   4.201   2.004 -0.9205  0.0665 -0.3353
 6935TIP3    H142220   6.076   4.156   1.919  2.7440 -0.5546  0.0070
 6935TIP3    H242221   6.034   4.135   2.063  0.2761 -1.0335 -0.7343
 6936TIP3   OH242222   3.696   6.730  14.750 -0.1772  0.0788 -0.6593
 6936TIP3    H142223   3.660   6.818  14.748 -1.2321 -0.3025  0.2050
 6936TIP3    H242224   3.619   6.673  14.750  0.3879 -0.7667  1.4117
 6937TIP3   OH242225   4.613   6.497   5.617  0.8733  0.3110  0.1843
 6937TIP3    H142226   4.631   6.591   5.623  0.1348  0.4033  1.0706
 6937TIP3    H242227   4.593   6.470   5.707 -0.8493 -0.3041 -0.3429
 6938TIP3   OH242228   3.909   1.465   4.444 -0.3014 -0.2552  0.1191
 6938TIP3    H142229   3.870   1.389   4.487  0.7374 -0.8878 -0.0331
 6938TIP3    H242230   4.000   1.439   4.426 -0.0123  0.9093 -0.1997
 6939TIP3   OH242231   0.877   2.605   1.357  0.4213 -0.2710 -0.5055
 6939TIP3    H142232   0.912   2.594   1.269  0.7656 -0.2876 -0.3672
 6939TIP3    H242233   0.925   2.541   1.411 -0.4660 -0.9424 -0.4870
 6940TIP3   OH242234   5.416   4.273  15.351 -0.3261  0.1356 -0.3977
 6940TIP3    H142235   5.364   4.253  15.273 -1.5504  1.4363  0.0406
 6940TIP3    H242236   5.493   4.319  15.317  0.5592 -1.7148 -1.0427
 6941TIP3   OH242237   0.493   5.690   1.916 -0.1866  0.3231 -0.2198
 6941TIP3    H142238   0.511   5.744   1.839 -1.4920 -2.1177 -2.4286
 6941TIP3    H242239   0.578   5.654   1.940  0.2125  0.9460 -0.6625
 6942TIP3   OH242240   4.123   2.621   5.704  0.3873 -0.4243 -0.1298
 6942TIP3    H142241   4.169   2.547   5.665  1.2330  0.1538 -0.2483
 6942TIP3    H242242   4.190   2.688   5.715  0.5100 -0.8996  3.3338
 6943TIP3   OH242243   0.998   0.391  12.571 -0.9408  0.4605  0.2857
 6943TIP3    H142244   0.973   0.298  12.579  1.5617 -0.1587  1.8749
 6943TIP3    H242245   0.951   0.434  12.643 -0.3944 -0.0208  0.9506
 6944TIP3   OH242246   0.985   3.962   1.975  0.2801 -0.4623 -0.1746
 6944TIP3    H142247   0.978   3.880   2.024  0.9724 -0.5831 -0.2636
 6944TIP3    H242248   1.079   3.980   1.972  0.1232  0.4294 -0.0061
 6945TIP3   OH242249   2.966   5.512  12.096 -0.0652  0.2544 -0.4232
 6945TIP3    H142250   2.921   5.487  12.176 -0.3923  0.5868 -0.5028
 6945TIP3    H242251   3.038   5.449  12.088  0.6264  0.8666  0.7063
 6946TIP3   OH242252   6.612   4.061  11.713 -0.1652  0.7023 -0.3729
 6946TIP3    H142253   6.632   4.054  11.620  1.8757  0.3515  0.0480
 6946TIP3    H242254   6.697   4.078  11.755 -1.0757  1.1293  1.3935
 6947TIP3   OH242255   0.689   3.040  11.223  0.5073  0.1331 -0.3007
 6947TIP3    H142256   0.610   3.091  11.204 -0.5721 -1.2793  0.1970
 6947TIP3    H242257   0.736   3.036  11.140 -0.5770 -0.0176 -0.9230
 6948TIP3   OH242258   1.868   5.405   4.846  0.0696  0.2912  0.3544
 6948TIP3    H142259   1.783   5.436   4.876  0.5459  1.0429  0.9752
 6948TIP3    H242260   1.922   5.484   4.843  0.4087  0.0320 -1.2367
 6949TIP3   OH242261   2.252   5.198   2.689 -0.3320 -0.5387 -0.1957
 6949TIP3    H142262   2.231   5.291   2.692 -0.0832 -0.3449 -2.6422
 6949TIP3    H242263   2.345   5.195   2.667 -0.3968 -1.3633 -0.3816
 6950TIP3   OH242264   4.553   0.403  15.837  0.1845 -0.4749 -0.5901
 6950TIP3    H142265   4.534   0.426  15.746 -0.7262  0.3147 -0.2131
 6950TIP3    H242266   4.483   0.444  15.887  2.1046  1.3283  0.7436
 6951TIP3   OH242267   3.591   2.697  14.258 -0.1041 -0.7639  0.1859
 6951TIP3    H142268   3.619   2.785  14.231  0.1782 -0.9122 -0.0045
 6951TIP3    H242269   3.585   2.702  14.354  0.2776 -0.6442  0.2041
 6952TIP3   OH242270   0.820   4.200   0.368  0.7063 -0.3612 -0.1816
 6952TIP3    H142271   0.764   4.158   0.434 -0.1949 -1.4962 -1.6248
 6952TIP3    H242272   0.901   4.149   0.371  0.6702 -0.4112  0.0202
 6953TIP3   OH242273   3.117   3.897  14.247 -1.1531 -0.5032  0.1307
 6953TIP3    H142274   3.056   3.837  14.205 -1.5929 -0.2861  0.4502
 6953TIP3    H242275   3.072   3.926  14.326  0.2190 -1.9721  1.5096
 6954TIP3   OH242276   4.066   0.110  16.426 -0.0883 -0.4124 -0.3891
 6954TIP3    H142277   4.032   0.048  16.491  0.4421 -0.3822 -0.0765
 6954TIP3    H242278   4.140   0.152  16.470  0.8902 -1.0819 -1.3573
 6955TIP3   OH242279   5.313   2.175  16.635  0.5519 -0.2742 -0.0666
 6955TIP3    H142280   5.329   2.093  16.682  0.7066 -0.4251 -0.3766
 6955TIP3    H242281   5.285   2.148  16.547 -0.5588 -0.0056  0.1899
 6956TIP3   OH242282   5.336   4.883   3.104 -0.1462 -0.0600  0.1267
 6956TIP3    H142283   5.250   4.892   3.144 -0.5267  0.5522 -0.7855
 6956TIP3    H242284   5.342   4.791   3.079  0.1716 -0.4930  1.7058
 6957TIP3   OH242285   1.447   5.485  11.074 -0.2115 -0.2370 -0.1739
 6957TIP3    H142286   1.536   5.506  11.102 -0.4375 -1.3866  1.5453
 6957TIP3    H242287   1.417   5.564  11.030  1.6951  0.1214 -0.9318
 6958TIP3   OH242288   4.389   5.377  15.983 -0.5398 -0.2339 -0.4891
 6958TIP3    H142289   4.386   5.454  16.039  0.0722 -0.5255 -0.0326
 6958TIP3    H242290   4.363   5.408  15.897  3.6815  1.4956 -1.3811
 6959TIP3   OH242291   4.765   0.441  11.657 -0.6952 -0.0183  0.3483
 6959TIP3    H142292   4.852   0.480  11.654 -1.0772  0.8159 -0.2490
 6959TIP3    H242293   4.756   0.396  11.573 -0.1991 -1.5658  1.0910
 6960TIP3   OH242294   3.935   1.849   2.762 -0.3370 -0.2543  0.0941
 6960TIP3    H142295   3.885   1.879   2.838  1.3604  2.2066  0.3833
 6960TIP3    H242296   4.010   1.804   2.799  0.1236  0.3172 -0.1346
 6961TIP3   OH242297   4.700   1.500  16.649 -0.5551 -0.3629 -0.8527
 6961TIP3    H142298   4.714   1.590  16.676 -1.8965  0.0308 -1.4096
 6961TIP3    H242299   4.688   1.505  16.554 -0.9546 -1.0842 -0.8517
 6962TIP3   OH242300   6.380   6.580  10.625  0.0067  0.0865 -1.0396
 6962TIP3    H142301   6.322   6.506  10.643  1.4868 -0.6882  0.9940
 6962TIP3    H242302   6.347   6.651  10.679  0.3987 -0.0829 -0.5664
 6963TIP3   OH242303   2.931   1.462   6.003  0.4415  0.2182  0.0863
 6963TIP3    H142304   2.963   1.519   5.933 -0.5103 -0.8140 -1.2414
 6963TIP3    H242305   2.924   1.376   5.962 -2.6786  0.0988  0.6417
 6964TIP3   OH242306   3.187   6.336  15.377 -0.1827 -0.4480 -0.0299
 6964TIP3    H142307   3.231   6.402  15.323 -0.4562 -0.8610 -0.7761
 6964TIP3    H242308   3.167   6.265  15.316 -0.0646 -1.1426  0.7198
 6965TIP3   OH242309   4.926   0.310   0.260 -0.4803 -0.0598  0.2291
 6965TIP3    H142310   4.833   0.331   0.255 -0.4550  0.7829  2.3515
 6965TIP3    H242311   4.965   0.351   0.183 -1.6246  1.0846  0.2405
 6966TIP3   OH242312   0.511   4.304  17.037  0.0794  0.0219  0.2685
 6966TIP3    H142313   0.494   4.334  16.948  0.9554  1.4170  0.5544
 6966TIP3    H242314   0.451   4.354  17.092 -0.1933 -0.5592  0.5109
 6967TIP3   OH242315   0.997   2.379  11.966  0.1213 -0.2967  0.5137
 6967TIP3    H142316   0.991   2.462  11.918  0.6634  0.4290  1.6735
 6967TIP3    H242317   1.089   2.373  11.992  0.0362 -1.1644  0.6310
 6968TIP3   OH242318   2.889   1.943  13.049 -0.2793 -0.3974 -0.8106
 6968TIP3    H142319   2.817   1.888  13.079 -0.3900  0.1579 -0.0194
 6968TIP3    H242320   2.880   2.024  13.099 -0.1887  0.3956 -2.0363
 6969TIP3   OH242321   6.497   3.940  13.327 -0.2410  0.2610 -0.1116
 6969TIP3    H142322   6.468   3.927  13.417 -1.6057 -0.5630 -0.6245
 6969TIP3    H242323   6.535   4.028  13.326 -0.2401  0.2918  1.2490
 6970TIP3   OH242324   6.158   2.005  13.947  0.4219  0.4443 -0.1848
 6970TIP3    H142325   6.153   1.991  13.852  1.1872 -2.8174  0.1554
 6970TIP3    H242326   6.250   2.023  13.964  0.2887  1.0058 -0.0364
 6971TIP3   OH242327   4.912   0.982  10.810  0.1249  0.3021  0.4426
 6971TIP3    H142328   4.864   0.941  10.738 -0.4270  0.0225  0.9660
 6971TIP3    H242329   5.004   0.958  10.794 -0.3182 -2.6696  1.6655
 6972TIP3   OH242330   2.981   6.023  16.844  0.4073  0.4321 -0.2859
 6972TIP3    H142331   2.973   6.031  16.939  2.1705 -0.0450 -0.0513
 6972TIP3    H242332   2.895   6.048  16.810 -0.4034  0.1644  1.4539
 6973TIP3   OH242333   5.380   0.254   0.273  0.3455  0.1503  0.7330
 6973TIP3    H142334   5.439   0.194   0.317  2.6595  0.4255 -1.7456
 6973TIP3    H242335   5.335   0.200   0.208  0.1175  0.5289  0.5724
 6974TIP3   OH242336   2.665   6.221   4.358  0.4336 -0.0003  0.0432
 6974TIP3    H142337   2.625   6.208   4.444  1.4767  0.0164  0.5554
 6974TIP3    H242338   2.592   6.237   4.299 -0.4121 -1.5088  0.6407
 6975TIP3   OH242339   0.857   1.529   1.562  0.2298 -0.0862  0.4271
 6975TIP3    H142340   0.897   1.592   1.502 -1.7702  2.5406  1.6821
 6975TIP3    H242341   0.881   1.559   1.649 -1.3246 -0.6185  1.0876
 6976TIP3   OH242342   0.973   4.764  12.303 -0.5375  0.4471  0.7255
 6976TIP3    H142343   1.038   4.805  12.246 -0.2622 -0.0476  0.6857
 6976TIP3    H242344   1.011   4.769  12.390  0.0706 -0.8702  0.5494
 6977TIP3   OH242345   6.290   3.107  14.394  0.2720 -0.1302  0.0656
 6977TIP3    H142346   6.289   3.033  14.334  0.8666  0.0536 -0.1863
 6977TIP3    H242347   6.208   3.153  14.377 -0.0515 -0.6636  0.1475
 6978TIP3   OH242348   0.192   0.953  13.849 -0.2989 -0.2350  0.0169
 6978TIP3    H142349   0.283   0.964  13.820  0.4481  1.1907  2.5919
 6978TIP3    H242350   0.142   1.010  13.791  0.0336 -2.6222 -2.8240
 6979TIP3   OH242351   3.051   6.573   1.031  0.3355  0.5763  0.4119
 6979TIP3    H142352   3.014   6.522   1.103 -1.5970 -0.6976 -1.3529
 6979TIP3    H242353   3.098   6.508   0.978 -0.5698  0.9269 -0.8710
 6980TIP3   OH242354   1.781   4.464  15.988  0.5919  0.0024  0.1065
 6980TIP3    H142355   1.875   4.474  16.000  0.7344  0.7391 -1.3584
 6980TIP3    H242356   1.762   4.509  15.905 -1.1828  0.6131  0.7820
 6981TIP3   OH242357   4.657   4.255  11.551  0.5078  0.8446 -0.8783
 6981TIP3    H142358   4.743   4.240  11.513  1.1454 -0.8374  1.0106
 6981TIP3    H242359   4.618   4.168  11.556 -0.4140  1.2925  0.2223
 6982TIP3   OH242360   5.718   6.767   1.451 -0.1770 -0.0189  0.5313
 6982TIP3    H142361   5.801   6.759   1.405 -0.3437 -0.9261  0.3811
 6982TIP3    H242362   5.652   6.754   1.383 -0.4314 -0.5305  0.8745
 6983TIP3   OH242363   0.614   2.191  11.090 -0.1557 -0.0868 -0.0492
 6983TIP3    H142364   0.561   2.239  11.154  0.1930  1.8096 -1.0992
 6983TIP3    H242365   0.664   2.259  11.044  0.6952 -1.5106 -1.3400
 6984TIP3   OH242366   4.614   2.573  15.740 -0.8891  0.0290  0.1996
 6984TIP3    H142367   4.677   2.636  15.775 -1.1434 -0.1331  0.9785
 6984TIP3    H242368   4.651   2.546  15.656 -1.1860  1.8293 -0.5439
 6985TIP3   OH242369   4.141   1.507  11.515  0.0611  0.1526  0.1410
 6985TIP3    H142370   4.163   1.600  11.509  2.3897 -0.3651 -0.3436
 6985TIP3    H242371   4.203   1.472  11.579 -0.1474 -1.2374 -0.3803
 6986TIP3   OH242372   3.316   3.831  11.161  0.0376 -0.1110 -0.1726
 6986TIP3    H142373   3.368   3.792  11.231 -0.3141 -1.3255 -0.5608
 6986TIP3    H242374   3.375   3.835  11.086  0.2818  0.7843  0.0510
 6987TIP3   OH242375   4.528   3.587   0.136  0.3760 -0.0412  0.0947
 6987TIP3    H142376   4.615   3.625   0.150  0.6660 -0.8823  0.6642
 6987TIP3    H242377   4.537   3.497   0.166 -0.2521 -0.6077 -1.3727
 6988TIP3   OH242378   0.021   4.701   0.052 -0.3893 -0.0816  0.1430
 6988TIP3    H142379   0.109   4.716   0.017 -0.1590 -1.9018 -0.1681
 6988TIP3    H242380  -0.028   4.780   0.029  0.7687  0.3264 -1.0254
 6989TIP3   OH242381   0.183   2.984  11.720 -0.6491 -0.4186 -0.0204
 6989TIP3    H142382   0.187   2.907  11.776 -0.8626  0.1541  0.7981
 6989TIP3    H242383   0.267   2.986  11.675 -0.6369 -1.1147 -0.0299
 6990TIP3   OH242384   5.161   1.573  10.722  0.5282  0.2135 -0.4542
 6990TIP3    H142385   5.175   1.521  10.801 -1.1983  2.0705  1.1818
 6990TIP3    H242386   5.096   1.524  10.672  0.0820  0.0155  0.3044
 6991TIP3   OH242387   4.765   5.957   5.524  0.5932 -0.7144 -0.1871
 6991TIP3    H142388   4.761   5.918   5.611  0.7742  0.0107  0.1466
 6991TIP3    H242389   4.714   5.897   5.469 -1.5729  0.0325  0.8651
 6992TIP3   OH242390   0.889   0.765   1.251  0.0437  0.0056  0.6923
 6992TIP3    H142391   0.847   0.843   1.216  1.6401  0.4983 -0.2258
 6992TIP3    H242392   0.912   0.789   1.341 -0.1554  0.3357  0.6569
 6993TIP3   OH242393   0.828   4.262   4.056 -0.6264 -0.0173  0.8243
 6993TIP3    H142394   0.870   4.241   3.973  0.5776  1.2307  1.0782
 6993TIP3    H242395   0.825   4.180   4.104  0.4730 -0.3656  0.3192
 6994TIP3   OH242396   4.064   5.957  14.695 -0.4421  0.0340 -0.0419
 6994TIP3    H142397   4.037   5.932  14.607  0.8738  1.7103 -0.9997
 6994TIP3    H242398   4.109   5.880  14.730 -0.3436 -0.4298 -1.1419
 6995TIP3   OH242399   1.372   2.776   4.807 -0.3695  0.4779  0.1411
 6995TIP3    H142400   1.355   2.735   4.892  1.9047 -0.3150  0.2867
 6995TIP3    H242401   1.362   2.705   4.743 -2.9905  1.2616 -0.4707
 6996TIP3   OH242402   1.179   2.170   6.058  0.1329  0.5745 -0.2444
 6996TIP3    H142403   1.117   2.177   6.131  1.7308 -0.9986  1.3610
 6996TIP3    H242404   1.196   2.261   6.033 -1.1005  1.1200  0.7499
 6997TIP3   OH242405   3.166   2.255   4.480 -0.5763 -0.9296 -0.2153
 6997TIP3    H142406   3.157   2.161   4.466 -0.6318 -0.7335 -1.6015
 6997TIP3    H242407   3.101   2.294   4.422 -0.0029 -0.0057 -0.2553
 6998TIP3   OH242408   0.490   1.147  11.649 -0.2198 -0.1278 -0.0584
 6998TIP3    H142409   0.524   1.199  11.576 -0.0795  0.6371  0.5339
 6998TIP3    H242410   0.453   1.069  11.608 -2.7820  1.5954 -1.2962
 6999TIP3   OH242411   5.844   5.229  16.481 -0.1839  0.0958  0.2961
 6999TIP3    H142412   5.774   5.230  16.547 -0.2006  0.4361  0.2753
 6999TIP3    H242413   5.799   5.207  16.400 -0.3285  0.6512  0.2204
 7000TIP3   OH242414   2.162   3.259  11.138 -0.2933  0.0513  0.3993
 7000TIP3    H142415   2.165   3.351  11.109  0.9057 -0.3627 -0.9018
 7000TIP3    H242416   2.068   3.240  11.147 -0.5596  1.4706  0.9784
 7001TIP3   OH242417   5.687   0.989   0.329 -0.0325  0.0650  0.1140
 7001TIP3    H142418   5.732   0.921   0.380 -0.7314  0.3451  1.1482
 7001TIP3    H242419   5.660   1.053   0.395 -0.4176  0.7562 -0.7082
 7002TIP3   OH242420   4.760   1.955   5.250 -0.0916 -0.3801  0.7310
 7002TIP3    H142421   4.813   2.035   5.246 -0.4832 -0.1602 -0.3185
 7002TIP3    H242422   4.825   1.885   5.248  0.1727 -0.1180 -1.0212
 7003TIP3   OH242423   0.405   6.691  13.494  0.5757  0.2972 -0.3247
 7003TIP3    H142424   0.353   6.750  13.550  1.0593  0.7575 -0.3560
 7003TIP3    H242425   0.375   6.603  13.518 -0.6683  0.5711 -0.7831
 7004TIP3   OH242426   2.199   2.847   5.730 -0.5206  0.5460  0.0801
 7004TIP3    H142427   2.288   2.874   5.706 -1.0275  0.8630 -1.5251
 7004TIP3    H242428   2.183   2.769   5.678 -0.6563 -0.4053  1.4978
 7005TIP3   OH242429   5.102   4.772  13.514  0.0745  0.6425  0.2065
 7005TIP3    H142430   5.118   4.837  13.583  0.0626  1.1994 -0.3041
 7005TIP3    H242431   5.014   4.740  13.531  0.4452  0.0342  1.0450
 7006TIP3   OH242432   4.145   0.821  12.022 -0.0254 -0.6950  0.6734
 7006TIP3    H142433   4.187   0.871  11.952 -0.4649 -0.4859  0.5590
 7006TIP3    H242434   4.203   0.833  12.098  0.9725 -1.7064  0.1120
 7007TIP3   OH242435   6.808   0.063   2.336  0.1656  0.1109 -0.1317
 7007TIP3    H142436   6.790   0.048   2.243 -0.1353 -1.4735  0.1407
 7007TIP3    H242437   6.900   0.090   2.338  0.7128 -1.5564 -0.7833
 7008TIP3   OH242438   4.829   0.016  14.497  0.5180 -0.2424  0.0878
 7008TIP3    H142439   4.805  -0.072  14.468 -0.5579  0.1321 -0.1723
 7008TIP3    H242440   4.800   0.019  14.589  1.0805 -0.3519  0.2727
 7009TIP3   OH242441   3.358   1.409  15.168  0.3351  0.2550 -0.2181
 7009TIP3    H142442   3.306   1.333  15.140 -0.6029  0.4093  1.0473
 7009TIP3    H242443   3.395   1.443  15.086 -1.9795  0.4616 -1.2514
 7010TIP3   OH242444   4.197   1.204   5.576  0.4059 -0.1175  0.7593
 7010TIP3    H142445   4.192   1.117   5.615  1.1158 -0.9626 -0.9707
 7010TIP3    H242446   4.241   1.257   5.643  0.8763 -1.3207  1.4333
 7011TIP3   OH242447   2.619   2.197  13.803 -0.4775 -0.4425  0.5269
 7011TIP3    H142448   2.553   2.208  13.734 -0.2492  1.0138  0.4969
 7011TIP3    H242449   2.572   2.162  13.878 -0.4389 -3.7610 -0.8282
 7012TIP3   OH242450   4.646   5.757  16.898  0.0171 -0.1847  0.0749
 7012TIP3    H142451   4.656   5.773  16.991  0.2586  0.7016 -0.0938
 7012TIP3    H242452   4.733   5.777  16.861  0.3818 -1.9790 -0.1628
 7013TIP3   OH242453   2.410   2.494  11.986  0.4395  0.1822  0.0194
 7013TIP3    H142454   2.463   2.570  11.963 -0.9432  0.5613 -2.1816
 7013TIP3    H242455   2.375   2.515  12.073  2.3614  0.7112  0.7244
 7014TIP3   OH242456   1.471   2.003   4.263 -0.1097  0.0633 -0.4298
 7014TIP3    H142457   1.532   1.994   4.190  0.3430  0.2989 -0.0800
 7014TIP3    H242458   1.517   1.966   4.338 -0.3292  0.4013 -0.1240
 7015TIP3   OH242459   2.550   3.314   5.053  0.1434  0.0026  0.1070
 7015TIP3    H142460   2.476   3.271   5.096 -0.4281 -0.9472 -1.7105
 7015TIP3    H242461   2.511   3.382   5.000  0.6727  0.1692 -0.0799
 7016TIP3   OH242462   4.092   0.688   4.840  0.5051 -0.2264 -0.0853
 7016TIP3    H142463   4.040   0.629   4.786  1.2065 -0.6362 -0.3195
 7016TIP3    H242464   4.182   0.655   4.833  0.7364  0.2202  0.6490
 7017TIP3   OH242465   4.329   2.818  13.307  0.4399 -0.7134  0.2777
 7017TIP3    H142466   4.278   2.847  13.382 -0.5924  2.8881 -1.5432
 7017TIP3    H242467   4.417   2.854  13.323 -0.2126  1.6114 -0.8482
 7018TIP3   OH242468   0.154   1.215   4.104 -0.1522  0.2445  0.7270
 7018TIP3    H142469   0.132   1.244   4.016 -1.0413 -0.4025  0.7172
 7018TIP3    H242470   0.205   1.287   4.141  0.0635  0.6070 -0.2369
 7019TIP3   OH242471   6.412   5.641  16.794 -1.2077  0.2598 -0.1169
 7019TIP3    H142472   6.402   5.615  16.703 -0.7250 -0.7676  0.1152
 7019TIP3    H242473   6.336   5.697  16.812 -1.9938 -0.5913 -0.7735
 7020TIP3   OH242474   2.940   4.286  16.145 -0.3853  0.3896  0.4674
 7020TIP3    H142475   2.943   4.202  16.191  0.3273  2.1863  3.9896
 7020TIP3    H242476   2.906   4.348  16.209  1.1365  3.2467 -1.2702
 7021TIP3   OH242477   3.002   2.425  11.763  0.4422 -0.0558  0.3326
 7021TIP3    H142478   3.092   2.392  11.765 -0.0440 -1.4736 -0.3745
 7021TIP3    H242479   2.953   2.364  11.818 -0.0062  1.0451  1.2013
 7022TIP3   OH242480   3.441   2.355   0.827 -0.4178  0.2014  0.1204
 7022TIP3    H142481   3.402   2.379   0.743  0.9813  0.9387 -0.3612
 7022TIP3    H242482   3.431   2.433   0.881 -0.4037  0.0902  0.2835
 7023TIP3   OH242483   4.775   4.225   0.370  0.0355  0.1547  0.3504
 7023TIP3    H142484   4.863   4.212   0.336 -0.0659  2.3048 -0.8803
 7023TIP3    H242485   4.720   4.166   0.318  0.5078  0.1470 -0.1433
 7024TIP3   OH242486   3.045   5.307   5.902 -0.3115  0.0599  0.3313
 7024TIP3    H142487   2.985   5.259   5.959  0.7575 -1.6121  0.1181
 7024TIP3    H242488   3.111   5.343   5.961 -1.2224  1.5176  0.5144
 7025TIP3   OH242489   2.820   0.368  15.935  0.0914 -0.4735 -0.0402
 7025TIP3    H142490   2.737   0.403  15.969  0.0227  0.4602 -1.1055
 7025TIP3    H242491   2.873   0.352  16.013  0.0742  1.9247  0.5338
 7026TIP3   OH242492   6.730   5.370  11.248 -0.3824 -0.4109  0.0631
 7026TIP3    H142493   6.720   5.342  11.157 -1.6234 -0.3830  0.1719
 7026TIP3    H242494   6.711   5.292  11.299  0.7880 -0.5515  0.3121
 7027TIP3   OH242495   1.367   0.312   5.216 -0.4988  0.4837  0.1502
 7027TIP3    H142496   1.280   0.352   5.221 -0.9274 -0.2436 -0.9349
 7027TIP3    H242497   1.391   0.295   5.306 -1.9009 -0.1317  0.4456
 7028TIP3   OH242498   5.501   4.815  12.405  0.5093 -0.0843  0.2120
 7028TIP3    H142499   5.423   4.861  12.373 -1.4235 -1.6213  2.3370
 7028TIP3    H242500   5.531   4.764  12.331  0.8292  2.1036 -1.2596
 7029TIP3   OH242501   5.271   3.976   4.018  0.5956 -0.0486 -0.1541
 7029TIP3    H142502   5.261   3.885   4.046 -5.3265  0.7647  1.7670
 7029TIP3    H242503   5.242   3.976   3.927  0.2554 -0.0214 -0.0447
 7030TIP3   OH242504   6.530   1.774   5.905  0.0006 -0.4291 -0.2867
 7030TIP3    H142505   6.483   1.833   5.964 -1.8876 -1.4949 -0.6400
 7030TIP3    H242506   6.587   1.723   5.963 -2.2899 -1.9230  0.8472
 7031TIP3   OH242507   0.085   6.062  14.355 -0.1112  0.0409  0.3261
 7031TIP3    H142508   0.015   6.043  14.292  0.2463  0.4162 -0.1894
 7031TIP3    H242509   0.122   6.145  14.325 -1.2921  1.3322  2.2331
 7032TIP3   OH242510   1.507   3.568   1.026  0.0087  0.6764 -0.2378
 7032TIP3    H142511   1.548   3.483   1.011 -0.2660  0.4855  0.0728
 7032TIP3    H242512   1.511   3.611   0.941 -1.6971 -0.4691 -0.9609
 7033TIP3   OH242513   6.562   2.350   2.630 -0.6442 -0.1708  0.1279
 7033TIP3    H142514   6.546   2.263   2.666  0.4289 -0.7472 -0.6997
 7033TIP3    H242515   6.586   2.334   2.539 -0.6016  1.0148 -0.0880
 7034TIP3   OH242516   4.206   3.373  12.615 -0.1140 -0.1114 -0.1537
 7034TIP3    H142517   4.228   3.291  12.572  0.7055 -0.3188  0.6339
 7034TIP3    H242518   4.111   3.382  12.602 -0.3437 -1.5281  0.3354
 7035TIP3   OH242519   0.427   6.537   5.250 -0.0785  0.2296  0.6147
 7035TIP3    H142520   0.421   6.487   5.332  0.4572 -0.7662  0.0648
 7035TIP3    H242521   0.513   6.578   5.254 -1.0246  2.2817  1.6804
 7036TIP3   OH242522   4.174   1.279   3.239  0.1124  0.1335  0.5883
 7036TIP3    H142523   4.148   1.337   3.167 -0.4092 -0.3815  0.3531
 7036TIP3    H242524   4.108   1.293   3.306  0.3338  0.2634  0.7815
 7037TIP3   OH242525   4.082   1.812   3.596  0.8523 -0.4472 -0.0804
 7037TIP3    H142526   4.081   1.750   3.669  0.3430 -1.0267 -0.5650
 7037TIP3    H242527   4.157   1.868   3.613 -0.5145  0.8633  2.0685
 7038TIP3   OH242528   5.123   3.374  10.807 -0.3845  0.7247 -0.1947
 7038TIP3    H142529   5.040   3.404  10.846  0.4551  0.3374  2.0473
 7038TIP3    H242530   5.099   3.295  10.758 -1.1294 -0.4548  1.9368
 7039TIP3   OH242531   6.512   6.795   3.859 -0.4358  0.4102 -0.2603
 7039TIP3    H142532   6.553   6.788   3.773  1.0245  0.8554  0.3809
 7039TIP3    H242533   6.456   6.718   3.865 -1.6039  1.0338 -2.1249
 7040TIP3   OH242534   6.267   2.465   0.742 -0.1917 -0.4598  0.4359
 7040TIP3    H142535   6.208   2.404   0.699  0.6337 -0.0940 -1.3142
 7040TIP3    H242536   6.338   2.410   0.776  0.1817 -0.5778 -0.4987
 7041TIP3   OH242537   2.178   6.208  13.372 -0.3288 -0.0204  0.0064
 7041TIP3    H142538   2.239   6.135  13.377 -0.8752 -0.4305  1.0307
 7041TIP3    H242539   2.167   6.225  13.278 -1.3884 -2.2808 -0.3487
 7042TIP3   OH242540   1.962   4.003   2.028 -0.3221  0.2345  0.0092
 7042TIP3    H142541   1.877   4.044   2.044 -0.4425 -0.5338  1.4859
 7042TIP3    H242542   2.026   4.071   2.051 -0.5136  0.8052 -1.0837
 7043TIP3   OH242543   6.378   0.431  16.076  0.0802 -0.1311 -0.2034
 7043TIP3    H142544   6.396   0.337  16.073 -1.2275 -0.3699 -1.6434
 7043TIP3    H242545   6.439   0.469  16.012 -0.7293 -0.2666 -1.0759
 7044TIP3   OH242546   5.098   1.448   2.274  0.2077 -0.0252  0.1908
 7044TIP3    H142547   5.132   1.509   2.339 -1.4048  0.1744  0.8948
 7044TIP3    H242548   5.100   1.362   2.316  3.1786 -0.6955 -1.0576
 7045TIP3   OH242549   3.664   1.180   1.652 -0.1262  0.3259  0.1566
 7045TIP3    H142550   3.755   1.151   1.656 -0.5848 -1.1379  0.7421
 7045TIP3    H242551   3.661   1.258   1.708  0.5502 -0.2830  1.0806
 7046TIP3   OH242552   6.277   3.789  12.495  0.2077  0.0006 -0.1433
 7046TIP3    H142553   6.182   3.790  12.494  0.2005  0.7001  0.3228
 7046TIP3    H242554   6.300   3.755  12.582  0.3741 -0.1455 -0.2454
 7047TIP3   OH242555   3.234   0.597   4.886 -0.6983 -0.4718  0.2621
 7047TIP3    H142556   3.323   0.565   4.901 -0.8025 -0.7579  0.2752
 7047TIP3    H242557   3.236   0.636   4.799 -0.0790  1.2112  0.9696
 7048TIP3   OH242558   0.846   2.332   2.223 -0.7382 -0.0036  0.0330
 7048TIP3    H142559   0.935   2.351   2.195 -0.5503  0.4575  0.9113
 7048TIP3    H242560   0.854   2.256   2.281 -0.8167  0.4909  0.6997
 7049TIP3   OH242561   5.399   4.278  14.004  0.6089  0.5637 -0.4361
 7049TIP3    H142562   5.462   4.303  13.937  1.5024  0.3076  0.2914
 7049TIP3    H242563   5.435   4.315  14.085 -0.5049  0.9643 -0.1075
 7050TIP3   OH242564   6.760   2.903  15.193 -0.4143 -0.3192  0.4082
 7050TIP3    H142565   6.801   2.842  15.255 -0.6770 -2.5117 -1.4576
 7050TIP3    H242566   6.666   2.885  15.201 -0.6319  0.9258  0.8695
 7051TIP3   OH242567   5.526   6.266  11.463  0.2919 -0.7638  0.2648
 7051TIP3    H142568   5.537   6.184  11.414  0.5280 -0.2326 -0.5988
 7051TIP3    H242569   5.606   6.273  11.516 -0.9011 -2.4183  2.4228
 7052TIP3   OH242570   2.094   3.364  13.413  0.2698  0.7247 -0.2379
 7052TIP3    H142571   2.167   3.353  13.352  1.1124  0.5397  0.7907
 7052TIP3    H242572   2.022   3.315  13.373  1.0339 -0.0262 -0.7129
 7053TIP3   OH242573   5.485   5.811  15.860  0.4506 -0.0483 -0.5212
 7053TIP3    H142574   5.431   5.886  15.883  0.1102 -0.1960 -0.8272
 7053TIP3    H242575   5.430   5.735  15.878  0.3393 -0.1787 -1.3948
 7054TIP3   OH242576   4.233   5.044  10.935  0.3099  0.2899  0.1494
 7054TIP3    H142577   4.142   5.015  10.933  0.2847  0.3442  0.4446
 7054TIP3    H242578   4.272   4.993  11.006  0.4949  0.3123  0.0633
 7055TIP3   OH242579   5.355   2.178   4.666 -0.2651  0.4074 -0.3169
 7055TIP3    H142580   5.261   2.163   4.655 -0.1703  0.2443 -0.9195
 7055TIP3    H242581   5.377   2.241   4.598 -0.0312  0.8312  0.1458
 7056TIP3   OH242582   2.549   5.842  15.505 -0.2579  0.3070 -0.2272
 7056TIP3    H142583   2.471   5.897  15.493 -0.4204  0.7683  2.4829
 7056TIP3    H242584   2.622   5.904  15.509 -0.1491  0.1475  0.4136
 7057TIP3   OH242585   2.287   3.226   3.831 -0.4101 -0.0261  0.2800
 7057TIP3    H142586   2.226   3.201   3.901 -0.6041  0.6032  0.3421
 7057TIP3    H242587   2.371   3.235   3.876 -0.4388 -0.0800  0.3464
 7058TIP3   OH242588   4.497   6.754  14.625  0.7252 -0.6552 -0.0268
 7058TIP3    H142589   4.552   6.683  14.659  1.7888 -0.8215 -1.9749
 7058TIP3    H242590   4.440   6.711  14.562 -0.0546 -0.0835  0.2786
 7059TIP3   OH242591   1.279   4.381  11.037  0.0069  0.6179 -0.6376
 7059TIP3    H142592   1.197   4.412  10.998  0.5356  1.3542 -1.1762
 7059TIP3    H242593   1.347   4.435  10.998  0.6639  0.6954  0.5473
 7060TIP3   OH242594   0.185   3.198   4.694  0.0440 -0.3256  0.0974
 7060TIP3    H142595   0.128   3.128   4.725  1.3297 -0.5470  2.0676
 7060TIP3    H242596   0.273   3.171   4.718  0.7008  1.3998 -0.2168
 7061TIP3   OH242597   0.294   6.185   2.046  0.2161 -0.2188 -0.1051
 7061TIP3    H142598   0.309   6.246   1.973 -0.3420  0.8716  0.6669
 7061TIP3    H242599   0.356   6.114   2.031 -0.2785 -0.3187 -1.9617
 7062TIP3   OH242600   2.266   6.738  11.679 -0.1736 -0.5107 -0.5175
 7062TIP3    H142601   2.293   6.821  11.719  1.1405 -0.8312 -0.6744
 7062TIP3    H242602   2.275   6.674  11.750  1.4103 -0.9476 -1.0656
 7063TIP3   OH242603   0.468   0.613   3.769  0.3165 -0.1333  0.0192
 7063TIP3    H142604   0.408   0.688   3.773 -0.4432 -0.7597  0.5314
 7063TIP3    H242605   0.458   0.580   3.680  0.7844  0.4591 -0.2678
 7064TIP3   OH242606   0.497   0.949   5.718  0.3709  0.1024 -0.7092
 7064TIP3    H142607   0.514   0.857   5.740  2.0440  0.0922 -1.8631
 7064TIP3    H242608   0.479   0.991   5.802  1.4297 -0.9154  0.0603
 7065TIP3   OH242609   2.846   2.289  12.348  0.2847  0.4758  0.1050
 7065TIP3    H142610   2.751   2.277  12.346  0.2287  0.6665  1.0216
 7065TIP3    H242611   2.859   2.370  12.398  0.9541  0.0061  0.7209
 7066TIP3   OH242612   0.997   4.872  16.816  0.0093 -0.3635  0.3576
 7066TIP3    H142613   0.990   4.899  16.907  0.2141 -1.3909  0.6912
 7066TIP3    H242614   0.933   4.926  16.769  1.3218  1.6430  0.7503
 7067TIP3   OH242615   0.217   4.759  13.739  0.1241 -0.4375  0.1471
 7067TIP3    H142616   0.270   4.785  13.664  0.2903 -1.5806 -0.1449
 7067TIP3    H242617   0.130   4.793  13.719  0.8720  2.3254  1.0849
 7068TIP3   OH242618   0.363   1.617   6.638  0.0131  0.2985 -0.2061
 7068TIP3    H142619   0.302   1.682   6.605  1.2594  1.0357 -1.1809
 7068TIP3    H242620   0.368   1.551   6.568  1.0723  0.7770 -0.6094
 7069TIP3   OH242621   4.400   2.691  16.997  0.2726  0.2706 -0.3290
 7069TIP3    H142622   4.393   2.604  16.957  0.0818  0.5556 -0.9302
 7069TIP3    H242623   4.370   2.751  16.928  0.6581  0.8326 -0.0092
 7070TIP3   OH242624   1.676   4.476   0.121 -0.2332  0.3775 -0.4300
 7070TIP3    H142625   1.706   4.474   0.212 -1.6442  0.5111  0.0543
 7070TIP3    H242626   1.711   4.394   0.084 -1.9779 -1.1302  1.0322
 7071TIP3   OH242627   5.971   0.670   0.971  0.1405  0.0930  0.1464
 7071TIP3    H142628   5.957   0.751   1.020  0.9757  0.5108 -0.2733
 7071TIP3    H242629   5.884   0.644   0.941 -0.0194  1.3992 -0.5769
 7072TIP3   OH242630   1.898   1.059  11.719 -0.1302  0.0585 -0.4882
 7072TIP3    H142631   1.849   1.068  11.637 -1.0442  0.6167  0.0995
 7072TIP3    H242632   1.830   1.050  11.786  0.5685  1.0400  0.3658
 7073TIP3   OH242633   3.286   5.509  12.053 -0.9075  0.3060 -0.1899
 7073TIP3    H142634   3.257   5.540  12.139 -1.6667  1.7492 -0.9143
 7073TIP3    H242635   3.356   5.447  12.072 -1.6946 -0.1495  1.4967
 7074TIP3   OH242636   4.496   6.010  11.374  0.5154  0.0125 -0.4101
 7074TIP3    H142637   4.556   5.991  11.447 -0.0825 -0.8041 -0.1109
 7074TIP3    H242638   4.515   6.100  11.350  0.6214  0.3498  0.8670
 7075TIP3   OH242639   1.052   3.914   3.963 -0.4702  0.2526 -0.1284
 7075TIP3    H142640   1.038   3.989   3.906 -0.3711 -0.8366 -1.6588
 7075TIP3    H242641   1.144   3.919   3.988 -0.7249  1.2056  0.6478
 7076TIP3   OH242642   5.483   6.338   4.455 -0.8894 -0.7584 -0.2316
 7076TIP3    H142643   5.392   6.365   4.469 -0.4232 -0.3655  2.4352
 7076TIP3    H242644   5.528   6.419   4.431 -0.9014 -0.6173  0.2263
 7077TIP3   OH242645   3.797   2.931  13.547  0.6924 -0.0808 -0.1438
 7077TIP3    H142646   3.849   3.012  13.547  0.1503  0.3724  2.5659
 7077TIP3    H242647   3.725   2.949  13.487 -0.6930  2.4253  2.0897
 7078TIP3   OH242648   1.798   3.329   4.476  0.0842 -0.1478  0.5658
 7078TIP3    H142649   1.803   3.326   4.571 -0.3623 -0.3554  0.5875
 7078TIP3    H242650   1.719   3.278   4.455  1.8826 -2.9177 -0.0746
 7079TIP3   OH242651   1.727   3.361  16.455 -0.4043  0.4064  0.0769
 7079TIP3    H142652   1.703   3.453  16.464 -1.4976  0.1726 -0.2883
 7079TIP3    H242653   1.817   3.362  16.422 -0.6881  1.3435 -0.6945
 7080TIP3   OH242654   6.338   5.254   2.048  0.1915  0.4420  0.1157
 7080TIP3    H142655   6.337   5.179   1.989  0.9971  1.6253 -1.4658
 7080TIP3    H242656   6.249   5.260   2.081 -0.0316 -0.8303 -0.2082
 7081TIP3   OH242657   2.836   1.869   4.851  0.1527  0.4999  0.2857
 7081TIP3    H142658   2.916   1.921   4.844 -0.0521  0.7396 -0.4426
 7081TIP3    H242659   2.776   1.908   4.787 -0.0349 -0.5736 -0.2255
 7082TIP3   OH242660   3.701   5.475  12.547 -0.0004 -0.3179  0.2135
 7082TIP3    H142661   3.611   5.443  12.553 -0.3210  0.5156  0.0195
 7082TIP3    H242662   3.708   5.511  12.459  0.3858  0.0159  0.3765
 7083TIP3   OH242663   5.895   2.359  11.633  0.3843  0.1228 -0.5423
 7083TIP3    H142664   5.953   2.283  11.636  0.8954  0.5388  1.1404
 7083TIP3    H242665   5.829   2.341  11.699 -0.2718  0.5481 -1.0718
 7084TIP3   OH242666   6.226   4.115  13.242 -0.1854 -0.1444 -0.4571
 7084TIP3    H142667   6.163   4.081  13.179  0.0392 -0.5150 -0.4816
 7084TIP3    H242668   6.197   4.080  13.326 -1.2980  1.4452 -0.1135
 7085TIP3   OH242669   2.558   0.186   5.776 -1.0206  0.2399  1.1447
 7085TIP3    H142670   2.648   0.193   5.808 -1.3334  2.3361  1.7431
 7085TIP3    H242671   2.565   0.137   5.694  0.5272 -0.4706  1.6785
 7086TIP3   OH242672   0.085   0.031   1.822  1.0734  0.0189 -0.5224
 7086TIP3    H142673   0.151   0.036   1.753  0.5455  1.0106 -0.9741
 7086TIP3    H242674   0.081   0.120   1.858  1.4255 -0.5041  0.8799
 7087TIP3   OH242675   2.184   5.685  14.996 -0.6641 -0.4160 -0.5146
 7087TIP3    H142676   2.106   5.629  14.998 -0.0674 -1.3900  3.3623
 7087TIP3    H242677   2.152   5.770  14.965 -2.3633 -1.7806 -2.8475
 7088TIP3   OH242678   3.957   2.373   0.259  0.2174 -0.1016 -0.2420
 7088TIP3    H142679   4.022   2.417   0.315  1.4667 -0.6713 -1.2101
 7088TIP3    H242680   3.967   2.280   0.279  0.8536 -0.3390 -1.5622
 7089TIP3   OH242681   4.365   5.931  14.521 -0.3200 -0.3706 -0.3114
 7089TIP3    H142682   4.430   5.962  14.458 -0.7289 -1.8846 -1.5591
 7089TIP3    H242683   4.412   5.925  14.604  0.5411  0.5955 -0.7143
 7090TIP3   OH242684   3.546   3.644  12.746 -0.3973  0.2846  0.3279
 7090TIP3    H142685   3.464   3.602  12.722 -0.0026 -0.5563  0.4029
 7090TIP3    H242686   3.526   3.693  12.825 -1.0743  0.9449 -0.2357
 7091TIP3   OH242687   5.604   4.543  15.055 -0.2942 -0.0662 -0.5862
 7091TIP3    H142688   5.567   4.530  14.967 -0.3213 -0.8768 -0.4669
 7091TIP3    H242689   5.575   4.466  15.104  0.5252 -0.1036 -0.1410
 7092TIP3   OH242690   4.887   1.235  10.892  0.2998 -0.7015  0.5053
 7092TIP3    H142691   4.881   1.143  10.868  0.6156 -0.5057 -0.3484
 7092TIP3    H242692   4.818   1.277  10.841  1.6938 -0.1085 -0.9645
 7093TIP3   OH242693   4.818   4.651   0.607  0.1263 -0.1691  0.5080
 7093TIP3    H142694   4.832   4.655   0.513  0.2949  1.5451  0.5683
 7093TIP3    H242695   4.740   4.706   0.622  0.0748 -0.4519  1.3622
 7094TIP3   OH242696   3.443   1.704   5.053  0.5246  0.0760 -0.6175
 7094TIP3    H142697   3.455   1.742   5.140  0.2358  1.0668 -0.9980
 7094TIP3    H242698   3.469   1.612   5.063 -0.0222  0.0463  0.6311
 7095TIP3   OH242699   2.545   4.568  11.308  0.0612  0.0778 -0.2269
 7095TIP3    H142700   2.523   4.542  11.398  0.9215 -0.4153 -0.1521
 7095TIP3    H242701   2.582   4.489  11.269 -1.9431 -0.2664 -1.5980
 7096TIP3   OH242702   6.463   5.646  14.210  0.2577 -0.2829  0.0750
 7096TIP3    H142703   6.479   5.578  14.144  1.0505 -0.9859  0.9544
 7096TIP3    H242704   6.418   5.600  14.281  0.3444  0.2296  0.4687
 7097TIP3   OH242705   4.339   4.800   0.519 -0.4672 -0.3334  0.1399
 7097TIP3    H142706   4.359   4.731   0.457 -0.2957 -0.2664  0.1206
 7097TIP3    H242707   4.292   4.756   0.590 -2.2432 -0.1350 -0.8517
 7098TIP3   OH242708   6.164   1.925   1.748 -0.1045  0.7855 -0.0684
 7098TIP3    H142709   6.074   1.893   1.755  0.5257 -0.7201  2.1605
 7098TIP3    H242710   6.216   1.848   1.727  0.6857  1.6751 -1.5330
 7099TIP3   OH242711   5.142   2.863   5.380 -0.3345 -0.5891 -0.3142
 7099TIP3    H142712   5.109   2.779   5.347 -2.1584  0.2603 -0.7516
 7099TIP3    H242713   5.118   2.864   5.473  0.7237 -1.0164 -0.0178
 7100TIP3   OH242714   2.417   5.666  14.392 -0.2355 -0.2654  0.5665
 7100TIP3    H142715   2.369   5.713  14.460  1.4350  0.4140  1.3246
 7100TIP3    H242716   2.359   5.668  14.316 -1.6417 -0.0057  1.6074
 7101TIP3   OH242717   5.549   0.237  16.819 -0.2169  0.2889 -0.1161
 7101TIP3    H142718   5.485   0.308  16.821  0.5386  1.0200 -0.8635
 7101TIP3    H242719   5.512   0.169  16.875 -1.5978  0.7287 -0.4536
 7102TIP3   OH242720   6.131   3.313   4.394 -0.0774 -0.1709 -0.2660
 7102TIP3    H142721   6.040   3.342   4.394  0.2564  0.9845  0.7379
 7102TIP3    H242722   6.128   3.223   4.427 -0.7349  0.3200  1.0595
 7103TIP3   OH242723   1.580   4.101  16.688  0.2833 -0.3562 -0.0564
 7103TIP3    H142724   1.562   4.194  16.675  1.5539 -0.2492 -1.3442
 7103TIP3    H242725   1.502   4.067  16.733 -1.3242  0.8214 -1.7937
 7104TIP3   OH242726   2.534   2.822   1.519 -0.4336 -0.0199 -0.1611
 7104TIP3    H142727   2.496   2.771   1.447  1.8006  1.3615 -2.4614
 7104TIP3    H242728   2.620   2.782   1.534 -0.2494  0.6688  0.7309
 7105TIP3   OH242729   0.543   2.076  14.817  0.2580  0.1539  0.3925
 7105TIP3    H142730   0.588   1.996  14.792 -1.5310 -1.2850  1.4946
 7105TIP3    H242731   0.502   2.107  14.737 -0.8492 -1.3007  0.3607
 7106TIP3   OH242732   0.192   6.069  13.025 -0.3182 -0.4527  0.1216
 7106TIP3    H142733   0.123   6.011  13.058 -0.2388 -0.7715 -0.2627
 7106TIP3    H242734   0.173   6.154  13.064 -0.1441 -0.8552  1.1159
 7107TIP3   OH242735   0.979   2.554  14.830  0.2006  0.0395 -0.4236
 7107TIP3    H142736   1.000   2.524  14.918 -3.3759 -1.5304  0.0725
 7107TIP3    H242737   0.904   2.612  14.841  0.7742  1.2606 -2.3423
 7108TIP3   OH242738   1.819   0.756  11.731  0.2257  0.4862  0.0284
 7108TIP3    H142739   1.835   0.706  11.811  0.5068 -0.7826 -0.7879
 7108TIP3    H242740   1.767   0.831  11.759  1.1288  0.5822  1.5462
 7109TIP3   OH242741   1.978   3.272  16.258  0.7880  0.5251 -0.1852
 7109TIP3    H142742   2.027   3.203  16.303 -0.2574  0.2535  0.5747
 7109TIP3    H242743   1.994   3.351  16.308 -0.9529  0.0860  1.1807
 7110TIP3   OH242744   0.509   3.091  11.993  0.5344  0.4771  0.0450
 7110TIP3    H142745   0.498   3.007  12.036 -2.0811  0.2441 -0.9110
 7110TIP3    H242746   0.421   3.129  11.992  1.5428  3.0143 -0.0136
 7111TIP3   OH242747   6.069   5.779   4.470 -0.5806  0.6586 -0.6413
 7111TIP3    H142748   6.110   5.842   4.411  0.1989  0.2953 -0.5125
 7111TIP3    H242749   5.979   5.771   4.439  0.0108 -0.1149 -2.3089
 7112TIP3   OH242750   5.544   6.350   2.101  0.5881  0.0505 -0.4793
 7112TIP3    H142751   5.530   6.444   2.108  0.2750 -0.0633  0.7450
 7112TIP3    H242752   5.457   6.314   2.081  0.7270  0.0235 -1.0509
 7113TIP3   OH242753   5.602   3.474  15.415  0.4527  0.3532  0.4405
 7113TIP3    H142754   5.655   3.449  15.491 -0.7287  1.1552  1.5632
 7113TIP3    H242755   5.600   3.570  15.418 -0.5031  0.3561  0.0439
 7114TIP3   OH242756   5.684   0.952  13.183  0.2622  0.4451  0.2199
 7114TIP3    H142757   5.723   0.968  13.097 -0.6455 -0.1165 -0.3148
 7114TIP3    H242758   5.717   0.866  13.209  0.9024  0.8142  0.6540
 7115TIP3   OH242759   1.604   4.103   4.069 -0.9313  0.8471  0.2753
 7115TIP3    H142760   1.582   4.031   4.009  0.2339  1.4376 -0.9309
 7115TIP3    H242761   1.549   4.176   4.041 -0.0789  1.2542 -0.4111
 7116TIP3   OH242762   2.608   3.088   2.009 -0.0009  0.6463  0.3087
 7116TIP3    H142763   2.628   3.009   2.059  0.8665  1.5448  1.4276
 7116TIP3    H242764   2.609   3.059   1.917 -0.8407 -0.8678  0.7360
 7117TIP3   OH242765   4.275   2.613   2.203  0.2712  0.2362 -0.1451
 7117TIP3    H142766   4.324   2.584   2.280  0.7339 -1.6822 -1.0835
 7117TIP3    H242767   4.244   2.700   2.225 -2.0732 -1.2810  3.3591
 7118TIP3   OH242768   6.014   6.498  12.952  0.0737 -0.0052 -0.0819
 7118TIP3    H142769   5.953   6.425  12.944  0.3944 -0.2212 -0.6064
 7118TIP3    H242770   5.996   6.554  12.877 -0.5353  0.7463  0.6031
 7119TIP3   OH242771   1.733   1.397  15.836 -0.1282 -0.6195  0.4359
 7119TIP3    H142772   1.703   1.476  15.881  0.5950 -0.5965  0.8995
 7119TIP3    H242773   1.687   1.398  15.753 -1.5353 -0.6874  1.1833
 7120TIP3   OH242774   0.373   2.263   4.501  0.4830 -0.0563 -0.3707
 7120TIP3    H142775   0.462   2.244   4.471  0.1012 -1.5977 -0.6111
 7120TIP3    H242776   0.349   2.188   4.556  0.2674  1.5466  1.8793
 7121TIP3   OH242777   6.331   0.451   5.133 -0.7597  0.4108 -0.2979
 7121TIP3    H142778   6.406   0.422   5.185 -0.8336 -0.5810 -0.7255
 7121TIP3    H242779   6.365   0.525   5.082 -0.4594  0.8493  0.5287
 7122TIP3   OH242780   4.293   6.075  16.941  0.0058  0.3256 -0.1589
 7122TIP3    H142781   4.357   6.095  17.009 -0.8015 -0.2798  0.7946
 7122TIP3    H242782   4.283   6.157  16.892  1.1877  0.5437 -0.0757
 7123TIP3   OH242783   2.078   0.080   3.665 -0.3683 -0.3138 -0.2879
 7123TIP3    H142784   2.152   0.039   3.709 -0.5268 -0.4493 -0.1486
 7123TIP3    H242785   2.001   0.043   3.708 -0.5166  1.2263  0.8755
 7124TIP3   OH242786   0.163   4.362   1.979 -0.0762  0.0912 -0.2711
 7124TIP3    H142787   0.092   4.347   1.916 -0.5806  0.3564  0.2185
 7124TIP3    H242788   0.229   4.411   1.929 -0.3608  0.0886 -0.6584
 7125TIP3   OH242789   1.779   3.836   5.085  0.0704 -0.4400 -0.1855
 7125TIP3    H142790   1.700   3.890   5.090  0.5409  0.3005 -0.7224
 7125TIP3    H242791   1.798   3.814   5.176  0.7031  1.5173  0.2054
 7126TIP3   OH242792   5.938   1.519   2.292  0.5203 -0.2391  0.1282
 7126TIP3    H142793   5.895   1.435   2.307 -2.1720  1.0378  0.1651
 7126TIP3    H242794   5.950   1.556   2.380 -1.5942  0.8661  0.0193
 7127TIP3   OH242795   6.269   0.092   3.905 -0.0265  0.6766  0.0086
 7127TIP3    H142796   6.365   0.093   3.909  0.0143 -0.7561 -0.1273
 7127TIP3    H242797   6.248   0.006   3.869 -1.3255  1.5114 -1.3040
 7128TIP3   OH242798   1.549   1.435  12.515  0.3552  0.5332  0.0547
 7128TIP3    H142799   1.590   1.515  12.549  0.4756 -0.0003  1.1947
 7128TIP3    H242800   1.577   1.431  12.423 -0.8826  2.6106 -0.4903
 7129TIP3   OH242801   5.786   6.475   6.411 -0.1960 -0.1987 -0.5666
 7129TIP3    H142802   5.719   6.506   6.471  0.5953 -2.1790  1.4559
 7129TIP3    H242803   5.762   6.384   6.393 -0.1122  0.1786 -2.9001
 7130TIP3   OH242804   0.344   1.578   5.521  0.1609  0.3050 -0.5344
 7130TIP3    H142805   0.438   1.579   5.538  0.1167  0.7268 -0.2925
 7130TIP3    H242806   0.326   1.661   5.476  0.1016 -0.3399 -1.7321
 7131TIP3   OH242807   1.475   3.566   5.009  0.1514 -0.3025  0.5725
 7131TIP3    H142808   1.389   3.527   4.997  1.1500 -3.0367  1.4666
 7131TIP3    H242809   1.458   3.657   5.034 -2.4197 -0.6318  0.2396
 7132TIP3   OH242810   2.599   4.417   5.137  0.4078 -0.1542 -0.1278
 7132TIP3    H142811   2.656   4.461   5.200  1.1424 -0.6515 -0.4334
 7132TIP3    H242812   2.658   4.387   5.068 -0.2497 -0.5294 -0.5377
 7133TIP3   OH242813   3.954   2.152  11.400  0.3526 -0.1320 -0.4931
 7133TIP3    H142814   4.049   2.154  11.386  0.5876 -2.6306  0.2748
 7133TIP3    H242815   3.921   2.096  11.330 -0.3728 -0.3946  0.0483
 7134TIP3   OH242816   6.569   2.147   4.395  0.3707  0.2586 -0.2194
 7134TIP3    H142817   6.585   2.238   4.368 -1.1891  0.1678 -1.5757
 7134TIP3    H242818   6.477   2.146   4.421  1.1909 -0.2001  3.1531
 7135TIP3   OH242819   4.271   6.210  13.507  0.1205 -0.9641 -0.3187
 7135TIP3    H142820   4.310   6.147  13.446 -1.7041 -1.2687 -1.2352
 7135TIP3    H242821   4.210   6.158  13.559  0.1002 -0.3093  0.3240
 7136TIP3   OH242822   6.103   1.803   2.542 -0.4644 -0.1814  0.0367
 7136TIP3    H142823   6.008   1.797   2.539 -0.6497  0.7527  2.1372
 7136TIP3    H242824   6.120   1.888   2.584  1.3459  0.5702 -2.0262
 7137TIP3   OH242825   5.751   6.601   3.343 -0.2499  0.2365 -0.6518
 7137TIP3    H142826   5.707   6.516   3.349  2.3802 -1.2057 -0.3669
 7137TIP3    H242827   5.819   6.597   3.410  1.6310  1.4857 -2.3849
 7138TIP3   OH242828   5.723   1.625   3.267 -0.2472 -0.3143  0.3037
 7138TIP3    H142829   5.711   1.691   3.198  1.0996  1.1727  1.4061
 7138TIP3    H242830   5.647   1.634   3.323 -0.5956 -0.4527 -0.1435
 7139TIP3   OH242831   5.747   3.945  12.427  0.7087 -0.2280  0.2160
 7139TIP3    H142832   5.683   3.878  12.451  0.1940 -0.6171 -1.9507
 7139TIP3    H242833   5.761   3.931  12.333  2.2844  1.2998  0.1766
 7140TIP3   OH242834   2.286   6.766   5.102  0.9275 -0.0544  0.0902
 7140TIP3    H142835   2.333   6.824   5.042  1.3407 -0.0166  0.4497
 7140TIP3    H242836   2.210   6.817   5.131  1.7723  0.6639  1.1141
 7141TIP3   OH242837   0.965   0.240  13.511  0.0865  0.2788 -0.6069
 7141TIP3    H142838   0.890   0.299  13.502  1.0820  1.5732 -0.7392
 7141TIP3    H242839   0.962   0.210  13.602 -0.4328  0.5413 -0.5344
 7142TIP3   OH242840   5.055   2.144   0.058  0.4311  0.3432  0.0882
 7142TIP3    H142841   5.128   2.193   0.020  0.4919  0.0645 -0.1661
 7142TIP3    H242842   4.989   2.144  -0.011  0.7740 -0.6866 -0.2691
 7143TIP3   OH242843   3.679   1.103  14.828  0.0196  0.2934  0.1530
 7143TIP3    H142844   3.656   1.035  14.891  0.9516 -1.7425 -1.6030
 7143TIP3    H242845   3.599   1.116  14.777 -0.2290  0.7085  0.6406
 7144TIP3   OH242846   0.611   5.542  13.885  0.0984  0.0400  0.0660
 7144TIP3    H142847   0.641   5.503  13.967 -2.7301  0.4440  1.4060
 7144TIP3    H242848   0.557   5.475  13.844 -2.3612  1.3394  0.9381
 7145TIP3   OH242849   6.022   5.678   5.774 -0.1098  0.2201  0.0029
 7145TIP3    H142850   6.009   5.594   5.732  0.2614 -0.1934  0.6939
 7145TIP3    H242851   6.091   5.663   5.838 -2.0767  0.2352  2.2919
 7146TIP3   OH242852   1.388   2.547  14.763  0.6095  0.1953  0.4329
 7146TIP3    H142853   1.471   2.594  14.758  0.8618 -0.2099  0.8145
 7146TIP3    H242854   1.380   2.505  14.677 -0.2137  1.9057 -0.3876
 7147TIP3   OH242855   5.136   3.186  12.124 -0.0967 -0.0531 -0.2659
 7147TIP3    H142856   5.050   3.169  12.085  0.8309  0.0161 -2.5114
 7147TIP3    H242857   5.193   3.119  12.085  1.6447  2.2255 -1.8590
 7148TIP3   OH242858   6.205   1.226  10.341  0.1128  0.2940 -1.2954
 7148TIP3    H142859   6.225   1.218  10.435 -1.7978  0.0001 -0.8722
 7148TIP3    H242860   6.218   1.138  10.307  0.5919  0.3508 -1.2693
 7149TIP3   OH242861   4.741   3.446   5.659 -0.0785  0.0137 -0.3664
 7149TIP3    H142862   4.680   3.463   5.731  0.2105 -1.0908  0.1632
 7149TIP3    H242863   4.819   3.495   5.682  0.0843 -0.4885  0.1979
 7150TIP3   OH242864   5.477   3.599   5.027 -0.2948  0.6669  0.7855
 7150TIP3    H142865   5.495   3.508   5.050 -1.2852  0.0688 -0.6555
 7150TIP3    H242866   5.403   3.594   4.967 -0.1009  2.4037  0.3569
 7151TIP3   OH242867   0.917   4.160   3.016  0.0747  0.5356  0.0982
 7151TIP3    H142868   1.013   4.155   3.024  0.2547  1.0666 -1.4672
 7151TIP3    H242869   0.886   4.077   3.053  1.3178 -0.7840 -1.6556
 7152TIP3   OH242870   4.003   0.131   2.396 -0.1304  0.1563  0.3753
 7152TIP3    H142871   4.051   0.100   2.473 -0.5466 -0.7768  0.2765
 7152TIP3    H242872   4.057   0.201   2.360 -0.7843  1.8941  2.5407
 7153TIP3   OH242873   4.868   2.056   6.279  0.1192 -0.3818  0.0512
 7153TIP3    H142874   4.865   2.036   6.185  0.6558  0.1948 -0.0928
 7153TIP3    H242875   4.778   2.044   6.308  0.1737 -1.7792 -0.2776
 7154TIP3   OH242876   3.505   1.958   0.390  0.2557 -0.0382 -0.0159
 7154TIP3    H142877   3.484   1.912   0.309 -0.8520 -0.5897  0.5638
 7154TIP3    H242878   3.552   2.037   0.361  0.9050 -0.7939 -1.1067
 7155TIP3   OH242879   0.721   4.775  14.840 -0.2808  0.3388  0.2373
 7155TIP3    H142880   0.786   4.837  14.809  0.4863  0.1261  1.3410
 7155TIP3    H242881   0.682   4.738  14.760  1.3597  0.0549 -0.4770
 7156TIP3   OH242882   3.958   4.919  11.885  0.4324  0.3394  0.1808
 7156TIP3    H142883   3.949   4.826  11.904  0.1455  0.6206  1.5165
 7156TIP3    H242884   4.015   4.923  11.808 -0.8478 -0.9928 -0.8975
 7157TIP3   OH242885   6.806   1.307  15.017 -0.1415  0.0808  0.7324
 7157TIP3    H142886   6.857   1.226  15.017 -1.8271 -1.0217  0.2298
 7157TIP3    H242887   6.722   1.283  15.055 -0.7774  1.5411  0.3226
 7158TIP3   OH242888   6.618   3.466  11.495 -0.2354  0.0767 -0.3791
 7158TIP3    H142889   6.548   3.530  11.478 -0.4656 -0.0211  0.1542
 7158TIP3    H242890   6.587   3.385  11.453  0.1377  0.3576 -1.2041
 7159TIP3   OH242891   0.710   1.525   4.465  0.2310 -0.1795 -0.5417
 7159TIP3    H142892   0.784   1.585   4.460 -0.3902  0.7887  1.0169
 7159TIP3    H242893   0.635   1.576   4.434 -0.2409 -0.2412  0.4498
 7160TIP3   OH242894   2.885   4.853   4.111 -0.7536 -0.1377  0.1296
 7160TIP3    H142895   2.929   4.828   4.030  2.7404 -0.1301  1.8095
 7160TIP3    H242896   2.858   4.769   4.150 -0.9446 -0.2654 -0.2724
 7161TIP3   OH242897   2.879   0.025   0.453  0.5951 -0.3136 -0.2595
 7161TIP3    H142898   2.958   0.077   0.468  0.5692  0.1306 -1.5484
 7161TIP3    H242899   2.885  -0.002   0.361 -0.1791 -1.2626 -0.0514
 7162TIP3   OH242900   4.965   5.471   0.231  0.0042  0.4141 -0.1348
 7162TIP3    H142901   4.933   5.388   0.195  1.8266 -0.3226 -0.1359
 7162TIP3    H242902   4.973   5.454   0.325 -0.3759  0.8676 -0.0160
 7163TIP3   OH242903   2.050   4.881  12.214  0.0089  0.1108 -0.0457
 7163TIP3    H142904   2.101   4.898  12.135  2.0502  1.1144  1.4143
 7163TIP3    H242905   2.039   4.786  12.216  0.8279 -0.0151 -0.9757
 7164TIP3   OH242906   4.738   5.151   4.403  0.2610  0.1765 -0.5346
 7164TIP3    H142907   4.764   5.236   4.369  1.0923  0.0354 -0.2693
 7164TIP3    H242908   4.664   5.169   4.460  0.2503  0.6829 -0.7082
 7165TIP3   OH242909   6.705   4.843  11.446  0.3103 -0.0751 -0.0600
 7165TIP3    H142910   6.775   4.792  11.404  0.0575 -1.8301  1.5257
 7165TIP3    H242911   6.717   4.828  11.540 -2.4040 -0.7730  0.2730
 7166TIP3   OH242912   2.473   2.661   6.440  0.4374 -0.1548 -0.5910
 7166TIP3    H142913   2.548   2.604   6.424 -0.0298 -1.3103  1.0169
 7166TIP3    H242914   2.485   2.735   6.380  1.1353 -1.8525 -2.6703
 7167TIP3   OH242915   6.682   2.716   4.310 -0.7726 -0.0426 -0.1801
 7167TIP3    H142916   6.648   2.639   4.266  0.3306  0.4574 -1.9813
 7167TIP3    H242917   6.633   2.789   4.272 -1.2975  0.2418  0.9852
 7168TIP3   OH242918   2.744   3.154   3.521 -0.4506  0.1099 -0.3122
 7168TIP3    H142919   2.770   3.177   3.432 -0.7742 -1.5771 -0.8704
 7168TIP3    H242920   2.728   3.060   3.518 -0.5793  0.0431  1.5097
 7169TIP3   OH242921   5.066   2.687  12.935  0.2168 -0.3424 -0.3335
 7169TIP3    H142922   5.060   2.753  13.003  0.3021 -1.1899  0.5127
 7169TIP3    H242923   4.994   2.708  12.875 -2.2101 -1.6738  1.9161
 7170TIP3   OH242924   1.252   0.973  11.980 -0.4007  0.2315  0.0425
 7170TIP3    H142925   1.280   1.059  11.952 -1.1269 -0.0398 -1.6051
 7170TIP3    H242926   1.309   0.952  12.054  2.8092  0.2775 -2.2241
 7171TIP3   OH242927   5.900   1.839   5.871 -0.0858  0.3582 -0.6975
 7171TIP3    H142928   5.947   1.858   5.790 -0.6106  1.6095 -0.7323
 7171TIP3    H242929   5.861   1.923   5.896 -0.4745 -0.1636  0.4978
 7172TIP3   OH242930   3.386   0.623   2.224 -0.1896 -0.3827 -0.2832
 7172TIP3    H142931   3.362   0.630   2.317  1.3164  0.3714  0.0750
 7172TIP3    H242932   3.351   0.538   2.197 -2.1810  0.1301  0.4817
 7173TIP3   OH242933   5.601   5.414   6.379  0.1899  0.1794 -0.2592
 7173TIP3    H142934   5.615   5.324   6.410  2.5826  0.4861 -0.3012
 7173TIP3    H242935   5.662   5.467   6.431  0.6535  1.4231 -1.9858
 7174TIP3   OH242936   0.184   0.739  16.577 -0.2793  0.4592  0.1931
 7174TIP3    H142937   0.162   0.746  16.484 -0.4952  4.2201  0.3720
 7174TIP3    H242938   0.118   0.793  16.621  1.0348  0.4514  2.3011
 7175TIP3   OH242939   2.900   0.528   1.548  0.0282  0.4353  0.4905
 7175TIP3    H142940   2.859   0.509   1.463  0.6662  0.0980  0.2490
 7175TIP3    H242941   2.904   0.624   1.551 -0.1502  0.4539  0.2075
 7176TIP3   OH242942   3.109   1.535   4.999 -0.2751  0.0211  0.8135
 7176TIP3    H142943   3.047   1.575   5.059 -0.9121  1.9098 -0.9791
 7176TIP3    H242944   3.165   1.607   4.969 -0.8860 -0.4886 -1.8612
 7177TIP3   OH242945   4.406   4.000  15.328  0.0010  0.0646  0.2353
 7177TIP3    H142946   4.439   3.963  15.410  0.6687 -2.3242 -1.0015
 7177TIP3    H242947   4.475   3.981  15.264 -1.5026 -0.3019 -1.3479
 7178TIP3   OH242948   2.494   0.537  12.202  0.3731  0.1856 -0.2276
 7178TIP3    H142949   2.484   0.450  12.242 -2.1293  0.1960 -0.6751
 7178TIP3    H242950   2.428   0.539  12.133  0.9320  2.1705 -0.7610
 7179TIP3   OH242951   1.298   5.399  13.749  0.5923 -0.1030 -0.0365
 7179TIP3    H142952   1.316   5.329  13.812  1.9286  1.1983  1.1297
 7179TIP3    H242953   1.378   5.407  13.698 -0.2487 -0.6983 -1.5001
 7180TIP3   OH242954   3.604   1.098  12.982  0.3948  0.0429  0.5244
 7180TIP3    H142955   3.598   1.003  12.974 -1.4426  0.2251 -0.8536
 7180TIP3    H242956   3.694   1.118  12.958  0.5889 -1.2697  0.0601
 7181TIP3   OH242957   5.253   0.915  15.513 -0.6988  0.6550  0.3901
 7181TIP3    H142958   5.298   1.000  15.512 -0.4934  0.6235 -2.9882
 7181TIP3    H242959   5.161   0.937  15.500 -0.7141  0.3843  0.0383
 7182TIP3   OH242960   3.099   0.543   1.839 -0.0382  0.0255 -0.8606
 7182TIP3    H142961   3.003   0.554   1.838  0.1460  2.1455 -1.5149
 7182TIP3    H242962   3.131   0.612   1.781  1.9525 -0.0553  0.0658
 7183TIP3   OH242963   5.292   3.237   2.786  0.4358 -0.0562 -0.4585
 7183TIP3    H142964   5.365   3.219   2.845 -0.9233 -2.8516  0.5626
 7183TIP3    H242965   5.234   3.294   2.836 -0.0511 -1.3081  0.4728
 7184TIP3   OH242966   0.887   1.473   3.764 -0.0030  0.1832  0.4098
 7184TIP3    H142967   0.916   1.555   3.805  0.4240 -1.0159  2.6698
 7184TIP3    H242968   0.935   1.470   3.682 -0.0388  2.1864  0.2536
 7185TIP3   OH242969   0.104   1.448  15.753 -0.4163  0.0702  0.3914
 7185TIP3    H142970   0.180   1.471  15.700 -0.3714  0.9242  0.8069
 7185TIP3    H242971   0.107   1.508  15.827 -2.5970  1.5009 -0.5914
 7186TIP3   OH242972   2.945   0.121   5.105 -0.2719 -0.0212  0.6811
 7186TIP3    H142973   2.949   0.216   5.095  1.1285 -0.0441  0.7618
 7186TIP3    H242974   2.965   0.087   5.017 -1.2168 -0.2535  0.5461
 7187TIP3   OH242975   4.838   5.564  12.760 -0.1515  1.1443  0.1419
 7187TIP3    H142976   4.909   5.608  12.806  2.2146 -1.2928 -0.8702
 7187TIP3    H242977   4.856   5.580  12.667 -0.7054  0.2093 -0.1466
 7188TIP3   OH242978   1.784   3.331   4.792  0.0257 -0.3283 -0.3912
 7188TIP3    H142979   1.723   3.274   4.839  0.0511 -1.0327 -1.1860
 7188TIP3    H242980   1.743   3.418   4.796 -0.6172 -0.6334 -0.1947
 7189TIP3   OH242981   5.606   2.479  11.167 -0.3035  0.2587  0.5426
 7189TIP3    H142982   5.672   2.427  11.213 -0.3864  1.2987  1.8866
 7189TIP3    H242983   5.564   2.417  11.108  1.8026 -0.4658 -0.3004
 7190TIP3   OH242984   5.936   4.176   4.736 -0.3014  0.2012 -0.2279
 7190TIP3    H142985   5.999   4.115   4.697 -0.5522  1.0416 -2.0079
 7190TIP3    H242986   5.881   4.120   4.791  0.2489 -0.9836 -0.8350
 7191TIP3   OH242987   6.345   4.073  11.494 -0.3184  0.3157  0.3198
 7191TIP3    H142988   6.298   4.035  11.420 -0.1156  2.6691 -1.1165
 7191TIP3    H242989   6.435   4.043  11.484 -0.3671  0.3413 -0.1950
 7192TIP3   OH242990   1.523   4.346   4.621  0.4278 -0.2859 -0.1336
 7192TIP3    H142991   1.565   4.422   4.581  1.3898 -0.5787  0.2943
 7192TIP3    H242992   1.443   4.333   4.569  1.5387 -0.5369 -1.8605
 7193TIP3   OH242993   2.643   0.233  13.379  0.5417 -0.4258  0.1013
 7193TIP3    H142994   2.595   0.276  13.308  0.2589  0.7075  0.9320
 7193TIP3    H242995   2.590   0.251  13.457  0.7100 -1.8619  0.5719
 7194TIP3   OH242996   0.122   3.007  13.226  0.3935  0.4001  0.2918
 7194TIP3    H142997   0.079   2.941  13.279 -3.0171  1.3556 -1.0588
 7194TIP3    H242998   0.146   2.963  13.145 -0.8161  0.5197 -0.1413
 7195TIP3   OH242999   4.190   1.338  14.933 -0.3239 -0.5300 -0.6268
 7195TIP3    H143000   4.102   1.345  14.897  0.0341  1.0272 -1.2804
 7195TIP3    H243001   4.192   1.404  15.003  0.5516  0.0140 -1.1468
 7196TIP3   OH243002   3.894   0.334  15.038 -0.6469 -0.7616 -0.2179
 7196TIP3    H143003   3.967   0.275  15.058  0.4247  0.4335 -0.4723
 7196TIP3    H243004   3.876   0.318  14.945 -0.9421 -1.2871 -0.0777
 7197TIP3   OH243005   5.567   5.070   3.774  0.5825  0.2665 -0.2802
 7197TIP3    H143006   5.505   5.117   3.718  0.9627  1.1193 -0.0071
 7197TIP3    H243007   5.534   5.084   3.863  0.9956  0.4715 -0.1561
 7198TIP3   OH243008   1.551   5.561   1.011  0.3066 -0.1775 -0.7188
 7198TIP3    H143009   1.599   5.589   1.089  1.0018  1.1632 -1.5975
 7198TIP3    H243010   1.619   5.531   0.950 -0.2739 -1.8760 -0.6013
 7199TIP3   OH243011   1.843   2.079  16.478  0.4383  0.1113 -0.6889
 7199TIP3    H143012   1.788   2.100  16.403  0.7304 -0.4524 -1.0711
 7199TIP3    H243013   1.886   2.162  16.499  1.3618  0.0019 -1.9937
 7200TIP3   OH243014   4.333   6.765   0.423 -0.1603 -0.9487 -0.1274
 7200TIP3    H143015   4.350   6.815   0.343 -0.3966 -1.5150 -0.5384
 7200TIP3    H243016   4.314   6.832   0.490  0.3992 -0.4560 -0.4519
 7201TIP3   OH243017   0.578   3.692   4.934  0.2589  0.5561 -0.0553
 7201TIP3    H143018   0.488   3.690   4.967  0.7392 -2.1535  1.3822
 7201TIP3    H243019   0.621   3.760   4.987 -0.3565  0.1381  1.0226
 7202TIP3   OH243020   4.392   5.827   4.032 -0.0474  0.1246 -0.6904
 7202TIP3    H143021   4.357   5.778   3.958  1.1403  1.6480 -2.3489
 7202TIP3    H243022   4.329   5.897   4.047 -0.5246 -0.4561  0.0822
 7203TIP3   OH243023   3.015   6.292   0.277 -0.3196  0.1189  0.1913
 7203TIP3    H143024   2.981   6.306   0.365 -1.1827  2.3137 -0.4303
 7203TIP3    H243025   3.009   6.197   0.264 -2.4242 -0.0192  1.6249
 7204TIP3   OH243026   5.029   5.449   4.075 -0.5791  0.6261 -0.4482
 7204TIP3    H143027   5.018   5.363   4.116 -0.8864  0.2725 -1.2429
 7204TIP3    H243028   4.942   5.470   4.041 -0.7363  1.7031  0.5731
 7205TIP3   OH243029   5.408   4.459  15.973 -0.2634  0.7824  0.3271
 7205TIP3    H143030   5.451   4.496  15.896 -0.4341  0.6555  0.1709
 7205TIP3    H243031   5.346   4.526  16.002  0.8061  1.4394  1.2146
 7206TIP3   OH243032   2.173   4.428   0.312 -0.0576  0.2281  0.0585
 7206TIP3    H143033   2.135   4.377   0.384  2.9034  0.0263  1.6485
 7206TIP3    H243034   2.106   4.492   0.290 -1.4182 -0.2555  2.4530
 7207TIP3   OH243035   4.039   0.489  13.214  0.4882  0.0345 -0.2899
 7207TIP3    H143036   3.972   0.473  13.281  0.8044  1.1448  0.3336
 7207TIP3    H243037   4.053   0.404  13.173 -2.1859 -0.0191 -1.3025
 7208TIP3   OH243038   4.409   6.644  12.514  0.5842 -0.0411  0.2175
 7208TIP3    H143039   4.409   6.721  12.571 -0.2770 -0.8101  1.3071
 7208TIP3    H243040   4.500   6.636  12.486  0.7018  1.3251  0.1341
 7209TIP3   OH243041   6.669   4.263  16.118  0.4361 -0.0511  0.4495
 7209TIP3    H143042   6.644   4.314  16.196  0.3004 -0.1961  0.5009
 7209TIP3    H243043   6.750   4.303  16.089 -0.5332  1.3004 -0.5171
 7210TIP3   OH243044   5.593   5.478  16.230 -0.1340  0.0067  0.3206
 7210TIP3    H143045   5.567   5.548  16.290  3.9678 -0.1997  2.7106
 7210TIP3    H243046   5.533   5.406  16.249 -1.5022  1.3053  1.1418
 7211TIP3   OH243047   0.455   6.592   4.135  0.2360  0.6931 -0.2088
 7211TIP3    H143048   0.541   6.552   4.129 -0.4993 -0.8562 -1.1238
 7211TIP3    H243049   0.443   6.609   4.228  0.9512 -0.4343  0.1129
 7212TIP3   OH243050   4.184   4.956  14.532 -0.2179  0.3845 -0.0511
 7212TIP3    H143051   4.199   4.863  14.513 -1.7826  0.3897 -1.5255
 7212TIP3    H243052   4.112   4.956  14.596  2.3927  0.5332  3.1973
 7213TIP3   OH243053   2.650   5.077   0.286  0.4657 -0.6362 -0.3693
 7213TIP3    H143054   2.657   5.172   0.294 -0.4137 -0.5154 -0.9430
 7213TIP3    H243055   2.610   5.049   0.368 -1.7816 -0.1993 -1.2676
 7214TIP3   OH243056   1.576   1.631   3.348  0.0371 -0.6737  0.3485
 7214TIP3    H143057   1.610   1.542   3.335 -1.1538 -1.2621  1.0420
 7214TIP3    H243058   1.509   1.641   3.280  0.1577 -0.3131  0.2815
 7215TIP3   OH243059   6.506   2.689  14.688 -0.1844 -0.2388  0.3925
 7215TIP3    H143060   6.465   2.773  14.708 -0.6091 -0.4634  0.4890
 7215TIP3    H243061   6.561   2.670  14.764 -1.1961 -0.7224  1.0275
 7216TIP3   OH243062   1.959   4.790   3.034  0.1286  0.4278  0.0638
 7216TIP3    H143063   1.916   4.873   3.054 -0.2266  0.2597  0.0021
 7216TIP3    H243064   1.937   4.773   2.942  0.2239  0.2758  0.0679
 7217TIP3   OH243065   1.405   5.271  12.780  0.6285 -0.0094  0.3829
 7217TIP3    H143066   1.359   5.307  12.704  2.1137 -0.9412 -1.0328
 7217TIP3    H243067   1.496   5.297  12.767  1.0416 -0.8381  1.4675
 7218TIP3   OH243068   6.286   5.403   2.498 -0.4065  0.2332  0.1068
 7218TIP3    H143069   6.322   5.348   2.428  0.6428  1.1179 -0.0668
 7218TIP3    H243070   6.247   5.477   2.453 -2.2764 -0.5581  0.3093
 7219TIP3   OH243071   2.219   6.773  14.504 -0.3426 -0.4339 -0.6898
 7219TIP3    H143072   2.161   6.787  14.429 -1.2220  3.2537  0.4933
 7219TIP3    H243073   2.164   6.728  14.568 -0.5494 -0.7193 -1.0590
 7220TIP3   OH243074   2.875   5.687  13.504 -0.7199 -0.0297  0.1642
 7220TIP3    H143075   2.887   5.742  13.582 -4.3841  2.7912 -0.9482
 7220TIP3    H243076   2.939   5.721  13.441  0.6065 -0.7031  1.0939
 7221TIP3   OH243077   4.305   4.646   1.698  0.2081 -0.0091 -1.0969
 7221TIP3    H143078   4.296   4.556   1.668  0.7560 -0.4448 -0.0174
 7221TIP3    H243079   4.225   4.689   1.671 -0.5868 -1.1322 -0.6126
 7222TIP3   OH243080   6.807   4.149  12.645 -0.4500 -0.1372 -0.4397
 7222TIP3    H143081   6.715   4.142  12.667 -0.7681  2.1422 -0.8400
 7222TIP3    H243082   6.845   4.202  12.714  0.1615  0.4870 -1.2321
 7223TIP3   OH243083   5.757   2.794  11.818  0.5833 -0.9398  0.1517
 7223TIP3    H143084   5.703   2.865  11.785 -0.2256  0.1861  3.4781
 7223TIP3    H243085   5.845   2.811  11.783 -0.0708  0.3727 -0.9254
 7224TIP3   OH243086   0.430   5.377   0.409 -0.2128  0.6926 -0.2020
 7224TIP3    H143087   0.383   5.299   0.438 -0.9053  0.5004 -1.7454
 7224TIP3    H243088   0.488   5.399   0.482 -2.3812  0.6947  1.6274
 7225TIP3   OH243089   5.257   1.128   5.477 -0.2010  0.3017 -0.2362
 7225TIP3    H143090   5.222   1.063   5.537  1.5619  1.7263  2.5526
 7225TIP3    H243091   5.180   1.164   5.433 -1.8002  0.1382  2.2432
 7226TIP3   OH243092   2.031   2.799  12.614  0.4888  0.4420  0.4656
 7226TIP3    H143093   2.010   2.772  12.525  1.4051  0.1371  0.3274
 7226TIP3    H243094   1.986   2.735  12.670 -1.4258  1.5712  0.3019
 7227TIP3   OH243095   3.812   5.823   5.954 -0.3000  0.5407 -0.4672
 7227TIP3    H143096   3.773   5.750   5.907 -0.0059  0.2044 -0.1955
 7227TIP3    H243097   3.866   5.782   6.021  0.6956  0.9984 -0.9721
 7228TIP3   OH243098   6.082   2.220  10.951 -0.5119 -0.0242  0.2662
 7228TIP3    H143099   5.998   2.176  10.959  0.2602 -1.5771  0.2575
 7228TIP3    H243100   6.107   2.208  10.859 -0.9047  1.6599 -0.0874
 7229TIP3   OH243101   4.915   2.136   1.734  0.1300 -0.3306 -0.1289
 7229TIP3    H143102   4.989   2.102   1.684  0.5157 -1.0711  0.9239
 7229TIP3    H243103   4.952   2.164   1.817 -0.7280 -0.4560  0.3069
 7230TIP3   OH243104   4.536   5.398  11.513  0.1284  0.5657  0.1289
 7230TIP3    H143105   4.473   5.431  11.449  0.1405  0.5864  0.1270
 7230TIP3    H243106   4.581   5.326  11.468 -0.9392 -0.4606  0.6554
 7231TIP3   OH243107   0.231   4.247  16.804  0.1368 -0.1761  0.4851
 7231TIP3    H143108   0.242   4.177  16.739 -0.1488  1.6628 -1.6494
 7231TIP3    H243109   0.316   4.290  16.809 -0.2916  0.7406  0.0588
 7232TIP3   OH243110   0.897   0.421   1.160 -0.2181 -0.1585 -0.3187
 7232TIP3    H143111   0.959   0.409   1.233  0.0830 -0.4179 -0.6139
 7232TIP3    H243112   0.866   0.332   1.140  0.3406 -0.1969 -1.0577
 7233TIP3   OH243113   6.796   2.723  13.990 -0.3722  0.1607 -0.5732
 7233TIP3    H143114   6.835   2.684  13.912 -1.8089 -0.5011 -0.9887
 7233TIP3    H243115   6.864   2.713  14.057  0.2657 -0.7545 -1.3164
 7234TIP3   OH243116   0.091   4.370  13.009 -0.5826  0.3167  0.5429
 7234TIP3    H143117   0.115   4.277  13.008 -1.2088  0.1330 -1.1532
 7234TIP3    H243118  -0.002   4.370  12.989 -0.1138  1.3805 -1.9967
 7235TIP3   OH243119   2.942   4.930  10.471  0.0862  0.1474  0.2257
 7235TIP3    H143120   2.852   4.964  10.467  0.3351  0.8421  0.4489
 7235TIP3    H243121   2.987   4.973  10.399  0.4309  0.3645  0.5698
 7236TIP3   OH243122   4.826   6.680  15.024  0.2908  0.1695  0.3689
 7236TIP3    H143123   4.874   6.597  15.030 -0.0377  0.0520  2.8926
 7236TIP3    H243124   4.882   6.737  14.972  1.5409 -0.9897  0.3702
 7237TIP3   OH243125   4.256   0.003   4.965  0.1727 -0.2290  0.1025
 7237TIP3    H143126   4.244   0.049   5.048 -0.4650  0.7639 -0.5172
 7237TIP3    H243127   4.334   0.043   4.926 -0.6769  0.7183 -0.6718
 7238TIP3   OH243128   3.409   1.481  11.398  0.3733 -0.4798 -0.3960
 7238TIP3    H143129   3.367   1.453  11.479  0.9339  2.4775  1.0469
 7238TIP3    H243130   3.355   1.553  11.366  2.2212  0.9497 -0.5031
 7239TIP3   OH243131   1.096   4.946   2.611  0.2723  0.4467 -0.4733
 7239TIP3    H143132   1.146   4.966   2.690 -0.2815 -0.1620  0.0414
 7239TIP3    H243133   1.043   4.870   2.635  1.4406 -0.9224 -1.9895
 7240TIP3   OH243134   6.221   0.020   2.800  0.4820  0.7572  0.0043
 7240TIP3    H143135   6.226  -0.048   2.732  0.5240  1.5431 -0.7888
 7240TIP3    H243136   6.299   0.006   2.854  2.4034  2.2906 -2.1969
 7241TIP3   OH243137   4.762   5.636   6.170 -0.0278 -0.0377 -0.5819
 7241TIP3    H143138   4.827   5.568   6.152 -0.9492 -1.0053 -0.3311
 7241TIP3    H243139   4.732   5.618   6.259 -0.4163  0.5964 -0.5794
 7242TIP3   OH243140   0.189   2.444   2.257 -0.2735  0.8466  0.6772
 7242TIP3    H143141   0.283   2.431   2.271 -0.6549 -1.2722  1.6161
 7242TIP3    H243142   0.167   2.384   2.185 -1.3171 -0.6369  2.1534
 7243TIP3   OH243143   0.641   2.224   0.742 -0.1092 -0.4866  0.1359
 7243TIP3    H143144   0.696   2.286   0.789  2.3848 -1.0795 -1.7556
 7243TIP3    H243145   0.587   2.279   0.685  0.3578  0.0324  0.1846
 7244TIP3   OH243146   3.652   5.792   0.356 -0.2923  0.2053 -0.1607
 7244TIP3    H143147   3.655   5.880   0.394  0.7036  1.0250 -2.0280
 7244TIP3    H243148   3.743   5.770   0.338 -0.6777 -0.4406 -1.3937
 7245TIP3   OH243149   6.009   4.370  12.636  0.6956  0.1319 -0.3021
 7245TIP3    H143150   5.975   4.285  12.609  0.3743 -0.2857  1.3352
 7245TIP3    H243151   5.949   4.400  12.704  1.4396  1.1623 -0.0687
 7246TIP3   OH243152   1.408   2.770  15.357  0.3601  0.6524  0.5963
 7246TIP3    H143153   1.461   2.843  15.389 -0.1355  1.9654 -1.4189
 7246TIP3    H243154   1.465   2.693  15.368  1.7137  1.6481  0.8055
 7247TIP3   OH243155   4.748   5.853  16.318 -0.8303 -0.3356  0.5234
 7247TIP3    H143156   4.797   5.935  16.319  0.8511 -1.2131 -1.2786
 7247TIP3    H243157   4.675   5.869  16.257 -0.9284  0.0292  0.7343
 7248TIP3   OH243158   3.608   4.293   0.002 -0.0891 -0.0870 -0.4559
 7248TIP3    H143159   3.594   4.235  -0.073  0.5123  1.7533 -2.0652
 7248TIP3    H243160   3.699   4.323  -0.006  0.1077 -0.0957  1.2183
 7249TIP3   OH243161   3.345   2.463  12.012  0.0440  0.2420  0.3283
 7249TIP3    H143162   3.270   2.435  12.064  0.6501 -0.5391  0.8149
 7249TIP3    H243163   3.344   2.403  11.937  1.0613 -0.8172  1.1233
 7250TIP3   OH243164   1.549   0.929  12.717 -0.9205 -0.0744  0.2618
 7250TIP3    H143165   1.617   0.862  12.720  0.6539  1.3721 -1.0585
 7250TIP3    H243166   1.473   0.884  12.681 -0.2424 -1.4084  0.4283
 7251TIP3   OH243167   4.518   1.705   0.055 -0.2427 -0.2984  0.3179
 7251TIP3    H143168   4.486   1.707   0.145  1.3144 -1.0087  0.9232
 7251TIP3    H243169   4.607   1.741   0.060 -0.1085 -0.4027 -0.9295
 7252TIP3   OH243170   0.267   3.409  14.733  0.3242  0.1049  0.1992
 7252TIP3    H143171   0.342   3.414  14.675  0.8750  0.6040  0.9382
 7252TIP3    H243172   0.262   3.317  14.759  1.3880  0.2779  1.0570
 7253TIP3   OH243173   2.175   3.374   4.914 -0.3886  0.1523  0.2014
 7253TIP3    H143174   2.195   3.468   4.920 -0.2115  0.0334  2.2608
 7253TIP3    H243175   2.210   3.337   4.995 -0.5328 -1.6990 -0.5351
 7254TIP3   OH243176   0.555   0.449  16.255 -0.0021  0.1007  0.6346
 7254TIP3    H143177   0.639   0.491  16.234  0.1894  0.3306  1.7987
 7254TIP3    H243178   0.492   0.521  16.255  0.0789  0.1798  1.2452
 7255TIP3   OH243179   3.854   5.369   6.445 -0.0846 -0.0862  0.1394
 7255TIP3    H143180   3.856   5.396   6.537  1.8261  0.0161  0.1058
 7255TIP3    H243181   3.764   5.340   6.431  0.0870 -2.2429  2.6611
 7256TIP3   OH243182   0.725   0.459   3.259 -0.3925 -0.3561 -0.2662
 7256TIP3    H143183   0.663   0.475   3.188 -0.0512 -0.0635 -0.5029
 7256TIP3    H243184   0.759   0.370   3.242 -0.4356 -0.3515 -0.3755
 7257TIP3   OH243185   2.372   4.375   4.689  0.2566  0.4426  0.3991
 7257TIP3    H143186   2.392   4.347   4.778 -1.2742 -0.1709  0.5758
 7257TIP3    H243187   2.380   4.296   4.636 -2.5875 -0.1185  0.6541
 7258TIP3   OH243188   5.476   5.475   6.060  0.0828  0.4141  0.1548
 7258TIP3    H143189   5.435   5.482   6.147  1.8749 -0.4691  1.1340
 7258TIP3    H243190   5.494   5.566   6.035 -0.7906  0.7030  0.5232
 7259TIP3   OH243191   3.359   4.763   4.053 -0.0119 -0.3428  0.2873
 7259TIP3    H143192   3.325   4.812   4.128 -1.6119 -0.4465 -0.3186
 7259TIP3    H243193   3.441   4.725   4.083  1.2542  2.5848  0.8264
 7260TIP3   OH243194   6.632   5.937   4.770 -0.4447 -0.3793 -1.2611
 7260TIP3    H143195   6.687   5.939   4.693 -1.3148 -2.4891 -2.0104
 7260TIP3    H243196   6.661   5.860   4.819 -0.2063  0.6640  0.3073
 7261TIP3   OH243197   4.945   5.547  16.813 -0.5992 -0.4108  0.2585
 7261TIP3    H143198   4.972   5.613  16.877 -2.4140  0.0530  0.6025
 7261TIP3    H243199   4.924   5.469  16.865  1.2430 -1.2076 -0.1205
 7262TIP3   OH243200   3.079   2.139  11.958  0.1324  0.1182  0.0101
 7262TIP3    H143201   3.172   2.128  11.977  0.0054 -1.1569 -0.0333
 7262TIP3    H243202   3.067   2.100  11.871 -0.5974 -0.5546  0.3979
 7263TIP3   OH243203   3.848   2.700   2.307  0.1193  0.4200  0.0168
 7263TIP3    H143204   3.882   2.766   2.366  0.3049 -0.4838  0.9418
 7263TIP3    H243205   3.857   2.617   2.354 -0.9725 -0.1618 -0.7292
 7264TIP3   OH243206   5.065   6.480   2.408  0.5120 -0.5821 -0.0655
 7264TIP3    H143207   5.021   6.520   2.483 -2.0942 -1.7403 -0.8788
 7264TIP3    H243208   5.136   6.429   2.447  0.3351  0.2641  1.4482
 7265TIP3   OH243209   0.490   1.956   0.650 -0.0943 -0.4770  0.3990
 7265TIP3    H143210   0.546   2.033   0.650  0.1916 -0.6495 -1.1064
 7265TIP3    H243211   0.498   1.921   0.561 -2.3496 -0.6839  0.2284
 7266TIP3   OH243212   3.622   4.394   2.720  0.6322 -0.4757  0.7005
 7266TIP3    H143213   3.633   4.298   2.724  0.7913 -0.4202  2.6635
 7266TIP3    H243214   3.549   4.412   2.779  0.1276  0.5793 -0.2174
 7267TIP3   OH243215   6.260   5.578   1.802  0.5247 -0.1073  0.6254
 7267TIP3    H143216   6.271   5.673   1.792  1.8129 -0.1467  1.4376
 7267TIP3    H243217   6.348   5.545   1.817  0.1925 -1.5611 -0.4398
 7268TIP3   OH243218   3.979   3.239  11.665 -0.0165 -0.0044 -0.6482
 7268TIP3    H143219   4.041   3.304  11.631  0.2895  0.7932  1.3127
 7268TIP3    H243220   4.030   3.159  11.674 -0.3311 -0.5055 -2.8350
 7269TIP3   OH243221   5.851   4.009   0.628 -0.3354  0.3475 -0.0527
 7269TIP3    H143222   5.798   3.975   0.700 -0.6227 -0.2904 -0.5548
 7269TIP3    H243223   5.786   4.044   0.566 -0.0597  1.6386  0.3587
 7270TIP3   OH243224   5.373   6.497   3.911  0.0475  0.7487  0.5306
 7270TIP3    H143225   5.288   6.540   3.902 -0.9031 -1.0671  0.2603
 7270TIP3    H243226   5.357   6.426   3.974  1.1435 -0.1244 -0.1481
 7271TIP3   OH243227   2.360   5.002  13.897  0.1596 -0.4195  0.0172
 7271TIP3    H143228   2.295   5.042  13.955 -1.5828 -4.6628  1.3423
 7271TIP3    H243229   2.444   5.036  13.930 -1.0538  1.1290  1.7553
 7272TIP3   OH243230   0.123   6.230   4.970 -0.0039  0.0100  0.0328
 7272TIP3    H143231   0.147   6.235   4.877  1.7401  0.2619  0.4578
 7272TIP3    H243232   0.162   6.309   5.008 -0.1578 -0.4199  1.0971
 7273TIP3   OH243233   1.490   0.585   4.739 -0.3320 -0.3246  0.5685
 7273TIP3    H143234   1.572   0.630   4.717 -0.9029 -0.7896 -3.0054
 7273TIP3    H243235   1.508   0.545   4.824  1.8628  2.5588  1.6399
 7274TIP3   OH243236   4.335   1.162  14.738 -0.6420  0.2720 -0.3944
 7274TIP3    H143237   4.319   1.167  14.832  2.3817  1.1828  0.1749
 7274TIP3    H243238   4.260   1.208  14.699 -1.8172  0.1249  1.5517
 7275TIP3   OH243239   3.975   4.192  14.633  0.6399 -1.1102  0.1720
 7275TIP3    H143240   3.999   4.127  14.699  2.9335 -0.1153  0.4278
 7275TIP3    H243241   4.028   4.169  14.557 -0.2407 -0.8691 -0.5279
 7276TIP3   OH243242   3.585   6.443   0.744  0.6261  0.0484 -0.3773
 7276TIP3    H143243   3.515   6.436   0.679  2.2487  2.1593 -2.5242
 7276TIP3    H243244   3.540   6.463   0.826 -1.3188  1.2308 -1.6660
 7277TIP3   OH243245   4.764   1.991  15.211  0.7739 -0.4664  0.5444
 7277TIP3    H143246   4.831   2.047  15.249  2.4814 -0.4224 -2.2705
 7277TIP3    H243247   4.723   1.949  15.286  1.5126  2.1801  2.5780
 7278TIP3   OH243248   6.472   0.144   4.376 -0.1888  0.2348 -0.6080
 7278TIP3    H143249   6.518   0.093   4.308 -1.0254 -2.3750  0.6616
 7278TIP3    H243250   6.516   0.119   4.457 -1.7024  0.2573  0.2392
 7279TIP3   OH243251   2.577   0.161   1.437 -0.6581  0.6541  0.3125
 7279TIP3    H143252   2.653   0.174   1.380  0.5333 -1.1818  1.3931
 7279TIP3    H243253   2.574   0.067   1.452 -2.8223  0.7626  0.7923
 7280TIP3   OH243254   2.460   2.807  15.526  0.1221 -0.0433 -0.0593
 7280TIP3    H143255   2.392   2.752  15.487 -0.3043  0.1544  0.3921
 7280TIP3    H243256   2.491   2.861  15.453  0.4227 -0.7434 -0.4694
 7281TIP3   OH243257   0.089   0.546  11.219 -0.0080 -0.3402 -0.3564
 7281TIP3    H143258   0.015   0.605  11.204 -0.5336 -0.9307 -0.1192
 7281TIP3    H243259   0.049   0.460  11.234  0.6186 -0.3457  1.5230
 7282TIP3   OH243260   2.113   1.102   2.776 -0.4000 -0.0506 -0.7136
 7282TIP3    H143261   2.202   1.074   2.757  0.8042  2.2210  1.0111
 7282TIP3    H243262   2.085   1.148   2.696  0.5693  0.4823 -0.7639
 7283TIP3   OH243263   1.150   1.206  15.228 -0.1865  0.0864 -0.6363
 7283TIP3    H143264   1.215   1.194  15.298  1.0626  2.1710 -1.3566
 7283TIP3    H243265   1.155   1.299  15.206 -2.4921  0.0427 -1.6727
 7284TIP3   OH243266   5.610   6.231   2.586 -0.0601  0.1200  0.1045
 7284TIP3    H143267   5.555   6.309   2.589  1.6942  1.4689 -1.2113
 7284TIP3    H243268   5.609   6.204   2.494 -0.4056 -1.2742  0.4847
 7285TIP3   OH243269   0.300   5.207  10.627  0.7026 -0.4413 -0.1950
 7285TIP3    H143270   0.352   5.127  10.617  0.8292 -0.2291 -1.3924
 7285TIP3    H243271   0.363   5.274  10.654  1.0030 -0.2620 -1.3084
 7286TIP3   OH243272   5.631   5.529   0.939  0.1078  0.4937  0.1945
 7286TIP3    H143273   5.606   5.546   1.030  1.3237  0.3051  0.5813
 7286TIP3    H243274   5.648   5.616   0.902  0.2545  0.5281  0.3422
 7287TIP3   OH243275   5.848   2.727  16.246  0.2983 -0.3542  0.1362
 7287TIP3    H143276   5.785   2.676  16.196 -0.0006  1.2939 -1.2880
 7287TIP3    H243277   5.916   2.665  16.272 -0.8471 -1.7455 -0.1298
 7288TIP3   OH243278   2.495   1.733   4.213 -0.7701  0.6766 -0.0965
 7288TIP3    H143279   2.481   1.827   4.209 -0.2478  0.7619  0.0251
 7288TIP3    H243280   2.436   1.697   4.147 -2.2022  0.9507  0.9892
 7289TIP3   OH243281   2.935   0.094  16.672 -0.0289 -0.1702 -0.0063
 7289TIP3    H143282   2.874   0.101  16.746 -0.4319  0.9301 -0.4202
 7289TIP3    H243283   2.879   0.076  16.597  0.1848  0.5218 -0.3347
 7290TIP3   OH243284   3.948   0.792   1.752 -0.4061  0.1217 -0.4685
 7290TIP3    H143285   3.948   0.875   1.704 -0.9618  1.2361  1.3782
 7290TIP3    H243286   4.036   0.756   1.739 -0.1342  1.0304 -1.2093
 7291TIP3   OH243287   2.336   5.737   1.266 -0.0992 -0.0997 -0.2737
 7291TIP3    H143288   2.307   5.657   1.310 -1.2054 -1.2004 -2.7861
 7291TIP3    H243289   2.427   5.719   1.241  0.5969  0.6028  1.5638
 7292TIP3   OH243290   4.947   3.991   5.573 -0.3716  0.0162  0.2987
 7292TIP3    H143291   4.948   3.992   5.669  0.0374  1.4249  0.3169
 7292TIP3    H243292   4.937   3.899   5.549  1.2256 -0.5766  1.6904
 7293TIP3   OH243293   6.464   3.724   0.932 -0.4775  0.6189 -0.2878
 7293TIP3    H143294   6.372   3.700   0.941 -0.2617 -0.5624 -0.9955
 7293TIP3    H243295   6.471   3.756   0.842 -0.2357  0.8970 -0.1696
 7294TIP3   OH243296   0.128   6.029   5.187  0.1904  0.4412  0.1674
 7294TIP3    H143297   0.125   6.064   5.098 -1.2507  2.3293  0.8965
 7294TIP3    H243298   0.036   6.021   5.213  0.5900  1.0797  1.9171
 7295TIP3   OH243299   5.760   4.193   1.911 -0.8097  0.0376  0.2118
 7295TIP3    H143300   5.751   4.223   2.001  0.8160  0.8546  0.1539
 7295TIP3    H243301   5.794   4.104   1.918  0.3422  0.4773  0.4394
 7296TIP3   OH243302   1.676   5.155   3.470  0.3884 -0.3551  0.6336
 7296TIP3    H143303   1.601   5.114   3.426  1.5094 -2.0242  0.1618
 7296TIP3    H243304   1.642   5.182   3.555 -1.3142  1.0587 -0.4352
 7297TIP3   OH243305   1.948   3.968   3.137 -0.3796  0.1251 -0.1396
 7297TIP3    H143306   1.959   4.063   3.131 -0.8053  0.3582  2.0739
 7297TIP3    H243307   1.861   3.952   3.100 -0.4373  0.6233 -0.2294
 7298TIP3   OH243308   4.991   6.366   5.929  0.0352  0.2262 -0.7991
 7298TIP3    H143309   4.946   6.282   5.915 -1.3290  0.9075 -0.6611
 7298TIP3    H243310   4.926   6.432   5.907  0.0221  1.3129  2.0921
 7299TIP3   OH243311   0.786   3.615   0.810  0.4218 -0.2724  0.3520
 7299TIP3    H143312   0.745   3.539   0.852 -0.9337  0.0923 -0.2317
 7299TIP3    H243313   0.712   3.661   0.769  1.4857  0.2605 -1.0208
 7300TIP3   OH243314   5.274   4.182   1.650  0.5049  0.1984 -0.0785
 7300TIP3    H143315   5.279   4.268   1.692  0.4885 -0.0212  0.3839
 7300TIP3    H243316   5.184   4.153   1.666  1.3940 -1.3615  2.7459
 7301TIP3   OH243317   2.440   1.843  12.847  0.4574 -0.2937  0.0918
 7301TIP3    H143318   2.525   1.886  12.835  1.9596 -3.0180  0.0923
 7301TIP3    H243319   2.429   1.837  12.942  0.6380 -0.5511  0.0994
 7302TIP3   OH243320   0.364   2.137   2.393  0.4656 -0.5205  0.0163
 7302TIP3    H143321   0.456   2.113   2.392  0.8576  0.8677 -1.7681
 7302TIP3    H243322   0.337   2.134   2.301 -1.9232 -3.1076  0.6777
 7303TIP3   OH243323   5.301   1.231   3.859 -0.3568 -0.1234 -0.1750
 7303TIP3    H143324   5.321   1.310   3.909  0.8579 -1.4056  1.4877
 7303TIP3    H243325   5.238   1.183   3.914  0.1868 -1.0693 -0.3518
 7304TIP3   OH243326   4.629   3.329   0.212 -0.8615 -0.7668  0.1803
 7304TIP3    H143327   4.694   3.335   0.282  0.3756 -1.2666 -0.9002
 7304TIP3    H243328   4.578   3.251   0.234 -1.0467 -0.4417  0.9639
 7305TIP3   OH243329   5.921   6.483   3.618 -0.6595 -0.5024  0.2297
 7305TIP3    H143330   5.968   6.413   3.663  0.9136 -0.8675 -1.8106
 7305TIP3    H243331   5.952   6.563   3.659 -0.6604 -0.8885  1.0033
 7306TIP3   OH243332   2.842   4.543   4.658 -0.0043  0.4178  0.1051
 7306TIP3    H143333   2.872   4.452   4.663 -0.0581  0.1654 -2.7359
 7306TIP3    H243334   2.903   4.591   4.715  1.2316 -1.1191  0.1561
 7307TIP3   OH243335   2.696   6.104   5.857  0.3325 -0.0035  0.2735
 7307TIP3    H143336   2.755   6.091   5.931 -1.0257 -1.5147  1.1616
 7307TIP3    H243337   2.608   6.092   5.894 -0.3902 -0.8014 -1.5692
 7308TIP3   OH243338   5.943   0.237  16.138  0.0462 -0.2770  0.3923
 7308TIP3    H143339   5.942   0.178  16.063 -0.3788 -1.4792  1.2935
 7308TIP3    H243340   5.871   0.206  16.193 -1.0981  1.9799  0.2650
 7309TIP3   OH243341   3.137   2.926   4.858  0.1124 -0.3753 -0.2202
 7309TIP3    H143342   3.200   2.866   4.897  2.0413  2.2967  1.1549
 7309TIP3    H243343   3.181   2.958   4.779  0.9288  1.9801  1.0776
 7310TIP3   OH243344   1.834   2.643  16.383 -0.3955  0.3995 -0.0108
 7310TIP3    H143345   1.744   2.652  16.350  0.3750  1.7189 -1.9355
 7310TIP3    H243346   1.876   2.584  16.321  0.1650  0.0401  0.7025
 7311TIP3   OH243347   3.132   3.217   5.792  0.2074 -0.0234 -0.4092
 7311TIP3    H143348   3.096   3.253   5.873  1.8114 -1.0594  0.8252
 7311TIP3    H243349   3.178   3.138   5.819  0.0260 -0.9000 -2.4823
 7312TIP3   OH243350   4.029   4.610   3.330 -0.0522 -0.3197  0.2372
 7312TIP3    H143351   3.980   4.691   3.345  1.7054  0.5194  2.0177
 7312TIP3    H243352   4.043   4.608   3.236 -2.8867 -0.2950 -0.2607
 7313TIP3   OH243353   0.276   0.045   2.214  0.8787 -0.6080 -0.1207
 7313TIP3    H143354   0.239  -0.040   2.191 -1.5607  0.3584 -0.0719
 7313TIP3    H243355   0.318   0.076   2.134 -2.3215  0.1120 -1.6813
 7314TIP3   OH243356   3.148   6.034   0.716 -0.4243 -0.2569  0.7580
 7314TIP3    H143357   3.093   6.111   0.729 -1.8137 -0.5781 -2.3383
 7314TIP3    H243358   3.237   6.066   0.726 -1.0369  0.8584  3.2977
 7315TIP3   OH243359   4.331   0.797   2.085 -0.3466  0.0049 -0.6590
 7315TIP3    H143360   4.319   0.884   2.047  0.1794  0.5243  0.3088
 7315TIP3    H243361   4.248   0.777   2.127 -0.1148  0.5463  0.0797
 7316TIP3   OH243362   6.512   3.213  13.865  0.3315 -0.2225 -0.6589
 7316TIP3    H143363   6.596   3.257  13.855  0.2220  0.0728 -0.3119
 7316TIP3    H243364   6.534   3.121  13.877  0.6147 -0.1187 -0.3782
 7317TIP3   OH243365   1.432   4.051  14.598 -0.3117 -0.1228 -0.2751
 7317TIP3    H143366   1.353   4.071  14.648 -1.1557  0.8835 -1.9020
 7317TIP3    H243367   1.438   3.956  14.599 -0.8183 -0.1581  0.9191
 7318TIP3   OH243368   2.266   1.445   0.518  0.3780 -0.3381 -0.3977
 7318TIP3    H143369   2.191   1.402   0.479 -1.1259  0.6517  1.2704
 7318TIP3    H243370   2.261   1.425   0.611  2.6824 -0.9246 -0.3280
 7319TIP3   OH243371   5.571   4.109  14.361  0.2398 -0.4139 -0.3504
 7319TIP3    H143372   5.477   4.125  14.353  0.4480  0.8472 -0.4907
 7319TIP3    H243373   5.592   4.055  14.286 -0.8443 -3.2144  1.1797
 7320TIP3   OH243374   0.505   1.059   5.962  0.0531 -0.5422 -0.0155
 7320TIP3    H143375   0.590   1.071   6.005 -0.9442  0.3221  1.8298
 7320TIP3    H243376   0.442   1.055   6.034 -1.8125  1.7137 -1.3582
 7321TIP3   OH243377   1.811   0.683   4.774 -0.4861  0.1535 -0.1021
 7321TIP3    H143378   1.886   0.726   4.814 -2.1854  1.0706  2.3435
 7321TIP3    H243379   1.846   0.641   4.696  3.0483 -1.3923  2.0575
 7322TIP3   OH243380   6.658   4.726  15.905  0.3623  0.0337  0.2883
 7322TIP3    H143381   6.730   4.760  15.959  0.6162 -0.3555  0.2023
 7322TIP3    H243382   6.689   4.640  15.875 -0.8677 -0.9521  1.7057
 7323TIP3   OH243383   5.030   1.587  13.683 -0.3353  0.2244 -0.0433
 7323TIP3    H143384   5.096   1.613  13.746  1.4897 -0.1679 -1.6883
 7323TIP3    H243385   5.036   1.652  13.613  0.2943 -1.2837 -1.4955
 7324TIP3   OH243386   1.885   0.591  13.292 -0.0037 -0.5487  0.0345
 7324TIP3    H143387   1.827   0.516  13.283  1.9233 -2.0685 -0.4500
 7324TIP3    H243388   1.914   0.610  13.203 -2.3114  2.4642 -0.2553
 7325TIP3   OH243389   2.059   1.054   5.651 -0.0293 -0.0612 -0.2620
 7325TIP3    H143390   2.145   1.096   5.642  0.0204 -0.2488 -0.6525
 7325TIP3    H243391   1.999   1.128   5.663  0.0651  0.1312 -0.8996
 7326TIP3   OH243392   6.624   3.068   2.870 -0.9261  0.0871 -0.5651
 7326TIP3    H143393   6.593   3.142   2.818  2.6378  0.8817 -1.8015
 7326TIP3    H243394   6.642   2.999   2.806 -0.8602 -0.6043  0.1799
 7327TIP3   OH243395   6.488   4.409   1.442  0.1227  0.4508 -0.0311
 7327TIP3    H143396   6.532   4.494   1.447 -1.4906  1.3864 -1.0164
 7327TIP3    H243397   6.499   4.371   1.529  1.8686  1.1240  0.0823
 7328TIP3   OH243398   4.843   6.099   6.028 -0.2611 -0.8886  0.7605
 7328TIP3    H143399   4.929   6.055   6.034 -0.2595 -0.9646  0.2702
 7328TIP3    H243400   4.783   6.041   6.074 -0.2178 -1.3179  0.2933
 7329TIP3   OH243401   6.249   0.408   4.732 -0.0488 -0.6072 -0.2701
 7329TIP3    H143402   6.198   0.351   4.790 -0.4352  1.0297  1.0849
 7329TIP3    H243403   6.184   0.444   4.672 -0.5919  1.4032  1.3950
 7330TIP3   OH243404   4.833   3.316   5.449  0.2892 -0.0624  0.4140
 7330TIP3    H143405   4.817   3.222   5.452 -2.1267  0.2735 -0.2325
 7330TIP3    H243406   4.817   3.346   5.539  1.0255 -0.2286  0.6115
 7331TIP3   OH243407   6.483   0.728   6.381 -0.3567 -0.2147  0.7966
 7331TIP3    H143408   6.550   0.706   6.446  0.0473 -2.8097 -0.3685
 7331TIP3    H243409   6.453   0.643   6.348 -1.3941  0.9770 -1.5607
 7332TIP3   OH243410   2.610   3.765  14.660 -0.2078  0.2202  0.0929
 7332TIP3    H143411   2.633   3.676  14.686  0.8061  0.7402  1.0394
 7332TIP3    H243412   2.640   3.772  14.569 -1.6509 -0.8499 -0.5134
 7333TIP3   OH243413   5.630   4.016   3.385  0.1264  0.0385 -0.0044
 7333TIP3    H143414   5.684   3.937   3.399  2.5313  1.2891 -1.5893
 7333TIP3    H243415   5.600   4.009   3.295  0.6227  1.0622 -0.2591
 7334TIP3   OH243416   2.170   4.451  12.652  0.1362 -0.4619 -0.3051
 7334TIP3    H143417   2.157   4.502  12.572 -0.0198  0.3319  0.2168
 7334TIP3    H243418   2.262   4.466  12.675  0.4004 -1.3095 -0.7403
 7335TIP3   OH243419   2.527   1.872   2.519  0.9521 -0.6573 -0.8573
 7335TIP3    H143420   2.504   1.958   2.553 -0.6446 -0.6251 -1.9335
 7335TIP3    H243421   2.596   1.890   2.455  1.0410 -0.2554 -0.6543
 7336TIP3   OH243422   6.415   6.081  12.110  0.1299  0.2125 -0.8877
 7336TIP3    H143423   6.497   6.111  12.148  0.1851 -1.0722  0.0672
 7336TIP3    H243424   6.352   6.081  12.182  0.5226 -3.3795 -0.3372
 7337TIP3   OH243425   4.873   2.058  10.691 -0.4371  0.0870  0.4774
 7337TIP3    H143426   4.831   1.981  10.651 -0.8242  1.1588 -1.3042
 7337TIP3    H243427   4.929   2.093  10.622 -0.3658  1.4880  1.2165
 7338TIP3   OH243428   2.624   5.312   0.760 -0.1061  0.4215 -0.8002
 7338TIP3    H143429   2.542   5.262   0.763 -0.2003  0.6405  1.6979
 7338TIP3    H243430   2.689   5.247   0.732 -0.7891 -0.2617 -0.8548
 7339TIP3   OH243431   3.683   0.799  14.756 -0.1514 -0.1266  0.1259
 7339TIP3    H143432   3.665   0.705  14.757 -0.6915 -0.0337  2.0312
 7339TIP3    H243433   3.687   0.824  14.848 -0.4464  1.8087 -0.3471
 7340TIP3   OH243434   6.177   5.230   0.614  0.9489 -0.0738 -0.1540
 7340TIP3    H143435   6.269   5.206   0.616  0.6083 -1.5449 -0.3972
 7340TIP3    H243436   6.150   5.231   0.706  1.0180 -0.5059 -0.1262
 7341TIP3   OH243437   3.049   0.528   4.225  0.1561  0.1409 -0.0904
 7341TIP3    H143438   3.141   0.512   4.202  0.3614  0.9066  0.1600
 7341TIP3    H243439   3.040   0.624   4.222  0.1006  0.2954  2.5240
 7342TIP3   OH243440   0.172   1.515  15.065  0.5963  0.5701  0.5156
 7342TIP3    H143441   0.120   1.439  15.040  0.7860  0.3820  0.6938
 7342TIP3    H243442   0.255   1.502  15.019  0.7284  0.5307  0.7680
 7343TIP3   OH243443   4.249   5.006   1.748 -0.1350  0.7323 -0.1188
 7343TIP3    H143444   4.213   4.923   1.716 -2.1504  1.5360 -0.1032
 7343TIP3    H243445   4.252   5.063   1.671  0.0810  1.0244  0.0996
 7344TIP3   OH243446   1.636   2.141  13.048  0.5670  0.3149 -0.2369
 7344TIP3    H143447   1.585   2.202  12.995 -0.4926  0.5968  1.0480
 7344TIP3    H243448   1.573   2.074  13.075  1.0713  0.1888  0.6693
 7345TIP3   OH243449   3.562   4.028  11.900 -0.0859 -0.2582 -0.6592
 7345TIP3    H143450   3.508   3.962  11.856  0.2698 -0.9015 -0.1406
 7345TIP3    H243451   3.510   4.057  11.974 -0.8745  1.1509 -1.7167
 7346TIP3   OH243452   2.602   5.482   5.259  0.0047 -0.2668 -0.1244
 7346TIP3    H143453   2.589   5.532   5.179  0.0211 -0.6285 -0.3532
 7346TIP3    H243454   2.639   5.546   5.321  1.2918 -0.2936 -0.8200
 7347TIP3   OH243455   2.313   6.419   5.625  0.1211  0.2789 -0.0618
 7347TIP3    H143456   2.402   6.399   5.654  0.1855 -0.8809 -0.9580
 7347TIP3    H243457   2.259   6.353   5.669 -0.4021  1.3864  0.9941
 7348TIP3   OH243458   0.926   6.460   2.331  0.2666 -0.5079 -0.5803
 7348TIP3    H143459   0.936   6.366   2.347  3.3720 -0.1571  0.1241
 7348TIP3    H243460   0.986   6.502   2.393 -4.8699  2.4516  3.2699
 7349TIP3   OH243461   4.439   0.947   2.338  0.6171  0.0244  0.0288
 7349TIP3    H143462   4.477   1.013   2.278 -0.0005  1.5263  1.2248
 7349TIP3    H243463   4.348   0.941   2.311  0.2022  1.0944  1.0793
 7350TIP3   OH243464   6.203   6.067  16.923  0.0772 -0.6058 -0.2345
 7350TIP3    H143465   6.271   6.092  16.859 -0.1022 -1.9261 -0.9854
 7350TIP3    H243466   6.214   6.129  16.995  0.4517  0.7858 -1.4352
 7351TIP3   OH243467   6.594   2.913   2.012 -0.2597  0.5058  0.7305
 7351TIP3    H143468   6.591   2.819   2.030  1.6418  0.0845 -0.8071
 7351TIP3    H243469   6.528   2.927   1.945 -1.3171  0.5028  1.7438
 7352TIP3   OH243470   4.677   3.976   2.166 -0.2047 -0.3444  0.4888
 7352TIP3    H143471   4.639   3.891   2.185 -1.2518  0.1729  0.7698
 7352TIP3    H243472   4.604   4.038   2.174  0.1480  0.3734 -1.4567
 7353TIP3   OH243473   1.990   1.339   4.715  0.3240 -0.2407 -0.3489
 7353TIP3    H143474   1.964   1.264   4.661  0.0893 -1.4507  1.3529
 7353TIP3    H243475   1.907   1.372   4.751  0.4540  0.6798 -0.8760
 7354TIP3   OH243476   2.218   4.475  15.052  0.0771 -0.8223  0.3157
 7354TIP3    H143477   2.277   4.523  15.110  0.0227 -1.3172  0.7945
 7354TIP3    H243478   2.243   4.383  15.064 -1.0076 -1.0683  0.7794
 7355TIP3   OH243479   3.908   2.295  16.138 -0.2042 -0.3732 -0.4516
 7355TIP3    H143480   3.925   2.289  16.044  0.6204  0.6941 -0.3953
 7355TIP3    H243481   3.823   2.339  16.144  0.1068  0.2772 -0.7038
 7356TIP3   OH243482   5.252   6.699  12.954 -0.1303  0.0940 -0.4985
 7356TIP3    H143483   5.278   6.618  12.998  2.5998  0.2776 -1.5937
 7356TIP3    H243484   5.156   6.698  12.958 -0.1319 -1.1162  3.1053
 7357TIP3   OH243485   4.152   1.332   4.496  0.1645  0.3132  0.4750
 7357TIP3    H143486   4.165   1.324   4.401  1.1822 -1.4061  0.7054
 7357TIP3    H243487   4.161   1.242   4.528 -0.2669  0.8554  2.2032
 7358TIP3   OH243488   4.784   1.842  10.605 -0.0212  0.0181 -0.0201
 7358TIP3    H143489   4.692   1.869  10.608  0.2894  1.5569 -2.3057
 7358TIP3    H243490   4.781   1.748  10.586 -1.0902 -0.2139  1.1702
 7359TIP3   OH243491   3.951   1.669  13.668 -0.3132 -0.3384  0.1734
 7359TIP3    H143492   3.856   1.656  13.673 -0.2088 -0.9903  0.4495
 7359TIP3    H243493   3.988   1.583  13.686  0.3354 -0.0794  0.0810
 7360TIP3   OH243494   1.263   0.965  14.514 -0.0229 -0.0836 -0.5293
 7360TIP3    H143495   1.287   0.891  14.571 -0.3006 -0.6169 -1.0912
 7360TIP3    H243496   1.227   0.924  14.435  0.2125  0.6462 -1.0283
 7361TIP3   OH243497   3.310   2.251  13.049  0.2617 -0.1846 -0.3148
 7361TIP3    H143498   3.290   2.270  13.141 -1.2354  0.9357 -0.8383
 7361TIP3    H243499   3.387   2.193  13.053 -1.0300 -1.9097  1.7117
 7362TIP3   OH243500   1.560   5.677  11.601  0.5147  0.1141  0.3181
 7362TIP3    H143501   1.549   5.753  11.543  0.9398 -0.3358 -0.3758
 7362TIP3    H243502   1.519   5.605  11.554  1.0326 -0.2997  0.4859
 7363TIP3   OH243503   1.487   4.398  10.643  0.3232  0.1478  0.6604
 7363TIP3    H143504   1.580   4.377  10.637  0.6185  1.5897 -0.6176
 7363TIP3    H243505   1.479   4.449  10.724  0.6303 -0.0031  0.7865
 7364TIP3   OH243506   5.036   0.198  16.966  0.4332  0.0362 -0.3106
 7364TIP3    H143507   4.966   0.134  16.951 -1.1207  1.4530  0.5066
 7364TIP3    H243508   5.029   0.259  16.892  0.2037  0.6749  0.2243
 7365TIP3   OH243509   3.301   3.052   5.575 -0.2359  0.5831 -0.9153
 7365TIP3    H143510   3.334   2.965   5.598  2.6735  1.5609 -0.9853
 7365TIP3    H243511   3.254   3.081   5.654  1.2571  0.0528  0.2324
 7366TIP3   OH243512   3.411   5.647   3.473  0.4233  0.3179  0.0838
 7366TIP3    H143513   3.406   5.609   3.385  0.8150 -1.2155  0.6918
 7366TIP3    H243514   3.491   5.699   3.472  0.6445 -0.0260 -0.3580
 7367TIP3   OH243515   6.277   1.222  10.603  0.1491  0.1812 -0.1677
 7367TIP3    H143516   6.275   1.289  10.671 -2.1773 -1.8889  1.9691
 7367TIP3    H243517   6.368   1.192  10.602  1.2856  3.2042 -1.1999
 7368TIP3   OH243518   6.509   1.912  12.109  0.1687  0.1461  0.2809
 7368TIP3    H143519   6.591   1.948  12.075  0.3561 -0.3303  0.2258
 7368TIP3    H243520   6.472   1.862  12.036 -0.4750  0.8522  0.1065
 7369TIP3   OH243521   1.803   4.829   1.335  0.1885 -0.6292  0.0103
 7369TIP3    H143522   1.886   4.817   1.381  2.1603 -1.6432 -3.4549
 7369TIP3    H243523   1.754   4.749   1.354  0.7351 -0.8152  0.7064
 7370TIP3   OH243524   6.524   4.019   4.973 -0.2725  0.3678 -0.0676
 7370TIP3    H143525   6.569   4.069   4.905  0.8864  1.0030  1.1138
 7370TIP3    H243526   6.447   4.071   4.995  0.8228  1.6260  1.0171
 7371TIP3   OH243527   6.783   4.201  16.419 -0.3515 -0.3790  0.0151
 7371TIP3    H143528   6.818   4.123  16.376  0.9511 -0.3866  1.0353
 7371TIP3    H243529   6.853   4.266  16.411 -0.6556  0.0620  0.8581
 7372TIP3   OH243530   1.060   0.975   5.868 -0.1082 -0.7767 -0.1090
 7372TIP3    H143531   1.000   1.038   5.830  0.1294 -0.2029  0.4560
 7372TIP3    H243532   1.144   0.994   5.828  0.0434 -0.4812  0.3481
 7373TIP3   OH243533   5.883   0.625   0.583  0.2705  0.3596  0.5789
 7373TIP3    H143534   5.942   0.618   0.508 -0.1161  0.1847  0.2916
 7373TIP3    H243535   5.908   0.707   0.626  0.3105  0.5961  0.1076
 7374TIP3   OH243536   3.224   1.843  11.953 -0.5725  0.0065  0.5682
 7374TIP3    H143537   3.270   1.921  11.985 -0.9362  0.1359  0.7753
 7374TIP3    H243538   3.173   1.813  12.028  0.9147 -1.4606  1.0718
 7375TIP3   OH243539   4.990   5.860  14.007  0.3309  0.3360  0.4864
 7375TIP3    H143540   5.006   5.767  14.023  2.7607  0.5117 -0.5485
 7375TIP3    H243541   5.022   5.875  13.918  1.8101  2.5307  1.2986
 7376TIP3   OH243542   3.629   2.730   3.232  0.0812  0.0543  0.0318
 7376TIP3    H143543   3.556   2.705   3.175 -1.2837  1.5682  1.0250
 7376TIP3    H243544   3.595   2.804   3.283  2.1813  0.5293  0.8381
 7377TIP3   OH243545   6.638   6.202  10.409 -0.4375  0.5138  0.4446
 7377TIP3    H143546   6.602   6.193  10.321 -0.7634 -0.1999  0.6374
 7377TIP3    H243547   6.732   6.212  10.396 -0.1498 -1.9278  0.0525
 7378TIP3   OH243548   1.963   0.052  11.864  0.2409 -0.3458  0.1595
 7378TIP3    H143549   1.967   0.033  11.771  0.3491  1.1427 -0.1663
 7378TIP3    H243550   1.984  -0.031  11.907  0.3145 -1.0138 -1.1316
 7379TIP3   OH243551   0.072   4.204   2.608 -0.6729  0.2200 -0.0154
 7379TIP3    H143552   0.131   4.232   2.538 -0.8230  0.7674  0.0734
 7379TIP3    H243553   0.118   4.226   2.689 -1.4901  1.7901  0.0698
 7380TIP3   OH243554   6.737   3.522   0.892 -0.0072 -0.1733  0.0397
 7380TIP3    H143555   6.733   3.548   0.800 -0.4315  0.6608  0.2848
 7380TIP3    H243556   6.694   3.593   0.940  2.2885  0.5729  1.1302
 7381TIP3   OH243557   5.777   6.383   1.124 -0.9544 -0.4693 -0.1696
 7381TIP3    H143558   5.860   6.352   1.161 -1.7985 -0.4957  1.8874
 7381TIP3    H243559   5.802   6.447   1.058  0.7559 -2.8679 -2.0340
 7382TIP3   OH243560   2.874   3.373  11.079 -0.2181  0.2432 -0.4049
 7382TIP3    H143561   2.893   3.302  11.017 -0.0274  2.0165 -2.5055
 7382TIP3    H243562   2.817   3.432  11.031 -2.5733  0.2906  2.2042
 7383TIP3   OH243563   3.785   6.027  16.755  0.3047 -0.7871 -0.1666
 7383TIP3    H143564   3.780   5.943  16.709  3.5182 -1.3742  0.3658
 7383TIP3    H243565   3.793   6.092  16.685  0.6194 -1.2155 -0.5328
 7384TIP3   OH243566   4.147   3.823   6.044  0.4536 -0.2496  0.2676
 7384TIP3    H143567   4.216   3.887   6.023  0.8223 -0.5843  0.4431
 7384TIP3    H243568   4.153   3.758   5.974  2.5491 -2.0671  1.9652
 7385TIP3   OH243569   6.574   4.593   4.890 -0.6794  0.3093  0.3342
 7385TIP3    H143570   6.575   4.676   4.936 -0.6242 -0.7870  2.4339
 7385TIP3    H243571   6.484   4.561   4.899 -0.6399  0.0266 -0.2365
 7386TIP3   OH243572   0.192   1.636   1.089 -0.4093  0.1302  0.2732
 7386TIP3    H143573   0.127   1.577   1.128  0.2543 -1.0724 -0.3844
 7386TIP3    H243574   0.257   1.649   1.158  0.8956 -2.1983 -0.4122
 7387TIP3   OH243575   5.645   0.622  11.415  0.1913 -0.3266 -0.0378
 7387TIP3    H143576   5.601   0.696  11.374 -0.7978 -1.3972 -0.9514
 7387TIP3    H243577   5.587   0.597  11.487  0.4702 -0.2848  0.2035
 7388TIP3   OH243578   3.059   1.008   0.680 -0.2634 -0.4384  0.2256
 7388TIP3    H143579   3.148   1.017   0.646 -0.0356  2.3269  1.3204
 7388TIP3    H243580   3.066   0.942   0.749  1.2696  0.7316  1.2536
 7389TIP3   OH243581   0.061   4.139  11.954  0.4955 -0.2284  0.1369
 7389TIP3    H143582  -0.005   4.116  12.020  0.5523 -0.2400  0.1903
 7389TIP3    H243583   0.047   4.077  11.883  0.6683 -0.4469  0.2942
 7390TIP3   OH243584   0.594   2.942  12.677 -0.4305 -0.4191  0.4289
 7390TIP3    H143585   0.677   2.982  12.652 -1.0806  0.9257  0.3336
 7390TIP3    H243586   0.528   3.008  12.655 -1.6757 -2.0199 -0.8965
 7391TIP3   OH243587   3.944   3.907  15.146 -0.0980  0.0104  0.0861
 7391TIP3    H143588   4.018   3.901  15.206 -1.4404 -0.5173  1.7513
 7391TIP3    H243589   3.957   3.991  15.101  2.8025 -1.1460 -1.5447
 7392TIP3   OH243590   3.806   2.864  13.911 -0.1496 -0.1012 -0.2891
 7392TIP3    H143591   3.842   2.910  13.835  1.8713 -2.5906 -0.9893
 7392TIP3    H243592   3.712   2.865  13.897  0.1001  0.5255 -2.2263
 7393TIP3   OH243593   4.144   4.265  16.817 -0.4961  0.3041 -0.2090
 7393TIP3    H143594   4.128   4.304  16.731 -0.0350  0.2319 -0.3303
 7393TIP3    H243595   4.149   4.171  16.800 -2.3453  0.0897  0.1915
 7394TIP3   OH243596   5.017   3.595   5.771 -0.0408  0.0065 -0.0591
 7394TIP3    H143597   5.033   3.521   5.830  0.2203 -0.7057 -0.9934
 7394TIP3    H243598   5.099   3.604   5.722 -0.1018  0.8753 -0.0054
 7395TIP3   OH243599   6.088   2.900  13.895  0.5917  0.1237 -0.3692
 7395TIP3    H143600   6.132   2.846  13.961 -0.5212  0.5052  0.7318
 7395TIP3    H243601   6.065   2.840  13.825  1.3524 -0.3893 -0.1873
 7396TIP3   OH243602   5.129   5.242  16.823  0.1766  0.3118 -0.3408
 7396TIP3    H143603   5.138   5.298  16.900  0.9399 -0.2611 -0.0005
 7396TIP3    H243604   5.204   5.183  16.828 -0.6662 -0.8075 -0.6316
 7397TIP3   OH243605   5.072   5.106   3.835  0.0439 -0.2978 -0.4122
 7397TIP3    H143606   4.979   5.088   3.818  0.1569 -0.8532 -0.4390
 7397TIP3    H243607   5.102   5.153   3.757 -0.0193 -0.8061 -0.7472
 7398TIP3   OH243608   3.017   6.003   5.012 -0.1380  0.2928  0.0812
 7398TIP3    H143609   3.046   6.045   4.930 -0.6580  0.2083 -0.1479
 7398TIP3    H243610   2.959   5.933   4.983  0.3460 -0.2823  0.4893
 7399TIP3   OH243611   5.333   0.850  10.536  0.0347  0.2700  0.3890
 7399TIP3    H143612   5.301   0.899  10.460 -1.8348  0.0063  0.9564
 7399TIP3    H243613   5.401   0.906  10.574 -0.5501  1.4226 -0.2075
 7400TIP3   OH243614   4.755   5.256   0.257 -0.3633  0.3666  0.6992
 7400TIP3    H143615   4.669   5.242   0.216 -0.3821  1.1486  0.4599
 7400TIP3    H243616   4.746   5.220   0.345 -0.8869  0.3074  0.6238
 7401TIP3   OH243617   6.403   0.424  14.111 -0.7710  0.4295  0.4815
 7401TIP3    H143618   6.354   0.427  14.029 -2.4370 -0.5374  1.4059
 7401TIP3    H243619   6.442   0.511  14.118 -0.4416  0.4843 -1.3935
 7402TIP3   OH243620   2.916   3.615  15.801  0.1834  0.0086  0.1536
 7402TIP3    H143621   2.974   3.564  15.857 -0.6088 -1.4878 -0.3217
 7402TIP3    H243622   2.834   3.622  15.852  0.2651  0.7851  0.1899
 7403TIP3   OH243623   5.598   6.153   5.540  0.2864 -0.1264  0.1590
 7403TIP3    H143624   5.502   6.153   5.549  0.2692  0.0255 -0.0281
 7403TIP3    H243625   5.614   6.191   5.454  0.5621  0.8982  0.6469
 7404TIP3   OH243626   4.955   5.350   5.808  0.3193  0.2982  0.7610
 7404TIP3    H143627   4.973   5.256   5.799  1.2091  0.5707 -0.5371
 7404TIP3    H243628   5.034   5.386   5.849  0.1969  0.5500  0.7779
 7405TIP3   OH243629   3.416   0.869  13.108 -0.8960  0.8549 -0.3241
 7405TIP3    H143630   3.478   0.889  13.179  0.1094  0.4821 -1.0808
 7405TIP3    H243631   3.330   0.890  13.145 -0.1985  3.2759  0.1036
 7406TIP3   OH243632   5.396   0.896  11.063  0.2222  0.1117 -0.1193
 7406TIP3    H143633   5.403   0.838  11.139 -0.8882 -0.4986 -0.4566
 7406TIP3    H243634   5.482   0.892  11.021 -0.1220 -2.1701 -0.7317
 7407TIP3   OH243635   0.643   4.501  15.899  0.4397 -0.2412 -0.2073
 7407TIP3    H143636   0.686   4.553  15.967  1.2682  0.6093 -1.3156
 7407TIP3    H243637   0.589   4.438  15.946 -0.1556  1.2546  1.2179
 7408TIP3   OH243638   1.886   1.809  14.841 -0.4256  0.6153 -0.0953
 7408TIP3    H143639   1.910   1.899  14.819 -2.1475  1.3181  0.7162
 7408TIP3    H243640   1.825   1.818  14.914  1.2909 -1.3624  1.7072
 7409TIP3   OH243641   5.002   4.436   5.053 -0.1985 -0.3389 -0.0956
 7409TIP3    H143642   5.034   4.352   5.085  0.6026 -0.2876 -0.7384
 7409TIP3    H243643   5.002   4.427   4.957 -1.6388 -0.1599 -0.1336
 7410TIP3   OH243644   3.421   1.425  10.760 -0.4431 -0.2453  0.0577
 7410TIP3    H143645   3.355   1.475  10.714  0.0021  0.9922  0.7142
 7410TIP3    H243646   3.439   1.350  10.703  1.1573  1.9400 -2.5440
 7411TIP3   OH243647   4.293   1.463   1.210 -0.3249  0.0060 -0.0767
 7411TIP3    H143648   4.272   1.371   1.192  1.2638 -0.3456 -0.2782
 7411TIP3    H243649   4.211   1.510   1.196 -0.6885 -1.1221 -2.0139
 7412TIP3   OH243650   1.371   3.205   3.042  0.3222  0.4913 -0.0360
 7412TIP3    H143651   1.406   3.135   3.097 -1.5155  0.0398  0.6049
 7412TIP3    H243652   1.389   3.177   2.952  0.8144 -0.1202  0.2482
 7413TIP3   OH243653   0.505   5.044  13.655  0.2879  0.0940 -0.0709
 7413TIP3    H143654   0.503   4.997  13.571 -0.1027  1.6704 -0.9967
 7413TIP3    H243655   0.584   5.099  13.649 -0.1899  0.8263  0.2195
 7414TIP3   OH243656   3.376   3.655   6.158 -0.2050  0.1239  0.2350
 7414TIP3    H143657   3.342   3.691   6.240 -1.0242  0.2724 -0.1539
 7414TIP3    H243658   3.426   3.578   6.184 -0.8631 -0.1069  0.8417
 7415TIP3   OH243659   2.394   5.622  16.804 -0.4549 -0.0316  0.1272
 7415TIP3    H143660   2.356   5.540  16.774  0.3697  0.2856 -2.0417
 7415TIP3    H243661   2.398   5.677  16.725  0.4549  1.5145  1.1746
 7416TIP3   OH243662   6.536   3.278   4.805 -0.1628  0.0500 -0.1650
 7416TIP3    H143663   6.472   3.323   4.860 -1.2426 -0.1904 -1.1798
 7416TIP3    H243664   6.585   3.350   4.763 -0.9360  0.2838 -0.6970
 7417TIP3   OH243665   1.750   0.224   2.809 -0.6328  0.1598 -0.2168
 7417TIP3    H143666   1.695   0.268   2.874  1.3499  1.6882  0.5206
 7417TIP3    H243667   1.688   0.187   2.746 -2.5015  1.3987  0.8082
 7418TIP3   OH243668   1.993   2.113   5.242 -0.2722  0.0562  0.3972
 7418TIP3    H143669   1.994   2.024   5.277  0.1641  0.6526  2.0045
 7418TIP3    H243670   1.912   2.119   5.192 -0.5949 -1.0670  0.7600
 7419TIP3   OH243671   6.708   1.173  14.339 -0.0738 -0.2214  0.3382
 7419TIP3    H143672   6.742   1.247  14.288 -0.2408 -0.8601 -0.7378
 7419TIP3    H243673   6.656   1.214  14.409  0.2624  0.6872  0.0715
 7420TIP3   OH243674   4.642   1.866  14.523  0.3838 -0.0900 -0.3637
 7420TIP3    H143675   4.713   1.930  14.526  0.8760 -0.5962 -0.9239
 7420TIP3    H243676   4.621   1.848  14.615  0.9667  0.0736 -0.1970
 7421TIP3   OH243677   0.328   1.410   6.433  0.0750  0.2440 -0.6562
 7421TIP3    H143678   0.347   1.349   6.362 -0.2773 -0.0483 -0.5022
 7421TIP3    H243679   0.241   1.443   6.415 -0.4666 -0.6529  0.2054
 7422TIP3   OH243680   3.826   1.468   2.401  0.1905  0.0698 -0.0935
 7422TIP3    H143681   3.838   1.557   2.432 -1.5736  0.0776  0.6758
 7422TIP3    H243682   3.814   1.477   2.306 -1.2486  0.8416  0.1208
 7423TIP3   OH243683   2.849   0.840   4.769 -0.3235  0.3509  0.0980
 7423TIP3    H143684   2.767   0.808   4.807 -0.2675  1.3546  1.1164
 7423TIP3    H243685   2.880   0.906   4.832  0.9825  0.3723 -0.5487
 7424TIP3   OH243686   1.366   5.276  15.079  0.1622 -0.1429  0.1114
 7424TIP3    H143687   1.305   5.272  15.152  0.0813 -1.5242  0.0026
 7424TIP3    H243688   1.343   5.356  15.032 -2.5719 -1.3252 -0.7663
 7425TIP3   OH243689   2.062   6.248   3.504 -0.3946  0.4195 -0.0671
 7425TIP3    H143690   2.134   6.267   3.564  0.9498 -0.1880 -1.4229
 7425TIP3    H243691   2.015   6.331   3.496 -0.6505  0.4946  1.8378
 7426TIP3   OH243692   1.646   5.661   2.335 -0.0690 -0.1868  0.2950
 7426TIP3    H143693   1.716   5.678   2.398  0.5037  3.2776 -1.0201
 7426TIP3    H243694   1.686   5.681   2.250 -2.3126  0.8782 -0.5849
 7427TIP3   OH243695   1.601   2.172   0.168 -0.1099  0.2238  0.4650
 7427TIP3    H143696   1.580   2.230   0.095 -1.0273  1.5960  1.7695
 7427TIP3    H243697   1.697   2.174   0.173 -0.1137  2.5073  1.0854
 7428TIP3   OH243698   2.759   5.946   5.643  0.1883  0.6546  0.0639
 7428TIP3    H143699   2.823   5.992   5.589  1.5665  0.9572  1.8344
 7428TIP3    H243700   2.738   6.009   5.713 -1.9453  0.4890 -0.3825
 7429TIP3   OH243701   6.686   1.121   5.638  0.3053 -0.1414  0.1448
 7429TIP3    H143702   6.680   1.029   5.665 -1.1564  0.2037  1.1710
 7429TIP3    H243703   6.609   1.134   5.582  1.1563  0.1679 -0.9690
 7430TIP3   OH243704   4.500   0.158  12.202 -0.4489  0.0366  0.1032
 7430TIP3    H143705   4.489   0.249  12.175  1.9456  0.7302  1.1745
 7430TIP3    H243706   4.493   0.107  12.121 -3.3607  0.9111 -0.3290
 7431TIP3   OH243707   5.599   5.894   3.224 -0.3992  0.5998  0.4033
 7431TIP3    H143708   5.652   5.853   3.293 -0.5818 -0.3666 -0.0128
 7431TIP3    H243709   5.525   5.931   3.271 -0.3414  0.2625  0.7748
 7432TIP3   OH243710   4.008   6.341   5.054  0.0664 -0.0074 -0.1466
 7432TIP3    H143711   3.999   6.356   4.960 -0.6018  0.8586  0.0362
 7432TIP3    H243712   3.918   6.327   5.085  0.4236 -1.9935  0.1210
 7433TIP3   OH243713   0.338   0.115   3.120 -0.3117 -0.1017 -0.2279
 7433TIP3    H143714   0.353   0.158   3.204 -2.9613  0.3947  0.0925
 7433TIP3    H243715   0.348   0.185   3.055  0.0496 -0.1027 -0.1769
 7434TIP3   OH243716   5.840   2.696  14.416 -0.6795  0.1098  0.2204
 7434TIP3    H143717   5.854   2.605  14.440 -1.0475 -0.3080 -1.0841
 7434TIP3    H243718   5.920   2.741  14.445  0.4767 -1.0302 -1.0846
 7435TIP3   OH243719   0.485   2.761   2.571 -0.2111  0.0929  0.5179
 7435TIP3    H143720   0.408   2.810   2.601 -1.3310 -1.2446 -0.0469
 7435TIP3    H243721   0.455   2.715   2.493  1.5143  0.4106 -0.3688
 7436TIP3   OH243722   2.263   5.241   1.997  0.0769  0.3348  0.0944
 7436TIP3    H143723   2.264   5.148   2.021  1.2764 -0.1371 -1.5548
 7436TIP3    H243724   2.194   5.279   2.050 -1.6214 -1.8507 -0.3980
 7437TIP3   OH243725   1.450   5.101   3.324 -0.1454 -0.2702 -0.7558
 7437TIP3    H143726   1.374   5.150   3.357  0.8912  1.1137 -0.3164
 7437TIP3    H243727   1.436   5.095   3.230 -0.3752  0.7675 -0.7970
 7438TIP3   OH243728   3.367   0.690   1.571 -0.1496  0.5452  0.7608
 7438TIP3    H143729   3.322   0.763   1.529  0.4008  0.6331  0.3041
 7438TIP3    H243730   3.450   0.727   1.602 -0.1360  0.2558  1.0780
 7439TIP3   OH243731   1.135   5.952   0.646  0.6157 -0.5847  0.3102
 7439TIP3    H143732   1.083   5.954   0.726 -0.6764 -1.0777 -0.4888
 7439TIP3    H243733   1.079   5.991   0.579  1.0045 -1.7042 -0.7121
 7440TIP3   OH243734   2.369   0.744   1.573 -0.2346 -0.7529 -0.2690
 7440TIP3    H143735   2.324   0.680   1.518  0.4242 -2.4307  1.0710
 7440TIP3    H243736   2.461   0.734   1.552 -0.2147  0.8548 -1.1170
 7441TIP3   OH243737   2.366   3.123  16.265  0.6913 -0.0603  0.5602
 7441TIP3    H143738   2.344   3.185  16.196 -0.4406 -0.5496  0.4615
 7441TIP3    H243739   2.462   3.120  16.265  0.7269  0.7262 -0.2816
 7442TIP3   OH243740   5.013   4.806   1.216  0.0352 -0.4751  0.2949
 7442TIP3    H143741   4.957   4.869   1.260  2.3458  1.2915  0.9269
 7442TIP3    H243742   5.034   4.741   1.283 -0.9081 -0.9341  0.1589
 7443TIP3   OH243743   2.645   6.093   0.649 -0.8891  0.2715  0.0908
 7443TIP3    H143744   2.608   6.173   0.688 -0.8806 -0.9505  2.7744
 7443TIP3    H243745   2.568   6.039   0.630 -0.7573 -0.3982  1.3842
 7444TIP3   OH243746   0.365   5.342  15.756 -0.0854 -0.3635  0.1915
 7444TIP3    H143747   0.279   5.383  15.762  1.1072  2.1718  1.8915
 7444TIP3    H243748   0.405   5.382  15.678  0.1509 -0.2418  0.3739
 7445TIP3   OH243749   6.615   5.284  11.576  0.6906 -0.0861 -0.0875
 7445TIP3    H143750   6.588   5.256  11.489  0.7085  0.0564 -0.1392
 7445TIP3    H243751   6.699   5.240  11.591  1.0068  0.3852 -0.4034
 7446TIP3   OH243752   0.432   6.184  14.916  0.1416  0.3108 -0.3016
 7446TIP3    H143753   0.487   6.173  14.994  2.2162  3.6066 -1.0655
 7446TIP3    H243754   0.469   6.261  14.873 -1.1454 -1.1268 -4.3777
 7447TIP3   OH243755   3.980   4.815  16.235  0.1075 -0.0298 -0.4464
 7447TIP3    H143756   4.045   4.861  16.182  1.2977 -2.1381 -0.9399
 7447TIP3    H243757   3.994   4.847  16.324  1.8194 -0.3766 -0.5547
 7448TIP3   OH243758   3.524   2.445   5.206  0.1659  0.3193 -0.0543
 7448TIP3    H143759   3.556   2.417   5.291 -0.9514  0.2213  0.3525
 7448TIP3    H243760   3.602   2.475   5.159  0.7727  0.5286  1.0583
 7449TIP3   OH243761   5.722   1.865   4.313  0.0838  0.7494 -0.1870
 7449TIP3    H143762   5.738   1.810   4.236  0.6993  0.9725 -0.2215
 7449TIP3    H243763   5.640   1.910   4.294 -1.0424 -0.9839  0.3197
 7450TIP3   OH243764   1.208   0.320   6.167 -0.1083  0.1813 -0.5880
 7450TIP3    H143765   1.267   0.368   6.225 -1.0261  1.0639 -0.3604
 7450TIP3    H243766   1.262   0.299   6.090  1.3984 -1.8480  0.9203
 7451TIP3   OH243767   3.015   0.376   0.337  0.4192  0.5745 -0.3894
 7451TIP3    H143768   2.998   0.370   0.431 -1.0424 -2.8230 -0.7231
 7451TIP3    H243769   3.056   0.293   0.315 -0.3890  0.7771 -2.9633
 7452TIP3   OH243770   4.797   1.716  12.715 -0.3188  0.3987  0.0470
 7452TIP3    H143771   4.797   1.658  12.639  0.7407  2.2448 -1.4407
 7452TIP3    H243772   4.889   1.728  12.736 -0.5494  1.0595  0.7193
 7453TIP3   OH243773   0.016   4.836  12.104 -0.0591 -0.4904 -0.3200
 7453TIP3    H143774   0.046   4.745  12.097  2.0191  0.2262 -1.5754
 7453TIP3    H243775   0.091   4.883  12.141 -1.1247  0.7278  0.3681
 7454TIP3   OH243776   1.465   1.087   0.496 -1.0729  0.0670 -0.3616
 7454TIP3    H143777   1.520   1.116   0.569  1.9072  0.3104 -2.5054
 7454TIP3    H243778   1.459   0.992   0.507 -1.5408  0.2048  0.7255
 7455TIP3   OH243779   3.940   5.402  16.948  0.2553 -0.4140 -0.1671
 7455TIP3    H143780   3.971   5.438  17.031 -0.3899  2.6763 -1.1118
 7455TIP3    H243781   4.001   5.438  16.883  0.3293 -2.1944 -1.1477
 7456TIP3   OH243782   2.706   5.481  13.389  0.1023 -0.1555 -0.4357
 7456TIP3    H143783   2.763   5.538  13.442 -0.2342 -0.7238  0.5689
 7456TIP3    H243784   2.741   5.489  13.300 -0.1528  1.9033 -0.4089
 7457TIP3   OH243785   1.971   5.115   5.329  0.4777  0.1079 -0.0654
 7457TIP3    H143786   1.927   5.182   5.278  1.6804  0.5406 -0.5864
 7457TIP3    H243787   1.915   5.037   5.321 -0.6691  0.8943  0.1354
 7458TIP3   OH243788   5.602   2.210   2.095 -0.1694 -0.4290  0.0089
 7458TIP3    H143789   5.662   2.144   2.061  0.8578  0.3158  0.3333
 7458TIP3    H243790   5.640   2.236   2.179 -0.5225  0.6085 -0.1356
 7459TIP3   OH243791   2.183   5.530   2.483  0.3556 -0.5658  0.1214
 7459TIP3    H143792   2.144   5.595   2.424 -0.0710 -2.0129 -1.2702
 7459TIP3    H243793   2.136   5.449   2.464 -0.4972 -0.9381  3.1758
 7460TIP3   OH243794   3.071   4.808  12.210 -0.3571  0.0909  0.2245
 7460TIP3    H143795   3.062   4.873  12.140  1.1844 -1.0156 -1.0726
 7460TIP3    H243796   3.133   4.848  12.271  0.8688 -0.2702 -0.7498
 7461TIP3   OH243797   2.338   3.441  11.397  0.7069 -0.1011 -0.5804
 7461TIP3    H143798   2.317   3.534  11.388  1.1956  0.0137 -0.5837
 7461TIP3    H243799   2.253   3.397  11.398  0.4982  0.2165 -2.0614
 7462TIP3   OH243800   4.811   2.604   5.000  0.0396 -0.1842 -0.1399
 7462TIP3    H143801   4.799   2.526   5.055  0.1626  0.2548  0.5232
 7462TIP3    H243802   4.838   2.569   4.915  0.8036 -0.8294  0.3527
 7463TIP3   OH243803   5.879   0.804   3.789 -0.1805 -0.4073 -0.0022
 7463TIP3    H143804   5.869   0.709   3.789 -1.7525 -0.2734 -0.0125
 7463TIP3    H243805   5.793   0.837   3.817 -0.6007  1.0800 -2.7558
 7464TIP3   OH243806   2.582   5.707  12.262 -0.4243 -0.1242 -0.0867
 7464TIP3    H143807   2.638   5.701  12.185 -1.8552 -2.5618 -1.0389
 7464TIP3    H243808   2.514   5.770  12.237  1.0730  1.8629  0.6052
 7465TIP3   OH243809   1.811   1.578  13.010 -0.2327 -0.0705 -0.1504
 7465TIP3    H143810   1.827   1.533  12.927 -1.3058  0.4853 -0.6796
 7465TIP3    H243811   1.782   1.666  12.985  0.2190  0.3742  0.8317
 7466TIP3   OH243812   1.486   3.446  16.683  0.3536 -0.5897 -0.1306
 7466TIP3    H143813   1.565   3.489  16.717  2.8787 -1.7790 -3.8440
 7466TIP3    H243814   1.417   3.512  16.693  2.1161  1.1228  1.8462
 7467TIP3   OH243815   5.178   1.149  15.930 -0.2099  0.0737  0.4211
 7467TIP3    H143816   5.099   1.199  15.907 -0.5446  0.3126  2.0045
 7467TIP3    H243817   5.145   1.077  15.984  0.4707 -0.9219 -0.4474
 7468TIP3   OH243818   6.038   6.678  14.210 -0.1420 -0.4331  0.0705
 7468TIP3    H143819   6.092   6.628  14.148 -4.1587 -1.3973 -3.1028
 7468TIP3    H243820   6.047   6.769  14.181 -2.4394 -0.9217 -2.7051
 7469TIP3   OH243821   6.328   4.597  13.733  0.1883  0.0886 -0.2698
 7469TIP3    H143822   6.272   4.552  13.797 -0.1608 -1.3498 -1.5259
 7469TIP3    H243823   6.417   4.583  13.765 -0.0481  0.5695  0.6224
 7470TIP3   OH243824   5.691   4.206  11.562  0.0661  0.8063  0.1514
 7470TIP3    H143825   5.691   4.117  11.598 -0.2902  1.0487  0.7808
 7470TIP3    H243826   5.600   4.222  11.537 -0.3358  1.7303  1.9995
 7471TIP3   OH243827   4.335   3.220  12.004 -0.1504  0.1065 -0.4886
 7471TIP3    H143828   4.363   3.274  12.078 -0.1283 -0.1966 -0.2729
 7471TIP3    H243829   4.242   3.240  11.992  0.2931  1.6137 -1.6282
 7472TIP3   OH243830   4.126   0.707  11.509  0.1539  0.4243  0.1391
 7472TIP3    H143831   4.118   0.751  11.594 -0.5435  0.7184 -0.0702
 7472TIP3    H243832   4.145   0.616  11.531 -0.1808  0.4680  0.6199
 7473TIP3   OH243833   6.365   1.882  13.320 -0.1660  0.3511  0.0442
 7473TIP3    H143834   6.356   1.810  13.381  2.2171  2.1772  2.8205
 7473TIP3    H243835   6.323   1.851  13.240 -1.8518 -2.8955  1.9785
 7474TIP3   OH243836   6.267   2.478  14.455 -0.6298  0.9707 -0.5555
 7474TIP3    H143837   6.173   2.472  14.471 -0.7641 -0.2263 -1.5771
 7474TIP3    H243838   6.283   2.416  14.384  0.9622  1.0346 -0.2979
 7475TIP3   OH243839   6.759   5.264   1.415  0.4047  0.3534 -0.4714
 7475TIP3    H143840   6.753   5.332   1.347  0.8028  1.8269  0.9002
 7475TIP3    H243841   6.726   5.307   1.494  1.9167 -0.6084  0.7325
 7476TIP3   OH243842   6.359   1.363  16.320  0.0056 -0.4165 -0.6036
 7476TIP3    H143843   6.439   1.312  16.311  1.7640  2.0319  0.1821
 7476TIP3    H243844   6.332   1.352  16.411  3.5847  4.0651  1.4268
 7477TIP3   OH243845   1.739   6.378  16.663  0.2516 -0.3289 -0.3269
 7477TIP3    H143846   1.825   6.354  16.630  1.4643  0.8527  1.7497
 7477TIP3    H243847   1.741   6.357  16.756 -1.2457  0.8744  0.0362
 7478TIP3   OH243848   5.489   4.879   2.754 -0.3082 -0.3386  0.1442
 7478TIP3    H143849   5.399   4.892   2.782  0.0093  0.7676  0.7054
 7478TIP3    H243850   5.530   4.829   2.825 -0.3042 -0.2533  0.2014
 7479TIP3   OH243851   0.726   4.137   1.358  0.0029 -0.1801  0.4357
 7479TIP3    H143852   0.818   4.128   1.382  0.0522 -0.1948  0.2471
 7479TIP3    H243853   0.697   4.218   1.401  0.1221 -0.1414  0.4431
 7480TIP3   OH243854   0.681   1.727   3.441 -0.4868  0.0816 -0.0788
 7480TIP3    H143855   0.679   1.696   3.531 -0.7089 -2.9169 -0.9875
 7480TIP3    H243856   0.590   1.750   3.421 -1.0190 -1.9935 -0.2991
 7481TIP3   OH243857   6.581   5.841  16.803  0.2026  0.5950 -0.0880
 7481TIP3    H143858   6.521   5.769  16.783 -1.0999  1.3811  0.7495
 7481TIP3    H243859   6.573   5.852  16.898 -0.9614  2.8954 -0.3760
 7482TIP3   OH243860   4.008   1.679  14.322  0.7685  0.8258 -0.9047
 7482TIP3    H143861   3.926   1.655  14.279  0.6525 -0.0312 -0.2191
 7482TIP3    H243862   4.065   1.603  14.308  0.9945  0.8690 -0.2273
 7483TIP3   OH243863   1.647   1.753  12.221  0.0423  0.1709 -0.0691
 7483TIP3    H143864   1.611   1.751  12.310  0.5176  2.2749  0.2439
 7483TIP3    H243865   1.575   1.786  12.167  0.0769 -0.0714 -0.2622
 7484TIP3   OH243866   0.574   6.184   3.620 -0.1012 -0.1998  0.3802
 7484TIP3    H143867   0.610   6.270   3.641 -0.1473  0.1982 -1.0810
 7484TIP3    H243868   0.573   6.138   3.704 -0.6526  1.4167  1.3187
 7485TIP3   OH243869   0.565   5.828   1.696  0.1556 -0.4347 -0.6230
 7485TIP3    H143870   0.611   5.853   1.616  1.5506  2.3470  0.9436
 7485TIP3    H243871   0.510   5.903   1.717 -0.4981 -1.2759  0.8469
 7486TIP3   OH243872   5.972   3.833   1.500  0.3842  0.6966 -0.1183
 7486TIP3    H143873   5.911   3.880   1.444  1.0940  0.5136 -1.0761
 7486TIP3    H243874   6.040   3.801   1.440 -1.0458 -3.2743  0.1036
 7487TIP3   OH243875   4.578   5.764   3.312 -0.1607 -0.2300 -0.1413
 7487TIP3    H143876   4.615   5.752   3.225  0.5223 -0.0244  0.1116
 7487TIP3    H243877   4.636   5.716   3.370 -0.1869  0.2386  0.2864
 7488TIP3   OH243878   1.813   0.742  14.217 -0.0711  0.3323 -0.0613
 7488TIP3    H143879   1.738   0.704  14.172 -0.4593  0.6146  0.3354
 7488TIP3    H243880   1.775   0.805  14.278  0.4932  0.5272  0.0986
 7489TIP3   OH243881   4.253   4.212   0.725  0.1035  0.0123  0.0874
 7489TIP3    H143882   4.216   4.176   0.806  0.3647  1.0749  0.6977
 7489TIP3    H243883   4.318   4.147   0.697  0.3487 -0.1423  0.9901
 7490TIP3   OH243884   6.190   1.268  10.940  0.4519  0.2203  0.1965
 7490TIP3    H143885   6.232   1.317  11.010  0.2542 -0.4580  0.8000
 7490TIP3    H243886   6.195   1.326  10.864  3.3675 -0.2083 -0.0420
 7491TIP3   OH243887   6.673   3.647   1.695 -0.1612 -0.2122  0.1870
 7491TIP3    H143888   6.607   3.603   1.642 -0.7239 -0.7993  1.3434
 7491TIP3    H243889   6.633   3.731   1.718  1.5051  1.8240 -3.3424
 7492TIP3   OH243890   3.737   4.151   0.347  0.3899 -0.2473  0.5792
 7492TIP3    H143891   3.709   4.231   0.303  1.4717 -0.3233 -0.2668
 7492TIP3    H243892   3.814   4.177   0.397  0.3689 -0.6288  0.8148
 7493TIP3   OH243893   4.776   0.837   0.823  0.1890  0.3583 -0.0174
 7493TIP3    H143894   4.832   0.848   0.746 -0.5824 -3.9980 -1.4848
 7493TIP3    H243895   4.837   0.816   0.893  0.6671 -1.9276 -1.0313
 7494TIP3   OH243896   3.700   4.041  12.444  0.7925  0.0890  0.0299
 7494TIP3    H143897   3.659   4.083  12.368 -1.2366 -0.2418  0.8682
 7494TIP3    H243898   3.690   4.104  12.515  0.1832 -0.6605  0.6392
 7495TIP3   OH243899   1.820   2.393   6.084 -0.5456  0.0846 -0.8609
 7495TIP3    H143900   1.852   2.306   6.110  0.3458  0.1892 -1.5537
 7495TIP3    H243901   1.724   2.385   6.085 -0.5041 -0.4647  0.5272
 7496TIP3   OH243902   5.643   1.018   2.480  0.0168  0.1238  0.3497
 7496TIP3    H143903   5.595   1.005   2.399  1.6629 -0.8923 -0.5110
 7496TIP3    H243904   5.717   0.957   2.475  0.8649  0.9282  2.0372
 7497TIP3   OH243905   6.726   2.384  16.820 -0.0615 -0.2470  0.1208
 7497TIP3    H143906   6.703   2.429  16.739  0.2653  0.1671  0.2554
 7497TIP3    H243907   6.773   2.305  16.792 -3.1953 -2.1698 -0.2850
 7498TIP3   OH243908   0.969   4.856   0.893 -0.1485  0.5368 -0.2136
 7498TIP3    H143909   1.034   4.858   0.963 -1.8474 -0.0050  1.4461
 7498TIP3    H243910   0.952   4.763   0.878  0.2547  0.6401 -1.4553
 7499TIP3   OH243911   5.845   0.815   4.788  0.7904 -0.0192 -0.1868
 7499TIP3    H143912   5.858   0.874   4.861  0.3953  0.6437 -0.6438
 7499TIP3    H243913   5.796   0.741   4.824 -1.7360  1.4899 -0.2950
 7500TIP3   OH243914   4.081   6.610  13.899 -0.5521  0.3787  0.5215
 7500TIP3    H143915   4.111   6.682  13.843  0.2885  0.2241  0.7603
 7500TIP3    H243916   4.023   6.653  13.962 -1.2656  0.6001 -0.2562
 7501TIP3   OH243917   1.030   3.273   2.234 -0.4942 -0.2586  0.1498
 7501TIP3    H143918   1.095   3.294   2.168 -1.3900  1.6574 -0.1927
 7501TIP3    H243919   0.955   3.239   2.185 -1.1876  1.2322  0.1032
 7502TIP3   OH243920   1.529   5.284  14.385  0.7349  0.1102  0.7751
 7502TIP3    H143921   1.441   5.320  14.390  1.3066  1.6624  0.3928
 7502TIP3    H243922   1.540   5.233  14.465 -0.6191 -0.4222  0.6474
 7503TIP3   OH243923   3.611   4.601   5.854  0.2344 -0.1294 -0.0597
 7503TIP3    H143924   3.694   4.649   5.863 -1.1257  2.2804  0.4377
 7503TIP3    H243925   3.546   4.656   5.898 -1.3804 -2.7959  1.1391
 7504TIP3   OH243926   5.113   0.185   2.484 -0.4390  0.0762  0.6601
 7504TIP3    H143927   5.201   0.204   2.516 -0.6218 -0.6628  1.6287
 7504TIP3    H243928   5.058   0.186   2.562 -1.1738 -0.1450  0.1501
 7505TIP3   OH243929   3.203   3.266  15.879  0.7389 -0.0893 -0.2231
 7505TIP3    H143930   3.117   3.233  15.903 -0.2376  2.3256 -0.2006
 7505TIP3    H243931   3.250   3.273  15.963  0.1746  0.6405  0.0430
 7506TIP3   OH243932   0.651   2.867   0.969 -0.0645 -0.3139  0.0424
 7506TIP3    H143933   0.622   2.938   1.025 -0.5006 -0.0990 -0.4509
 7506TIP3    H243934   0.576   2.849   0.912  0.1917 -0.8777 -0.1262
 7507TIP3   OH243935   0.246   6.677   4.935 -0.0403  0.3115 -0.3384
 7507TIP3    H143936   0.268   6.665   4.842  0.7743 -0.3845 -0.0695
 7507TIP3    H243937   0.219   6.769   4.941 -0.1507  0.3543 -1.2712
 7508TIP3   OH243938   5.875   5.483  16.254 -0.1669 -0.0883 -0.0248
 7508TIP3    H143939   5.788   5.465  16.217  0.2842 -1.0134 -0.6689
 7508TIP3    H243940   5.870   5.574  16.282 -0.9726  0.2440 -1.1595
 7509TIP3   OH243941   2.295   6.269   3.684 -0.1370  0.0759  0.2976
 7509TIP3    H143942   2.366   6.320   3.646 -0.4183 -1.2515 -2.2421
 7509TIP3    H243943   2.335   6.184   3.704 -1.1017 -1.0199 -2.0591
 7510TIP3   OH243944   5.709   4.485   3.306 -0.8212 -0.2201  0.1949
 7510TIP3    H143945   5.643   4.554   3.308  0.1216  0.7009  2.1752
 7510TIP3    H243946   5.782   4.520   3.357  2.1523 -0.3049 -3.5560
 7511TIP3   OH243947   4.635   6.674  16.928 -0.8205 -0.0995  0.1525
 7511TIP3    H143948   4.711   6.634  16.970 -0.4482 -1.5997 -1.7985
 7511TIP3    H243949   4.575   6.694  17.000  1.3812  1.1174  1.7370
 7512TIP3   OH243950   4.298   4.729   6.044  0.7514 -0.1666 -0.3039
 7512TIP3    H143951   4.258   4.728   6.130 -0.0141  0.2785 -0.6411
 7512TIP3    H243952   4.323   4.638   6.027 -0.0285 -0.4376 -0.0359
 7513TIP3   OH243953   0.234   1.292   0.434 -0.4870  0.4030  0.4900
 7513TIP3    H143954   0.246   1.293   0.529 -0.3867 -0.5489  0.4947
 7513TIP3    H243955   0.221   1.200   0.412 -4.6495  0.8944  0.0888
 7514TIP3   OH243956   4.318   2.897  12.671 -0.4312  0.0587  0.0593
 7514TIP3    H143957   4.330   2.943  12.754 -1.6139  0.5435 -0.0249
 7514TIP3    H243958   4.234   2.853  12.680 -0.1465 -0.6279 -0.5499
 7515TIP3   OH243959   6.772   0.688   5.604 -0.0540  0.2351 -0.7229
 7515TIP3    H143960   6.717   0.759   5.637  0.5468  0.4238 -0.1033
 7515TIP3    H243961   6.861   0.724   5.606  0.0401  0.1694 -2.3338
 7516TIP3   OH243962   2.478   1.448  14.501  0.4997 -0.0134  0.2788
 7516TIP3    H143963   2.457   1.375  14.560  0.8147  0.0884  0.5174
 7516TIP3    H243964   2.566   1.429  14.470  0.9390  0.7152  1.0306
 7517TIP3   OH243965   2.838   6.149  11.850 -0.1391  0.0525 -0.6662
 7517TIP3    H143966   2.907   6.122  11.790  0.5815 -0.2548  0.2850
 7517TIP3    H243967   2.880   6.211  11.909 -0.0558 -1.7714  1.3104
 7518TIP3   OH243968   4.431   3.780  16.663 -0.0890  0.7543  0.4524
 7518TIP3    H143969   4.474   3.728  16.731 -0.0022 -1.0841 -0.9332
 7518TIP3    H243970   4.357   3.726  16.635  1.3853  0.1310 -2.7254
 7519TIP3   OH243971   6.042   3.031   2.487 -0.2005  0.2315  0.4171
 7519TIP3    H143972   6.078   3.116   2.463 -1.4573  0.8701  0.7036
 7519TIP3    H243973   5.980   3.050   2.559 -0.2930 -0.9521  0.6744
 7520TIP3   OH243974   4.442   3.838  15.887 -0.0383 -0.0025  0.1809
 7520TIP3    H143975   4.536   3.823  15.877 -0.0537  0.5533 -0.8860
 7520TIP3    H243976   4.435   3.924  15.928 -0.0763 -0.6030  1.5103
 7521TIP3   OH243977   1.776   1.805  15.865  0.2624 -0.1655 -0.2931
 7521TIP3    H143978   1.870   1.790  15.873  0.3162  0.9391  1.6526
 7521TIP3    H243979   1.737   1.747  15.930 -0.4306 -0.6538 -1.1244
 7522TIP3   OH243980   5.726   5.674   4.557  0.4124  0.1943 -0.8608
 7522TIP3    H143981   5.634   5.699   4.554  0.4316  0.4035 -0.0915
 7522TIP3    H243982   5.773   5.757   4.568  0.8888  0.3466 -3.4627
 7523TIP3   OH243983   5.411   0.299  14.458  0.3472  0.4207 -0.5915
 7523TIP3    H143984   5.316   0.302  14.473  0.0102  0.4711 -2.5147
 7523TIP3    H243985   5.427   0.212  14.422  1.1539  0.1673  0.3557
 7524TIP3   OH243986   0.656   6.552   1.191 -0.1381  0.4291  0.9564
 7524TIP3    H143987   0.642   6.635   1.146  1.2725 -0.5017 -1.4033
 7524TIP3    H243988   0.595   6.491   1.149 -1.7464  0.3632  3.2115
 7525TIP3   OH243989   5.611   5.198  12.691 -0.4397 -0.1345  0.5192
 7525TIP3    H143990   5.680   5.242  12.741  0.5112 -0.4389 -0.4889
 7525TIP3    H243991   5.590   5.259  12.619  0.3992 -0.9952 -0.4869
 7526TIP3   OH243992   0.460   1.587  10.591  0.3171  0.3990 -0.0160
 7526TIP3    H143993   0.474   1.678  10.615  2.6081  0.1027  0.0429
 7526TIP3    H243994   0.546   1.556  10.562 -0.2447 -1.8891  0.5034
 7527TIP3   OH243995   5.449   1.585  14.759  0.2375  0.1948 -0.2426
 7527TIP3    H143996   5.449   1.523  14.832 -0.2357 -0.0051 -0.4060
 7527TIP3    H243997   5.356   1.592  14.734  0.2341  1.3060  0.0587
 7528TIP3   OH243998   5.487   0.485   1.025 -0.1843 -0.0726 -0.6329
 7528TIP3    H143999   5.552   0.538   1.072 -0.1180 -1.5428  1.0414
 7528TIP3    H244000   5.482   0.524   0.938  0.2278  2.3726  0.3487
 7529TIP3   OH244001   3.146   1.166   4.365  0.1127 -0.2444 -0.2166
 7529TIP3    H144002   3.067   1.112   4.373 -0.5292  0.6972 -0.0600
 7529TIP3    H244003   3.218   1.103   4.358 -0.7404 -1.1293 -1.3293
 7530TIP3   OH244004   6.627   6.329   1.653 -0.6070 -0.1566 -0.1460
 7530TIP3    H144005   6.543   6.308   1.694 -0.1571 -1.0348  0.3495
 7530TIP3    H244006   6.604   6.356   1.564 -1.6277  2.1309  0.7396
 7531TIP3   OH244007   6.360   1.711  13.847  0.5959  0.5794 -0.1592
 7531TIP3    H144008   6.369   1.763  13.927 -0.7729  0.4435  0.1078
 7531TIP3    H244009   6.420   1.637  13.859  0.7929  0.8411  0.4927
 7532TIP3   OH244010   4.093   5.385   0.609  0.2998  0.1297  0.7574
 7532TIP3    H144011   4.088   5.409   0.701  0.2310  0.3514  0.6969
 7532TIP3    H244012   4.175   5.423   0.579 -0.0992  0.8108  0.5131
 7533TIP3   OH244013   0.966   2.635  10.648 -0.2726  0.8572 -0.1015
 7533TIP3    H144014   0.992   2.550  10.683 -0.1499 -0.5914 -3.3389
 7533TIP3    H244015   1.034   2.695  10.680  1.2631 -0.8370  0.0140
 7534TIP3   OH244016   1.477   5.225  11.486 -0.1019 -0.0188  0.2662
 7534TIP3    H144017   1.498   5.132  11.497  2.8949  0.5211 -0.1999
 7534TIP3    H244018   1.410   5.241  11.553 -0.4255 -2.4031  0.6227
 7535TIP3   OH244019   5.621   1.808  16.851  0.5596  0.1107 -0.2630
 7535TIP3    H144020   5.695   1.812  16.912  2.4304 -4.2932 -1.8624
 7535TIP3    H244021   5.651   1.856  16.774  0.8651  0.1854 -0.1001
 7536TIP3   OH244022   1.167   6.440   5.591 -0.9276 -0.1926  0.4849
 7536TIP3    H144023   1.256   6.471   5.571 -1.1092 -0.2816 -0.5385
 7536TIP3    H244024   1.174   6.345   5.587 -0.9268 -0.2177  1.0719
 7537TIP3   OH244025   4.349   0.286   4.793  0.1650  0.0466  0.2062
 7537TIP3    H144026   4.346   0.378   4.820  5.0119  0.0326  1.7142
 7537TIP3    H244027   4.379   0.288   4.702 -0.8661 -0.0740 -0.1466
 7538TIP3   OH244028   3.782   2.986  14.494 -0.1070  1.0401 -0.4802
 7538TIP3    H144029   3.711   3.041  14.527 -0.8104 -0.0931 -0.0245
 7538TIP3    H244030   3.744   2.898  14.491  1.5701  0.2290  0.7267
 7539TIP3   OH244031   5.292   2.840  12.769 -0.2748 -0.4089 -0.2898
 7539TIP3    H144032   5.266   2.930  12.790 -1.5368 -1.0134  0.8866
 7539TIP3    H244033   5.215   2.787  12.791  0.6799 -1.8548 -0.3025
 7540TIP3   OH244034   3.451   2.044   3.751 -0.3248 -0.1669  0.7273
 7540TIP3    H144035   3.512   2.032   3.823 -0.1575  0.9987  0.8017
 7540TIP3    H244036   3.505   2.069   3.676 -0.5631 -0.6780  0.3776
 7541TIP3   OH244037   3.454   3.119   1.377 -0.3294 -0.2915 -0.0589
 7541TIP3    H144038   3.452   3.212   1.399  0.9810 -0.4319  0.7770
 7541TIP3    H244039   3.497   3.078   1.452  0.3692 -1.3839 -1.0274
 7542TIP3   OH244040   1.280   1.651  15.538  0.4572 -0.2624 -0.3036
 7542TIP3    H144041   1.204   1.707  15.548  1.1665  0.5752  0.5409
 7542TIP3    H244042   1.350   1.710  15.510  1.2853 -0.6418  0.8796
 7543TIP3   OH244043   6.223   3.178  15.000 -0.1621 -0.4995  0.1669
 7543TIP3    H144044   6.245   3.089  14.972 -1.3294 -1.3537  1.7543
 7543TIP3    H244045   6.296   3.232  14.971  0.2448 -1.8446 -1.4599
 7544TIP3   OH244046   0.488   6.034  16.616  0.0826 -0.3120  0.0768
 7544TIP3    H144047   0.471   5.996  16.530  1.1827  0.5930 -0.5619
 7544TIP3    H244048   0.426   5.989  16.674 -1.6452  0.0091 -1.4053
 7545TIP3   OH244049   4.868   5.066   0.406  0.7593  0.0354  0.0208
 7545TIP3    H144050   4.936   5.002   0.384 -1.2827 -1.7785 -1.5350
 7545TIP3    H244051   4.914   5.149   0.413  2.9711 -0.8370 -2.4093
 7546TIP3   OH244052   3.977   2.331  17.068  0.0423  0.4717  0.0823
 7546TIP3    H144053   3.909   2.264  17.060  2.0256 -1.7791  1.1456
 7546TIP3    H244054   3.977   2.353  17.162  2.8152 -1.9437  0.7674
 7547TIP3   OH244055   1.754   2.004  16.717  0.6313 -0.2089 -0.0607
 7547TIP3    H144056   1.665   2.039  16.713  0.4369 -0.7494 -0.5892
 7547TIP3    H244057   1.788   2.013  16.628  0.5899 -1.3044 -0.2000
 7548TIP3   OH244058   1.955   0.400  11.742  0.5158  0.3131 -0.3007
 7548TIP3    H144059   1.866   0.402  11.778  0.9531 -0.8104  0.9141
 7548TIP3    H244060   1.946   0.438  11.655 -0.8730  1.6957  0.3936
 7549TIP3   OH244061   4.891   3.958  12.825  0.3103 -0.0913  0.6197
 7549TIP3    H144062   4.870   3.865  12.832  1.5607 -0.4101  0.3493
 7549TIP3    H244063   4.876   3.993  12.913 -1.7890 -0.1606  0.3490
 7550TIP3   OH244064   4.220   3.916  16.201  0.2095  0.6158  0.2027
 7550TIP3    H144065   4.172   3.891  16.122 -1.4573  0.8998  1.0872
 7550TIP3    H244066   4.275   3.990  16.172 -1.7566  1.9721 -0.3325
 7551TIP3   OH244067   5.688   5.576  15.548  0.0699  0.4108  0.0320
 7551TIP3    H144068   5.624   5.545  15.486  0.3444 -0.3682  0.1330
 7551TIP3    H244069   5.645   5.568  15.633  0.7595 -1.4450  0.2555
 7552TIP3   OH244070   4.492   4.865  11.495  0.2903 -0.2841  0.2543
 7552TIP3    H144071   4.448   4.931  11.442  2.2450  1.5610  0.7746
 7552TIP3    H244072   4.431   4.846  11.566 -0.7412  0.1540 -0.4942
 7553TIP3   OH244073   1.901   4.669  11.965  0.6450  0.4266  0.2678
 7553TIP3    H144074   1.980   4.637  12.010 -0.8654 -0.6047  2.3454
 7553TIP3    H244075   1.830   4.614  11.999 -1.1839  2.1746 -0.5338
 7554TIP3   OH244076   6.374   4.610  14.308 -0.2292  0.0695 -0.5018
 7554TIP3    H144077   6.448   4.663  14.278 -0.2243  0.7410  0.6371
 7554TIP3    H244078   6.324   4.591  14.229  0.5177  0.6230 -1.1212
 7555TIP3   OH244079   5.734   3.534  11.965 -0.0546 -0.0531  0.3109
 7555TIP3    H144080   5.687   3.466  11.916 -0.9361 -0.9932  2.3457
 7555TIP3    H244081   5.666   3.584  12.009  0.7472 -0.1631  1.7242
 7556TIP3   OH244082   4.301   0.912   4.711  0.3938 -0.0545 -0.1942
 7556TIP3    H144083   4.363   0.954   4.771  0.8695  1.0639 -1.4237
 7556TIP3    H244084   4.338   0.826   4.694  1.2140  0.3111 -0.2989
 7557TIP3   OH244085   0.460   2.330   3.871 -0.1834  0.1736 -0.5270
 7557TIP3    H144086   0.457   2.263   3.939 -0.2392 -0.0840 -0.7816
 7557TIP3    H244087   0.521   2.396   3.905  0.5565 -0.4338 -0.6662
 7558TIP3   OH244088   1.039   4.368  12.076  0.5281 -0.8076  0.5348
 7558TIP3    H144089   1.130   4.367  12.106 -0.1908  0.6716  3.1750
 7558TIP3    H244090   1.039   4.426  12.000  1.6372  0.2206  1.2842
 7559TIP3   OH244091   1.122   4.862  11.791  0.1093  0.4956 -0.1926
 7559TIP3    H144092   1.070   4.920  11.847  0.0834  1.1010 -0.8242
 7559TIP3    H244093   1.057   4.810  11.744 -0.0851  2.4015 -2.2294
 7560TIP3   OH244094   2.207   4.837   0.525  0.3921 -0.5132  0.2897
 7560TIP3    H144095   2.239   4.824   0.436  2.0410 -0.8041  0.9011
 7560TIP3    H244096   2.249   4.918   0.554 -1.7340  0.7359  0.1304
 7561TIP3   OH244097   3.466   5.362  12.560 -0.2635  0.5625  0.0652
 7561TIP3    H144098   3.398   5.321  12.506 -0.0303 -1.1353  0.9963
 7561TIP3    H244099   3.458   5.320  12.645  2.1691  0.0416  0.1060
 7562TIP3   OH244100   1.194   5.065   3.797 -0.3835 -0.5733 -0.2105
 7562TIP3    H144101   1.243   5.135   3.840 -0.4319 -0.3497 -0.5087
 7562TIP3    H244102   1.128   5.112   3.745 -0.9669 -0.8738  0.2556
 7563TIP3   OH244103   0.847   0.932  11.735 -0.1836  0.0261 -0.6192
 7563TIP3    H144104   0.776   0.921  11.799 -0.4188 -0.5372 -0.9673
 7563TIP3    H244105   0.916   0.873  11.765  0.0033  0.3171 -0.4732
 7564TIP3   OH244106   1.073   6.354   4.694  0.1063  0.5959 -0.3241
 7564TIP3    H144107   1.156   6.324   4.730 -0.1421  0.2571 -0.0313
 7564TIP3    H244108   1.040   6.280   4.643  0.0650  0.7890 -0.5798
 7565TIP3   OH244109   6.794   2.621   2.644  0.4023 -0.0664  0.0588
 7565TIP3    H144110   6.862   2.615   2.711  0.3757 -1.7096 -0.0284
 7565TIP3    H244111   6.797   2.537   2.598 -1.3014  0.0312 -0.3140
 7566TIP3   OH244112   1.809   1.449  12.765  0.0665 -0.5273  0.3935
 7566TIP3    H144113   1.760   1.367  12.778 -0.8620  0.1151  1.0417
 7566TIP3    H244114   1.813   1.460  12.670  0.5079 -1.4971  0.2857
 7567TIP3   OH244115   1.697   1.708  12.504 -0.3573 -0.1628  0.0779
 7567TIP3    H144116   1.655   1.729  12.588 -0.1403 -0.5071  0.2789
 7567TIP3    H244117   1.786   1.679  12.529  0.1892  1.0711 -0.3803
 7568TIP3   OH244118   2.333   3.213   2.015 -0.1464 -0.4276  0.0737
 7568TIP3    H144119   2.422   3.181   2.001  0.8029  1.7640  0.7479
 7568TIP3    H244120   2.298   3.227   1.927  0.3825 -0.6977 -0.1839
 7569TIP3   OH244121   0.273   6.057  16.373 -0.4753  0.2580 -0.2168
 7569TIP3    H144122   0.319   6.043  16.290  0.9366  1.7232  0.2528
 7569TIP3    H244123   0.180   6.056  16.350 -0.1124  0.6647 -1.8208
 7570TIP3   OH244124   4.945   2.651   0.914  0.6607  0.0152 -0.2847
 7570TIP3    H144125   4.930   2.738   0.952 -1.0663  0.1213 -1.1364
 7570TIP3    H244126   5.022   2.664   0.858  0.9446  0.7701  0.2458
 7571TIP3   OH244127   1.287   0.307  12.354  0.3780  0.2284  0.4162
 7571TIP3    H144128   1.352   0.291  12.286  0.4449  0.2775  0.4685
 7571TIP3    H244129   1.204   0.312  12.307  0.6439  2.2303  0.0950
 7572TIP3   OH244130   1.578   6.043  14.028 -0.4678 -0.0667 -0.4419
 7572TIP3    H144131   1.661   6.033  14.075  0.5453  0.5863 -2.0101
 7572TIP3    H244132   1.603   6.042  13.936 -2.3147 -0.6511 -0.9708
 7573TIP3   OH244133   0.569   5.642   2.468 -0.4926 -0.7426 -0.1555
 7573TIP3    H144134   0.547   5.692   2.390 -0.3120 -0.8611 -0.2856
 7573TIP3    H244135   0.497   5.658   2.529 -0.1712  0.1012  0.0071
 7574TIP3   OH244136   5.954   1.625   3.078 -0.1220 -0.7037 -0.0331
 7574TIP3    H144137   5.977   1.663   3.163 -0.1821 -0.3305 -0.1840
 7574TIP3    H244138   5.898   1.551   3.100 -0.5497 -0.3072  0.2329
 7575TIP3   OH244139   2.834   6.357   2.708  0.1216  0.1683 -0.0836
 7575TIP3    H144140   2.897   6.386   2.774  2.3175  1.9999 -2.7595
 7575TIP3    H244141   2.849   6.263   2.701  3.8321  0.6943 -1.6093
 7576TIP3   OH244142   3.722   3.608   3.260 -0.3811  0.3162 -0.6251
 7576TIP3    H144143   3.750   3.610   3.169  1.3756  2.5790 -0.1280
 7576TIP3    H244144   3.674   3.690   3.273  0.4177  0.6049  0.7458
 7577TIP3   OH244145   5.086   3.917  16.460  0.0778 -0.6996  0.5906
 7577TIP3    H144146   5.030   3.864  16.403  1.0046 -1.8102  0.6786
 7577TIP3    H244147   5.061   4.008  16.440  0.7296 -1.0063 -1.9935
 7578TIP3   OH244148   5.988   2.822  16.653 -0.0699 -0.4437 -0.7294
 7578TIP3    H144149   5.968   2.730  16.637  2.6286 -1.5615  1.3482
 7578TIP3    H244150   6.072   2.836  16.609 -0.8334  1.3268 -1.7282
 7579TIP3   OH244151   1.496   0.550   3.582 -0.4942 -0.4371  0.2728
 7579TIP3    H144152   1.549   0.566   3.660  0.3811  1.4544 -0.6514
 7579TIP3    H244153   1.407   0.570   3.609 -0.2633 -0.2437  0.9078
 7580TIP3   OH244154   6.057   4.477   1.967  0.0983 -0.1626 -0.2726
 7580TIP3    H144155   6.025   4.486   1.877  2.8153  0.4438 -1.2808
 7580TIP3    H244156   6.061   4.383   1.982  2.3787 -0.4344 -1.9848
 7581TIP3   OH244157   6.277   0.553  11.010  1.0695 -0.5054  0.2446
 7581TIP3    H144158   6.221   0.574  10.935 -0.3035  1.7609  1.8017
 7581TIP3    H244159   6.234   0.477  11.051 -0.1636  0.3941  0.6665
 7582TIP3   OH244160   2.739   1.512  15.175  0.5286 -0.2275 -0.1693
 7582TIP3    H144161   2.834   1.503  15.186  0.6433 -2.5632 -2.1404
 7582TIP3    H244162   2.721   1.471  15.091 -2.0581  1.8194 -0.7426
 7583TIP3   OH244163   3.745   4.470  16.466 -0.0385 -0.5608 -0.3445
 7583TIP3    H144164   3.705   4.394  16.423 -0.4324 -1.0769  0.9026
 7583TIP3    H244165   3.820   4.492  16.410 -0.7118 -1.0084 -1.4658
 7584TIP3   OH244166   0.021   3.042  15.495  0.2121  0.0621 -0.3846
 7584TIP3    H144167  -0.027   3.045  15.412  1.8461 -2.3340 -1.5157
 7584TIP3    H244168   0.072   3.123  15.496 -1.4648  1.1814 -0.5919
 7585TIP3   OH244169   1.464   3.296  16.439  0.1651 -0.3999 -0.2755
 7585TIP3    H144170   1.559   3.308  16.428  0.1923 -0.2441  0.1028
 7585TIP3    H244171   1.444   3.343  16.520 -0.6937  1.8150 -1.6702
 7586TIP3   OH244172   2.512   4.702  10.966  0.6726 -0.0704 -0.8578
 7586TIP3    H144173   2.487   4.637  11.032  0.1410  0.6082 -0.3683
 7586TIP3    H244174   2.576   4.657  10.911  1.5562 -0.4800  0.4550
 7587TIP3   OH244175   2.088   0.869   5.387  0.2542 -0.0299 -0.1273
 7587TIP3    H144176   2.074   0.900   5.476 -2.9550  0.4738 -0.7115
 7587TIP3    H244177   2.044   0.784   5.383 -2.8889  1.5327 -2.0814
 7588TIP3   OH244178   3.040   3.467   4.573  0.0667  0.0811  0.2772
 7588TIP3    H144179   2.976   3.538   4.563 -1.0017 -0.8693  0.2295
 7588TIP3    H244180   3.098   3.476   4.497 -1.2584 -0.2944 -0.7989
 7589TIP3   OH244181   1.623   0.632   3.839 -0.0078 -0.1060  0.2734
 7589TIP3    H144182   1.553   0.671   3.890 -0.1241  1.2514 -0.8602
 7589TIP3    H244183   1.669   0.706   3.799  2.0762 -0.9361  0.9595
 7590TIP3   OH244184   3.681   0.921   4.598  0.6076 -0.4150 -0.2380
 7590TIP3    H144185   3.761   0.885   4.560  0.7396 -2.1085  1.4781
 7590TIP3    H244186   3.704   0.939   4.689 -0.5832  0.3732 -0.0775
 7591TIP3   OH244187   6.525   2.505   5.427  0.4214 -0.1118 -0.3770
 7591TIP3    H144188   6.441   2.540   5.399  0.0558 -0.9466 -0.3492
 7591TIP3    H244189   6.513   2.410   5.425  1.0675 -0.2185  0.5277
 7592TIP3   OH244190   2.481   4.397  10.806 -0.3580  0.1419  0.5562
 7592TIP3    H144191   2.567   4.426  10.835  0.4242 -0.4659 -1.0660
 7592TIP3    H244192   2.445   4.471  10.757 -0.7910  0.3936  1.2254
 7593TIP3   OH244193   4.356   6.045  12.252  0.1867  0.1487 -0.1152
 7593TIP3    H144194   4.262   6.027  12.252  0.1074  0.4119  1.5984
 7593TIP3    H244195   4.362   6.140  12.238  0.1624  0.2255  0.3819
 7594TIP3   OH244196   6.177   4.192  11.232  0.6172  0.4214 -0.2120
 7594TIP3    H144197   6.209   4.102  11.224  0.1946  0.3181 -0.7539
 7594TIP3    H244198   6.140   4.212  11.147  0.0441  0.8510  0.1342
 7595TIP3   OH244199   4.142   2.395   2.099 -0.0996  0.3324  0.2746
 7595TIP3    H144200   4.176   2.479   2.129  1.6817 -0.9911  2.2179
 7595TIP3    H244201   4.090   2.362   2.171  1.3486 -1.3349  0.6377
 7596TIP3   OH244202   5.251   4.721  15.200  0.0172  0.3676 -0.2237
 7596TIP3    H144203   5.195   4.661  15.151  0.7340 -0.4854 -0.0220
 7596TIP3    H244204   5.333   4.722  15.152 -0.1452  1.5737 -0.4900
 7597TIP3   OH244205   0.544   0.404  14.240 -0.6435 -0.2060 -0.4807
 7597TIP3    H144206   0.538   0.378  14.148 -0.4995 -0.0501 -0.5350
 7597TIP3    H244207   0.616   0.352  14.275 -0.7307 -0.3019 -0.4429
 7598TIP3   OH244208   0.995   4.149  16.236  0.2090 -0.4554 -0.1236
 7598TIP3    H144209   0.973   4.164  16.327 -0.3782 -0.0055 -0.3317
 7598TIP3    H244210   1.091   4.146  16.234  0.2402  0.0057  0.4382
 7599TIP3   OH244211   1.461   1.053   5.032  0.6284  0.2301  0.1765
 7599TIP3    H144212   1.519   1.108   4.979  1.2641  1.5421  2.1058
 7599TIP3    H244213   1.484   0.963   5.007  1.5781  0.7713 -1.0226
 7600TIP3   OH244214   2.059   0.176   4.666 -0.0110  0.5452  0.2407
 7600TIP3    H144215   2.059   0.080   4.657 -1.0044  0.5136  0.4579
 7600TIP3    H244216   2.087   0.191   4.756 -0.2822  0.4310  0.3474
 7601TIP3   OH244217   4.649   1.131   4.001  0.7578  0.4916  0.0670
 7601TIP3    H144218   4.629   1.180   4.081 -1.3576 -0.7593  0.3744
 7601TIP3    H244219   4.708   1.062   4.030 -0.1891 -0.1046  0.6399
 7602TIP3   OH244220   5.365   5.894   4.107  0.5962 -0.6740  0.4502
 7602TIP3    H144221   5.424   5.871   4.179  1.8790 -0.3647 -0.4621
 7602TIP3    H244222   5.411   5.963   4.059 -0.9170  0.2157  0.2057
 7603TIP3   OH244223   4.517   1.431  13.282 -0.0988  0.2516 -0.5843
 7603TIP3    H144224   4.500   1.338  13.270 -0.2917  0.4796 -2.3187
 7603TIP3    H244225   4.612   1.440  13.269  0.0130  0.2277  0.1710
 7604TIP3   OH244226   3.016   5.180   3.611 -0.4303  0.4005 -0.0425
 7604TIP3    H144227   2.957   5.204   3.682 -0.3049  1.2861 -0.2227
 7604TIP3    H244228   3.102   5.173   3.652 -0.7322 -1.6008  0.3607
 7605TIP3   OH244229   5.811   3.535  16.061 -0.6928  0.1856 -0.0164
 7605TIP3    H144230   5.877   3.515  16.127 -0.7442  1.1323  0.3454
 7605TIP3    H244231   5.860   3.572  15.988 -0.7605  0.3503  0.0197
 7606TIP3   OH244232   2.473   2.460  16.199  0.4172  0.2769  0.1336
 7606TIP3    H144233   2.534   2.485  16.129 -0.7414  1.3738 -0.5245
 7606TIP3    H244234   2.430   2.542  16.224  0.9734 -0.0295  2.3438
 7607TIP3   OH244235   4.097   2.112   1.340 -0.5450 -0.0823  0.0679
 7607TIP3    H144236   4.178   2.060   1.349  1.1404  2.6407  2.9462
 7607TIP3    H244237   4.103   2.150   1.253 -1.6046 -3.9984 -1.9739
 7608TIP3   OH244238   0.684   1.753   1.760 -0.3497 -0.3307 -0.1717
 7608TIP3    H144239   0.778   1.736   1.769 -0.3201  0.1312  0.4579
 7608TIP3    H244240   0.656   1.694   1.690  0.1920 -1.3028  0.3969
 7609TIP3   OH244241   0.321   5.771   4.071 -0.0848  0.3156  0.1928
 7609TIP3    H144242   0.286   5.709   4.135 -0.1883  0.5275  0.3460
 7609TIP3    H244243   0.413   5.781   4.094  0.5048 -1.4688 -1.1943
 7610TIP3   OH244244   2.315   2.564   2.697 -0.0669 -0.7675 -0.4118
 7610TIP3    H144245   2.224   2.549   2.724  0.2140 -1.7412  0.0829
 7610TIP3    H244246   2.367   2.521   2.766  0.8764  2.1930  0.8726
 7611TIP3   OH244247   2.041   2.956  10.554  0.0894 -0.0669 -0.6731
 7611TIP3    H144248   2.072   2.867  10.534 -1.1402 -0.8068  0.5063
 7611TIP3    H244249   2.119   3.004  10.579  0.3971 -1.8548  2.1829
 7612TIP3   OH244250   5.213   1.901  16.170 -0.0815 -0.4207 -0.2825
 7612TIP3    H144251   5.272   1.866  16.104  2.6535  0.0682  1.7390
 7612TIP3    H244252   5.201   1.993  16.146 -0.7081 -0.7235 -1.1527
 7613TIP3   OH244253   2.481   1.503  11.983 -0.5615  0.4043  0.8533
 7613TIP3    H144254   2.539   1.576  12.005  0.3274  0.1374 -0.4504
 7613TIP3    H244255   2.413   1.543  11.929  0.7285  0.1086 -1.1077
 7614TIP3   OH244256   1.852   1.485   5.279 -0.2453 -0.2714 -0.6291
 7614TIP3    H144257   1.814   1.405   5.242  1.4758 -1.2429 -0.3896
 7614TIP3    H244258   1.842   1.550   5.209 -0.3560 -1.0952 -1.4020
 7615TIP3   OH244259   6.580   0.582   3.107 -0.2364  0.5939  0.3838
 7615TIP3    H144260   6.674   0.588   3.090 -0.2196  0.1546  0.3085
 7615TIP3    H244261   6.543   0.549   3.025 -0.5739  1.6014  0.1144
 7616TIP3   OH244262   3.389   4.633   1.899 -0.6953  0.1330 -0.1063
 7616TIP3    H144263   3.469   4.587   1.872  1.3518  1.4717  3.1485
 7616TIP3    H244264   3.400   4.722   1.865  0.4413  0.9633  2.2052
 7617TIP3   OH244265   5.111   5.810  16.354  0.3860 -0.1794 -0.9868
 7617TIP3    H144266   5.152   5.726  16.334  0.5625 -0.5375  0.6982
 7617TIP3    H244267   5.047   5.823  16.284 -0.9117 -2.6051 -0.3619
 7618TIP3   OH244268   1.680   4.978  15.464  0.0454  0.3392  0.5012
 7618TIP3    H144269   1.661   4.886  15.482 -1.0161  0.6013  0.8394
 7618TIP3    H244270   1.621   5.026  15.523 -0.7355  1.2208 -0.9385
 7619TIP3   OH244271   0.415   3.561  12.269 -0.1440 -0.4219 -0.2713
 7619TIP3    H144272   0.399   3.468  12.279  4.3582 -1.3442  0.8879
 7619TIP3    H244273   0.427   3.574  12.175 -2.2155 -0.5965 -0.6076
 7620TIP3   OH244274   2.396   4.855   1.881  0.4532 -0.2672  0.4257
 7620TIP3    H144275   2.481   4.892   1.857  0.1926 -0.5321 -1.0034
 7620TIP3    H244276   2.351   4.842   1.797 -1.9601  2.0706  1.2223
 7621TIP3   OH244277   5.004   2.257  14.055  0.7630  0.0114  0.4468
 7621TIP3    H144278   5.065   2.269  13.983  0.8696  2.4812  0.8417
 7621TIP3    H244279   4.929   2.212  14.017  1.1933  0.4711 -0.9947
 7622TIP3   OH244280   2.005   3.275  13.168 -0.5487  0.4393 -0.0859
 7622TIP3    H144281   2.020   3.180  13.173 -2.0533 -0.0210 -2.7840
 7622TIP3    H244282   2.093   3.312  13.158  0.1485 -0.5121  1.8212
 7623TIP3   OH244283   0.854   3.328   0.507  0.0626 -0.1175  0.8508
 7623TIP3    H144284   0.897   3.327   0.421 -1.0662  1.2022  0.2246
 7623TIP3    H244285   0.906   3.389   0.558 -0.3152  0.5278  0.4864
 7624TIP3   OH244286   4.675   4.122   4.533 -0.0992  0.0349  0.0445
 7624TIP3    H144287   4.646   4.033   4.552 -0.4001  0.0693 -0.2369
 7624TIP3    H244288   4.630   4.145   4.452  0.4910  0.2023 -0.2422
 7625TIP3   OH244289   3.081   3.714   5.820  0.5819  0.2567  0.0273
 7625TIP3    H144290   3.166   3.727   5.863 -0.1388 -0.1969  1.7030
 7625TIP3    H244291   3.021   3.697   5.893 -1.4576  2.9335 -0.8968
 7626TIP3   OH244292   5.583   0.601   4.745  0.1956  0.0706  0.4530
 7626TIP3    H144293   5.521   0.601   4.673  0.3520 -1.2329  0.3049
 7626TIP3    H244294   5.530   0.621   4.823 -0.6009 -1.8609  0.4626
 7627TIP3   OH244295   2.394   0.837  12.879 -0.0024 -0.0048 -0.1358
 7627TIP3    H144296   2.490   0.833  12.878  0.0286  0.7477 -1.6121
 7627TIP3    H244297   2.373   0.930  12.887 -0.5705  0.0942 -2.2277
 7628TIP3   OH244298   4.249   4.327   0.182 -0.5676 -0.0310  0.4134
 7628TIP3    H144299   4.243   4.310   0.088  0.6443 -1.5597  0.5747
 7628TIP3    H244300   4.338   4.358   0.195 -1.6781  3.4917  0.6514
 7629TIP3   OH244301   4.594   0.762   1.019 -0.3414 -0.4594  0.4855
 7629TIP3    H144302   4.519   0.819   1.036 -0.4866 -0.5015 -0.0014
 7629TIP3    H244303   4.637   0.800   0.943 -1.3237 -1.8344 -0.8314
 7630TIP3   OH244304   6.591   6.624  12.366 -0.2754  0.1135  0.1362
 7630TIP3    H144305   6.644   6.563  12.314  0.5169 -1.4817  2.6449
 7630TIP3    H244306   6.504   6.619  12.327  0.0591 -1.7457 -0.4941
 7631TIP3   OH244307   2.328   3.776  14.536 -0.4653 -0.0482  0.2974
 7631TIP3    H144308   2.384   3.796  14.461 -0.6196  1.2362  0.5064
 7631TIP3    H244309   2.387   3.782  14.612 -0.6810  0.4249  0.4328
 7632TIP3   OH244310   5.265   2.784   2.945 -0.5142  0.1691 -0.4934
 7632TIP3    H144311   5.350   2.826   2.931 -0.1063  0.2396  1.8455
 7632TIP3    H244312   5.202   2.843   2.903  0.5092  0.4310 -1.7245
 7633TIP3   OH244313   1.648   3.359   1.333 -0.2569  0.2481 -0.2285
 7633TIP3    H144314   1.571   3.415   1.342  0.2391  1.3764 -2.4092
 7633TIP3    H244315   1.630   3.306   1.256  0.0812 -1.3420  0.7503
 7634TIP3   OH244316   2.868   4.931   0.151  0.5398  0.2682 -0.9123
 7634TIP3    H144317   2.885   4.954   0.060  0.0658  1.4523 -0.7290
 7634TIP3    H244318   2.794   4.987   0.176  0.4741 -0.2520  0.1066
 7635TIP3   OH244319   0.043   0.811  15.023  0.3212 -0.0369  0.3476
 7635TIP3    H144320   0.037   0.757  14.944  0.0810  0.8154 -0.2274
 7635TIP3    H244321   0.116   0.774  15.072 -0.2814 -1.3319  0.3098
 7636TIP3   OH244322   3.067   2.311   1.179 -0.1200  0.3906 -0.1123
 7636TIP3    H144323   3.054   2.284   1.088 -0.7203  1.3209 -0.3193
 7636TIP3    H244324   3.080   2.229   1.227 -2.4434 -0.3617 -0.6235
 7637TIP3   OH244325   3.756   5.910   3.677  0.0242  0.1827 -0.2380
 7637TIP3    H144326   3.754   5.852   3.754  0.7370  2.1270  1.3246
 7637TIP3    H244327   3.839   5.957   3.684 -0.6588  1.6117 -1.2631
 7638TIP3   OH244328   4.931   5.844   2.628  0.0628 -0.1016  0.3524
 7638TIP3    H144329   4.993   5.838   2.556 -0.9020  0.4165 -0.5423
 7638TIP3    H244330   4.973   5.903   2.691  0.1620  0.8532 -0.5839
 7639TIP3   OH244331   6.442   4.912   3.717 -0.0069  0.1397  0.2035
 7639TIP3    H144332   6.496   4.878   3.788 -0.2268  1.5194  1.0499
 7639TIP3    H244333   6.492   4.986   3.682 -0.1752 -0.1582 -0.7094
 7640TIP3   OH244334   1.065   0.931  15.168  0.3510 -0.0549 -0.2545
 7640TIP3    H144335   0.974   0.935  15.137  0.2629  1.7336  0.1418
 7640TIP3    H244336   1.085   1.020  15.196  1.8493 -0.6858  0.8101
 7641TIP3   OH244337   5.270   4.846  16.068 -0.3590 -0.4407 -0.4671
 7641TIP3    H144338   5.286   4.883  15.982  0.0416 -0.5653 -0.4500
 7641TIP3    H244339   5.204   4.903  16.108  0.4861  0.4541 -0.3125
 7642TIP3   OH244340   5.319   5.367  14.554  0.4080  0.1173 -0.4123
 7642TIP3    H144341   5.364   5.452  14.558 -0.0146  0.3495 -0.5123
 7642TIP3    H244342   5.377   5.312  14.501 -0.3287  0.9842 -2.2220
 7643TIP3   OH244343   0.488   0.182  16.238 -0.5412  0.2771  0.6709
 7643TIP3    H144344   0.574   0.149  16.211 -0.2954  0.1461  1.5748
 7643TIP3    H244345   0.501   0.276  16.252 -1.1669  0.7592 -1.6017
 7644TIP3   OH244346   4.008   4.515   1.441  0.1269  0.1321  0.1516
 7644TIP3    H144347   3.961   4.598   1.442  1.7515  1.0873  1.5832
 7644TIP3    H244348   4.092   4.534   1.399  0.4375 -0.8275  0.2953
 7645TIP3   OH244349   6.518   3.705   3.936  0.3365 -0.0709 -0.3080
 7645TIP3    H144350   6.597   3.700   3.882  0.6276  1.7459 -0.1098
 7645TIP3    H244351   6.470   3.625   3.915  0.5577  0.4138 -3.0873
 7646TIP3   OH244352   3.893   5.864   5.096  0.5543  0.0353 -0.4229
 7646TIP3    H144353   3.870   5.835   5.184 -0.4677  1.3208 -0.2389
 7646TIP3    H244354   3.983   5.833   5.084 -0.2797 -2.7699 -0.1132
 7647TIP3   OH244355   6.312   1.572   1.144 -0.3242  0.3322  0.3718
 7647TIP3    H144356   6.302   1.666   1.159  1.5115  0.7025 -0.4060
 7647TIP3    H244357   6.394   1.550   1.187  0.5506 -0.3582 -1.5374
 7648TIP3   OH244358   1.739   4.742  14.684  0.1066 -0.3436 -0.1068
 7648TIP3    H144359   1.700   4.664  14.644 -2.2160  0.8336 -0.3114
 7648TIP3    H244360   1.820   4.756  14.635  1.5995 -3.5920  1.1111
 7649TIP3   OH244361   3.979   1.726   4.412 -0.4311 -0.2491  0.5206
 7649TIP3    H144362   4.061   1.718   4.364 -2.3039  1.7395 -3.4575
 7649TIP3    H244363   3.947   1.636   4.421  0.8132 -0.8047 -0.4016
 7650TIP3   OH244364   2.943   0.712   2.760  0.2058 -0.2616 -0.3585
 7650TIP3    H144365   2.860   0.684   2.722 -0.7421  2.2433 -0.3016
 7650TIP3    H244366   2.980   0.632   2.797 -2.5636 -1.3347  0.3450
 7651TIP3   OH244367   5.993   3.036  12.777  0.3070  0.3115  0.1602
 7651TIP3    H144368   6.080   3.047  12.740  1.5194 -0.0619  2.6598
 7651TIP3    H244369   5.950   2.974  12.718  1.3862  1.1943 -1.6225
 7652TIP3   OH244370   2.441   4.919   4.552  0.4810 -0.0913 -0.1209
 7652TIP3    H144371   2.487   4.849   4.506  2.3002  0.6595  0.4739
 7652TIP3    H244372   2.508   4.961   4.606 -0.8196  1.3551  0.4502
 7653TIP3   OH244373   0.144   1.786  15.803  0.3991  0.1078 -0.1881
 7653TIP3    H144374   0.159   1.880  15.800 -0.7767  0.3206  0.2914
 7653TIP3    H244375   0.131   1.767  15.896 -2.8719  0.0631 -0.5648
 7654TIP3   OH244376   6.044   6.155  15.611  0.3360  0.3544 -0.0822
 7654TIP3    H144377   5.951   6.135  15.623  0.2103  0.3904 -0.9309
 7654TIP3    H244378   6.063   6.124  15.523  1.3888 -0.6098  0.4654
 7655TIP3   OH244379   0.176   4.071  14.772  0.2531  0.4410 -0.3733
 7655TIP3    H144380   0.252   4.129  14.766 -0.2854  1.1573 -0.5210
 7655TIP3    H244381   0.171   4.047  14.864  0.1092  1.1699 -0.1805
 7656TIP3   OH244382   2.707   2.868   1.246  0.1945 -0.4039  0.8416
 7656TIP3    H144383   2.800   2.890   1.240  0.0217  0.0852 -0.2383
 7656TIP3    H244384   2.702   2.777   1.217 -0.0052  0.4645 -2.1286
 7657TIP3   OH244385   5.957   2.536   2.826  0.6244  0.0117 -0.0940
 7657TIP3    H144386   6.052   2.526   2.840  0.3660  0.2228  2.2403
 7657TIP3    H244387   5.947   2.628   2.800  1.2569 -0.7070 -3.3032
 7658TIP3   OH244388   1.137   3.926  15.525  0.1915  0.2424  0.0427
 7658TIP3    H144389   1.192   3.896  15.597  1.0088  2.2400  0.3118
 7658TIP3    H244390   1.199   3.950  15.456 -0.4357  0.9788 -0.2699
 7659TIP3   OH244391   6.197   3.782   0.962  0.0234  0.5325  0.0023
 7659TIP3    H144392   6.238   3.842   1.025  1.0346 -1.8800  1.8220
 7659TIP3    H244393   6.113   3.760   1.001 -2.1830  3.5480 -2.5335
 7660TIP3   OH244394   2.736   2.156   6.032 -0.5452 -0.4076  0.1903
 7660TIP3    H144395   2.735   2.197   5.946 -0.2531 -1.8267 -0.5045
 7660TIP3    H244396   2.756   2.229   6.092 -0.0696  0.4724 -0.9954
 7661TIP3   OH244397   4.055   0.290  12.937  0.2608 -0.5145 -0.5031
 7661TIP3    H144398   4.104   0.235  12.998  0.8321 -0.4090 -0.8600
 7661TIP3    H244399   3.963   0.269  12.955  0.4286 -0.6829  0.2024
 7662TIP3   OH244400   3.026   6.169   2.934  0.7305 -0.2749 -0.3113
 7662TIP3    H144401   3.075   6.161   3.016 -0.2979 -2.1686  0.1612
 7662TIP3    H244402   2.969   6.245   2.947  1.3152  0.0709  0.3038
 7663TIP3   OH244403   0.373   5.745  12.955  0.6611 -0.0789  0.1163
 7663TIP3    H144404   0.331   5.694  13.025  0.7949  0.7623  0.8249
 7663TIP3    H244405   0.401   5.679  12.891  1.1533 -0.9353  1.1782
 7664TIP3   OH244406   3.169   4.670   5.791  0.0901 -0.0935  0.4700
 7664TIP3    H144407   3.236   4.732   5.761 -0.4497  0.7011  0.8539
 7664TIP3    H244408   3.215   4.587   5.800  1.0686  0.4728  0.8803
 7665TIP3   OH244409   4.725   0.422  16.682  0.5942  0.8769  0.7517
 7665TIP3    H144410   4.748   0.338  16.641 -1.3815  0.2164  0.9279
 7665TIP3    H244411   4.781   0.486  16.637 -0.0130 -0.1011 -1.5755
 7666TIP3   OH244412   1.622   1.953   0.432 -0.3752 -0.1659 -0.0705
 7666TIP3    H144413   1.564   2.021   0.467  1.1069  0.8493  0.5132
 7666TIP3    H244414   1.651   1.904   0.508  1.0709  0.6100 -0.0735
 7667TIP3   OH244415   3.374   4.265  12.421  0.3958  0.5426 -0.3013
 7667TIP3    H144416   3.316   4.198  12.385  0.1780  0.1338  0.7750
 7667TIP3    H244417   3.462   4.238  12.396  0.5364 -1.3931  1.9738
 7668TIP3   OH244418   4.167   4.189  13.261  0.2730  0.6937  0.4314
 7668TIP3    H144419   4.153   4.106  13.306  0.7210 -0.4346 -1.4002
 7668TIP3    H244420   4.094   4.196  13.200 -0.5106  2.3519  1.4914
 7669TIP3   OH244421   5.175   3.344   1.494 -0.0843 -0.4201 -0.1444
 7669TIP3    H144422   5.192   3.259   1.454  0.3982  0.0272 -0.8897
 7669TIP3    H244423   5.243   3.402   1.460  0.5396 -0.0977  1.5520
 7670TIP3   OH244424   2.490   4.059   2.177 -0.5030  0.0480  0.3750
 7670TIP3    H144425   2.462   4.049   2.086 -1.1948  1.7108  0.3587
 7670TIP3    H244426   2.484   3.971   2.214  0.6943 -0.8534 -1.3997
 7671TIP3   OH244427   1.346   2.853   2.858  0.3852 -0.5712 -0.0911
 7671TIP3    H144428   1.264   2.863   2.905 -0.7166  2.0491 -2.3245
 7671TIP3    H244429   1.380   2.768   2.887 -2.6367 -1.3643  1.5473
 7672TIP3   OH244430   1.365   0.072   4.911 -0.1560 -0.5752 -0.4143
 7672TIP3    H144431   1.324   0.135   4.852 -1.4181 -1.9651 -1.0631
 7672TIP3    H244432   1.458   0.074   4.887 -0.5064 -0.4861 -1.8527
 7673TIP3   OH244433   0.112   6.535  16.240 -0.5147 -0.1379 -0.7631
 7673TIP3    H144434   0.113   6.611  16.299 -0.7469 -1.1721  0.6045
 7673TIP3    H244435   0.204   6.513  16.228 -0.4844 -1.5979  1.5019
 7674TIP3   OH244436   3.670   6.681  17.056 -0.7502  0.1843  0.3766
 7674TIP3    H144437   3.653   6.737  16.981 -0.5034 -1.5113 -1.0110
 7674TIP3    H244438   3.583   6.666  17.095 -1.2366 -0.8770 -1.0527
 7675TIP3   OH244439   2.820   1.826   4.221 -0.0750 -0.6172 -0.0978
 7675TIP3    H144440   2.865   1.804   4.302 -0.1999  1.1045  0.4723
 7675TIP3    H244441   2.735   1.860   4.249 -0.2999 -0.4214 -0.9821
 7676TIP3   OH244442   1.542   2.169  14.804 -0.0296 -0.4567 -0.1216
 7676TIP3    H144443   1.565   2.215  14.885  2.9835 -2.5795  0.4103
 7676TIP3    H244444   1.538   2.077  14.829  0.6875 -1.1423 -2.3140
 7677TIP3   OH244445   3.969   4.712  13.887 -0.5343 -0.7478  0.5378
 7677TIP3    H144446   3.908   4.786  13.893 -0.8309 -0.9876  0.5401
 7677TIP3    H244447   4.009   4.707  13.973  0.4221  0.1923  0.1670
 7678TIP3   OH244448   4.211   1.587   4.620  0.0965 -0.1658  0.1810
 7678TIP3    H144449   4.217   1.603   4.526 -2.6001  0.2641  0.0047
 7678TIP3    H244450   4.175   1.498   4.627 -2.5153  0.8296  0.6261
 7679TIP3   OH244451   4.215   5.256  14.071  0.1963 -0.2387  1.2416
 7679TIP3    H144452   4.219   5.160  14.073 -0.8667 -0.2812  2.0156
 7679TIP3    H244453   4.185   5.280  14.159 -1.0244  0.7173  0.5825
 7680TIP3   OH244454   4.920   1.308   3.872  0.3329  0.2805  0.4645
 7680TIP3    H144455   4.843   1.328   3.923  0.8900 -1.4106  2.1050
 7680TIP3    H244456   4.993   1.316   3.934  1.0553 -1.6039 -0.0611
 7681TIP3   OH244457   4.436   3.208  11.464 -0.1391  0.0773  0.2092
 7681TIP3    H144458   4.355   3.164  11.488 -2.0053  2.5569 -1.0711
 7681TIP3    H244459   4.423   3.299  11.489  2.0235  0.6865 -0.5697
 7682TIP3   OH244460   4.431   5.499   0.557  1.2278  0.0512 -0.3243
 7682TIP3    H144461   4.371   5.535   0.492 -0.5730 -0.5945  0.8901
 7682TIP3    H244462   4.456   5.574   0.610  0.4776  0.1593 -0.1008
 7683TIP3   OH244463   1.069   5.239  15.883 -0.2589  0.4434 -0.2521
 7683TIP3    H144464   1.144   5.190  15.918 -1.2675 -0.5525  0.5959
 7683TIP3    H244465   1.053   5.200  15.797 -0.2036  0.2052 -0.1553
 7684TIP3   OH244466   5.407   1.876  12.655 -0.3064 -0.1044  0.9299
 7684TIP3    H144467   5.324   1.874  12.608  1.1802 -1.2527 -1.8415
 7684TIP3    H244468   5.469   1.915  12.594  1.4651 -0.2822  2.5143
 7685TIP3   OH244469   1.232   0.945  16.928  0.7912  0.2357 -0.1071
 7685TIP3    H144470   1.256   0.905  17.011  1.3426  0.9672  0.0955
 7685TIP3    H244471   1.281   0.896  16.862  0.6618 -0.0896  0.0390
 7686TIP3   OH244472   6.607   1.338  12.997 -0.4799  0.4155 -0.1899
 7686TIP3    H144473   6.619   1.295  12.912 -2.6053  1.6120 -1.1785
 7686TIP3    H244474   6.543   1.282  13.043 -1.6725  1.3516 -0.6544
 7687TIP3   OH244475   0.779   6.708   2.661 -0.7369  0.1957  0.3346
 7687TIP3    H144476   0.816   6.638   2.716  0.4763 -0.2249 -0.9652
 7687TIP3    H244477   0.707   6.666   2.614  0.8746 -0.6501 -1.5165
 7688TIP3   OH244478   2.602   2.793   5.840 -0.1128  0.0180  0.1023
 7688TIP3    H144479   2.570   2.729   5.904  1.2282 -0.0005  0.8008
 7688TIP3    H244480   2.527   2.811   5.784 -1.1858 -0.3605  1.3714
 7689TIP3   OH244481   4.372   2.219  14.068  0.5629  0.2474  0.0868
 7689TIP3    H144482   4.357   2.138  14.117 -1.5114  0.4163 -0.1749
 7689TIP3    H244483   4.427   2.272  14.125  1.3501 -1.0557  0.5698
 7690TIP3   OH244484   1.496   4.321  15.184 -0.0734  0.0888  0.3670
 7690TIP3    H144485   1.426   4.318  15.249 -1.8541  0.3275 -1.4025
 7690TIP3    H244486   1.539   4.236  15.191 -1.4420 -0.6136  0.6195
 7691TIP3   OH244487   5.860   1.635  13.828 -0.2505 -0.4547  0.4318
 7691TIP3    H144488   5.893   1.681  13.905 -0.5190  3.3171 -1.5121
 7691TIP3    H244489   5.938   1.615  13.776 -0.2480 -1.1143  0.6732
 7692TIP3   OH244490   2.692   3.086   5.597  0.1658 -0.1479  0.0102
 7692TIP3    H144491   2.661   3.176   5.583  1.0072  0.5787  2.2625
 7692TIP3    H244492   2.782   3.087   5.566  1.0209  0.6003  2.2471
 7693TIP3   OH244493   6.589   0.528   5.264  0.1596 -0.3665 -0.3938
 7693TIP3    H144494   6.508   0.529   5.316  1.0442 -0.7543  1.0328
 7693TIP3    H244495   6.615   0.620   5.260 -0.0380 -0.3065 -0.3361
 7694TIP3   OH244496   5.626   0.063  17.110  0.2265 -0.1579 -0.0650
 7694TIP3    H144497   5.600   0.155  17.112  0.5867 -0.0577  0.1468
 7694TIP3    H244498   5.699   0.058  17.172 -0.7748 -0.8850  1.1055
 7695TIP3   OH244499   5.668   5.943  13.663 -0.6262  0.3992  0.4726
 7695TIP3    H144500   5.723   6.012  13.623  0.4619 -1.0332 -0.6130
 7695TIP3    H244501   5.602   5.991  13.712  1.3029  2.2388  1.4492
 7696TIP3   OH244502   1.048   5.633   0.964 -0.3022 -0.4160 -0.9177
 7696TIP3    H144503   1.096   5.551   0.975  0.1562  0.1545  2.5432
 7696TIP3    H244504   1.114   5.701   0.974 -1.0741  0.3757 -1.0954
 7697TIP3   OH244505   1.061   3.332   0.302  0.0536  0.1093  0.1867
 7697TIP3    H144506   1.088   3.334   0.210 -1.1858  4.0341 -0.2670
 7697TIP3    H244507   1.125   3.387   0.347 -0.5611 -0.0415  1.2714
 7698TIP3   OH244508   6.484   5.135   2.960  0.8530  0.2358  0.3865
 7698TIP3    H144509   6.428   5.179   3.024 -0.2486 -0.6811  0.1072
 7698TIP3    H244510   6.525   5.064   3.009  0.3074 -0.2289  0.1924
 7699TIP3   OH244511   6.071   3.578   5.343  0.2785  0.1129  0.4006
 7699TIP3    H144512   6.093   3.532   5.423  0.0019  1.2104  1.1324
 7699TIP3    H244513   5.977   3.566   5.333 -0.3547  2.6881  2.1065
 7700TIP3   OH244514   4.028   3.574  15.621 -0.6727  0.4357  0.5515
 7700TIP3    H144515   4.099   3.638  15.617  0.3421 -0.6746  0.0922
 7700TIP3    H244516   3.993   3.572  15.532 -0.0167 -0.3801  0.3045
 7701TIP3   OH244517   1.469   0.786  16.016  0.1067  0.0031 -0.0054
 7701TIP3    H144518   1.461   0.695  15.989  0.3542 -0.6007  1.8442
 7701TIP3    H244519   1.513   0.783  16.101  2.4793  2.0175 -1.0164
 7702TIP3   OH244520   2.180   1.402   4.149  0.4499  0.5154 -0.2515
 7702TIP3    H144521   2.263   1.379   4.190  0.2326  1.9821  1.0799
 7702TIP3    H244522   2.119   1.413   4.222 -0.5961  0.7235 -1.1289
 7703TIP3   OH244523   1.504   4.926  14.668 -0.3085 -0.1683  0.2400
 7703TIP3    H144524   1.555   4.847  14.689 -1.7055 -1.1640  0.0205
 7703TIP3    H244525   1.445   4.937  14.742 -0.5154  0.3466  0.0005
 7704TIP3   OH244526   4.340   6.054  12.710 -0.2210  0.1093 -1.0193
 7704TIP3    H144527   4.408   6.116  12.733  0.5225 -0.7159 -0.9174
 7704TIP3    H244528   4.368   6.017  12.626 -0.6946 -0.0219 -1.1249
 7705TIP3   OH244529   0.207   4.410  13.832  0.1625  0.3831 -0.0093
 7705TIP3    H144530   0.257   4.367  13.902 -1.6179  1.6967  2.2417
 7705TIP3    H244531   0.116   4.400  13.860 -0.6400  0.7390 -2.3520
 7706TIP3   OH244532   1.640   6.260   3.095 -0.1136  0.3846  0.3080
 7706TIP3    H144533   1.701   6.286   3.164 -0.1404 -0.2648  0.5859
 7706TIP3    H244534   1.553   6.269   3.135 -0.0785 -3.6806  1.8038
 7707TIP3   OH244535   5.419   2.670  15.307 -0.0650  0.4951 -0.3423
 7707TIP3    H144536   5.442   2.608  15.376  0.8171  2.2544  0.9936
 7707TIP3    H244537   5.407   2.753  15.351  0.2300  1.6274 -2.2669
 7708TIP3   OH244538   0.183   6.099  10.234 -0.5556 -0.4863 -0.1391
 7708TIP3    H144539   0.235   6.136  10.162  1.8103  0.6440  1.9462
 7708TIP3    H244540   0.123   6.169  10.258  0.8362  0.4156  0.9156
 7709TIP3   OH244541   6.467   4.351  11.999 -0.3051  0.2190 -0.1845
 7709TIP3    H144542   6.490   4.319  12.087  1.0107 -0.2307 -0.6779
 7709TIP3    H244543   6.520   4.298  11.939 -1.6368  0.1041 -1.3072
 7710TIP3   OH244544   5.791   2.471   2.258  0.3082  0.4346  0.3488
 7710TIP3    H144545   5.703   2.493   2.288 -0.1187 -0.4903 -0.1846
 7710TIP3    H244546   5.806   2.381   2.289  0.4116 -0.0147 -0.9433
 7711TIP3   OH244547   1.611   1.400  12.252  0.0508  0.0352 -0.6212
 7711TIP3    H144548   1.574   1.437  12.172  0.5830 -0.0743 -0.9227
 7711TIP3    H244549   1.703   1.382  12.230  0.5481  1.1715  0.3959
 7712TIP3   OH244550   3.288   2.066   0.707  0.2625  0.3029  0.1460
 7712TIP3    H144551   3.302   2.086   0.799 -0.1795 -2.8740  1.0499
 7712TIP3    H244552   3.209   2.113   0.683 -0.2732  0.2768  1.7668
 7713TIP3   OH244553   1.287   1.727  14.168  0.0195 -0.9259  0.7401
 7713TIP3    H144554   1.285   1.640  14.209  0.5142 -1.6718 -0.7423
 7713TIP3    H244555   1.215   1.725  14.105 -0.6952  0.1833  1.4856
 7714TIP3   OH244556   2.427   0.812   3.931 -0.5670  0.1734  0.4248
 7714TIP3    H144557   2.385   0.832   3.847  0.0208  1.6208  0.4390
 7714TIP3    H244558   2.459   0.722   3.921 -0.5702  0.2895 -0.8803
 7715TIP3   OH244559   4.979   4.317   5.847 -0.3591 -0.6183  0.2329
 7715TIP3    H144560   4.916   4.245   5.836  0.9177 -1.8047  0.3995
 7715TIP3    H244561   5.018   4.301   5.933  0.5552 -0.2350 -0.1033
 7716TIP3   OH244562   6.267   5.036  13.965 -0.3481 -0.5165 -0.5512
 7716TIP3    H144563   6.324   5.010  14.037  0.1355 -2.2159 -1.4822
 7716TIP3    H244564   6.324   5.033  13.888 -1.1628 -0.0253 -1.1852
 7717TIP3   OH244565   2.618   5.085  15.285  0.2838  0.1874 -0.3882
 7717TIP3    H144566   2.684   5.016  15.284 -0.7438 -1.2142  3.8655
 7717TIP3    H244567   2.629   5.126  15.371 -2.1830  2.1970 -0.9232
 7718TIP3   OH244568   2.614   4.790   1.532  0.2546  0.0949  0.3285
 7718TIP3    H144569   2.698   4.744   1.539 -0.2009 -0.7331  0.5902
 7718TIP3    H244570   2.553   4.733   1.579 -0.9699 -0.6083 -2.0009
 7719TIP3   OH244571   5.869   4.795  16.509 -0.2035  0.3464 -0.5368
 7719TIP3    H144572   5.931   4.759  16.573 -0.3597  0.3099 -0.4071
 7719TIP3    H244573   5.786   4.750  16.527 -0.5328  1.1502 -0.0356
 7720TIP3   OH244574   1.260   4.278  11.786  0.3106 -0.2273  0.3816
 7720TIP3    H144575   1.192   4.345  11.772  0.1064 -0.4872  0.1250
 7720TIP3    H244576   1.340   4.318  11.751  0.1562 -0.1816  0.0789
 7721TIP3   OH244577   2.504   6.306   0.783 -0.0716  0.2210 -0.1252
 7721TIP3    H144578   2.550   6.331   0.863  1.2557 -2.0856 -0.0762
 7721TIP3    H244579   2.450   6.383   0.761  1.0295  1.6519  1.8476
 7722TIP3   OH244580   4.819   5.235  11.768  0.1949 -0.6705  0.0784
 7722TIP3    H144581   4.806   5.256  11.675  0.4469 -0.7741  0.0179
 7722TIP3    H244582   4.874   5.307  11.801 -0.8236 -0.0249  0.4282
 7723TIP3   OH244583   1.904   4.947  13.983 -0.5295 -0.2898  0.3714
 7723TIP3    H144584   1.905   4.882  14.053  0.4817 -0.0653  0.5777
 7723TIP3    H244585   1.855   4.905  13.912  0.2925 -1.3687  0.4175
 7724TIP3   OH244586   3.216   1.619   4.584 -0.1516  0.3066  0.5247
 7724TIP3    H144587   3.240   1.655   4.669  1.0408  0.0458  0.3089
 7724TIP3    H244588   3.128   1.583   4.597 -0.5943  1.5944  1.2373
 7725TIP3   OH244589   5.132   1.463  11.748 -0.1837  0.4355  0.0808
 7725TIP3    H144590   5.083   1.430  11.673  0.1513  2.5340 -1.1442
 7725TIP3    H244591   5.183   1.388  11.778 -1.0239 -0.7069 -1.1875
 7726TIP3   OH244592   3.820   6.790   2.295 -0.1281  0.1471 -0.1716
 7726TIP3    H144593   3.890   6.841   2.336  1.3575 -2.0339  0.2189
 7726TIP3    H244594   3.745   6.799   2.354  0.5972  0.5854  0.7076
 7727TIP3   OH244595   3.264   0.635  11.848  0.1632 -0.6353  0.1556
 7727TIP3    H144596   3.293   0.546  11.868 -2.8992 -1.8238 -0.0781
 7727TIP3    H244597   3.174   0.624  11.819  0.8993  2.0944 -3.9740
 7728TIP3   OH244598   0.194   5.427  14.837  0.1247 -0.8407 -0.1002
 7728TIP3    H144599   0.202   5.508  14.787 -0.9968 -0.8639 -0.3461
 7728TIP3    H244600   0.176   5.457  14.926 -0.9966 -0.8124 -0.3276
 7729TIP3   OH244601   1.632   5.219   4.558  0.4659 -0.6527 -0.4610
 7729TIP3    H144602   1.702   5.191   4.498  0.6392 -0.9034 -0.1473
 7729TIP3    H244603   1.669   5.204   4.646  0.9437  1.4470 -0.2491
 7730TIP3   OH244604   1.222   5.996  14.291 -0.3034  0.2271 -0.3873
 7730TIP3    H144605   1.183   5.965  14.209 -1.3181  1.6756 -0.4874
 7730TIP3    H244606   1.270   5.920  14.325  3.2042  0.5084 -4.0206
 7731TIP3   OH244607   1.720   0.206   1.705 -0.2266  0.3453 -0.1388
 7731TIP3    H144608   1.768   0.127   1.730 -1.0005  0.0763  0.5614
 7731TIP3    H244609   1.777   0.250   1.643  0.0267 -0.9893 -0.8981
 7732TIP3   OH244610   3.320   4.305  13.385  0.2190  0.3460 -0.8782
 7732TIP3    H144611   3.226   4.320  13.381  0.2681  1.8158  1.5080
 7732TIP3    H244612   3.355   4.381  13.431  2.2576 -1.2455  0.3943
 7733TIP3   OH244613   0.127   0.744   3.346  0.0451  0.0291  0.4418
 7733TIP3    H144614   0.196   0.790   3.394  0.2575 -0.2999  0.4538
 7733TIP3    H244615   0.073   0.704   3.414 -0.7845  1.1743  0.4708
 7734TIP3   OH244616   4.104   6.587  15.909  0.0998  0.7536 -0.0006
 7734TIP3    H144617   4.164   6.583  15.983  1.0066 -0.4721 -0.7840
 7734TIP3    H244618   4.108   6.501  15.869 -1.6344  0.8668 -0.5281
 7735TIP3   OH244619   1.549   4.052  15.250 -0.0931 -0.0935  0.7989
 7735TIP3    H144620   1.500   4.022  15.326 -1.2055 -0.6094 -0.0846
 7735TIP3    H244621   1.517   3.997  15.178  2.4367 -1.1290  0.3154
 7736TIP3   OH244622   6.253   6.312  14.424  0.2193  0.1344  0.2568
 7736TIP3    H144623   6.262   6.407  14.422 -2.1833  0.4270  0.0812
 7736TIP3    H244624   6.245   6.291  14.517  0.7532  0.0826  0.2950
 7737TIP3   OH244625   1.678   3.907  13.451 -0.2278  0.0689  0.3144
 7737TIP3    H144626   1.625   3.943  13.523 -0.0037  1.6903 -0.2829
 7737TIP3    H244627   1.613   3.883  13.384 -0.3892 -0.7818  0.7663
 7738TIP3   OH244628   4.550   0.186   2.234 -0.3071 -0.3619  0.0141
 7738TIP3    H144629   4.553   0.130   2.311  0.1133 -1.0969 -0.5246
 7738TIP3    H244630   4.626   0.160   2.182 -0.1025  0.7079 -0.2534
 7739TIP3   OH244631   1.561   3.234   5.302 -0.8855  0.5347  0.2104
 7739TIP3    H144632   1.502   3.228   5.377 -1.9698 -0.6928 -0.7029
 7739TIP3    H244633   1.624   3.163   5.317 -1.3658  0.0036 -0.2408
 7740TIP3   OH244634   1.091   5.185  13.901 -0.0862 -0.0852 -0.2246
 7740TIP3    H144635   1.127   5.238  13.972 -0.0451 -1.6826  0.9874
 7740TIP3    H244636   1.168   5.153  13.854 -0.1183  1.7649 -1.6804
 7741TIP3   OH244637   3.334   2.129   4.266 -0.0131  0.2987 -0.3031
 7741TIP3    H144638   3.375   2.214   4.254  0.4211 -0.0279 -1.2434
 7741TIP3    H244639   3.247   2.138   4.226 -0.8840  0.9714  1.6324
 7742TIP3   OH244640   1.216   1.224   1.157  0.4520  0.6684  0.3587
 7742TIP3    H144641   1.203   1.318   1.150  0.5935  0.6309 -0.4842
 7742TIP3    H244642   1.280   1.203   1.089 -0.8162 -0.2829 -0.5978
 7743TIP3   OH244643   1.232   1.600   6.283 -0.2739 -0.5991  0.2263
 7743TIP3    H144644   1.245   1.572   6.373  1.1385  2.9121  1.2850
 7743TIP3    H244645   1.138   1.620   6.278 -0.3378 -0.6897  0.9682
 7744TIP3   OH244646   1.437   1.393   2.428  0.4861 -0.0237 -0.4166
 7744TIP3    H144647   1.405   1.306   2.407 -1.3972  0.7830 -1.1361
 7744TIP3    H244648   1.531   1.388   2.414  0.4732 -2.0206 -0.0736
 7745TIP3   OH244649   4.671   0.635   5.686 -0.9308 -0.4475  0.1748
 7745TIP3    H144650   4.593   0.586   5.710 -0.9267 -0.1853  0.7488
 7745TIP3    H244651   4.648   0.726   5.704 -1.0064 -0.2051 -1.0563
 7746TIP3   OH244652   4.671   5.059  11.288 -0.2766 -0.4809 -0.3667
 7746TIP3    H144653   4.756   5.014  11.283  1.1002  1.7500  1.1987
 7746TIP3    H244654   4.629   5.022  11.365  0.2284 -0.1393  0.0833
 7747TIP3   OH244655   5.317   1.139  13.046  0.1189 -0.5561  0.0609
 7747TIP3    H144656   5.407   1.169  13.060 -0.3355  0.3324  1.1768
 7747TIP3    H244657   5.273   1.152  13.130 -1.1165 -0.7687 -0.5246
 7748TIP3   OH244658   4.348   3.273   1.387  0.2330  0.2450 -0.1169
 7748TIP3    H144659   4.345   3.348   1.447 -0.2053 -0.6760  1.0335
 7748TIP3    H244660   4.438   3.243   1.391  0.3715  0.5978 -0.4608
 7749TIP3   OH244661   1.727   1.483   5.518  0.5510 -0.0843 -0.0931
 7749TIP3    H144662   1.654   1.427   5.491 -2.5598  3.7681 -0.5679
 7749TIP3    H244663   1.768   1.511   5.436  1.2168 -0.5418  0.0732
 7750TIP3   OH244664   3.649   2.196   0.309  0.4291 -0.0653  0.0948
 7750TIP3    H144665   3.641   2.256   0.383  1.5882  2.4064 -1.6562
 7750TIP3    H244666   3.743   2.189   0.293  0.2159 -0.8619 -0.9355
 7751TIP3   OH244667   0.852   5.952   1.298 -0.1147 -0.6702 -0.2535
 7751TIP3    H144668   0.939   5.991   1.307  0.7981 -2.2772 -1.4873
 7751TIP3    H244669   0.793   6.027   1.287  1.2271  0.4237 -0.2759
 7752TIP3   OH244670   4.355   4.121  12.015 -0.1665 -0.0038 -0.0929
 7752TIP3    H144671   4.383   4.093  11.927 -0.7398 -0.5800 -0.1059
 7752TIP3    H244672   4.315   4.042  12.053 -0.3291  0.3648  0.5147
 7753TIP3   OH244673   0.072   0.176  15.828 -0.2193 -0.3705 -0.4758
 7753TIP3    H144674   0.113   0.109  15.773  1.2633  0.2599 -0.1764
 7753TIP3    H244675   0.076   0.140  15.917  0.2708 -0.0332 -0.3601
 7754TIP3   OH244676   6.098   6.576   4.415  0.0353 -0.3434 -0.0190
 7754TIP3    H144677   6.130   6.588   4.504 -1.1068 -0.5708  0.4347
 7754TIP3    H244678   6.134   6.492   4.387  0.4595 -0.2336  0.1851
 7755TIP3   OH244679   0.410   2.448  15.468  0.6752 -0.6356  0.2797
 7755TIP3    H144680   0.409   2.391  15.545 -1.0903 -1.0671 -0.0198
 7755TIP3    H244681   0.322   2.442  15.433  0.9025  1.0831 -0.6732
 7756TIP3   OH244682   6.086   2.224   1.685 -0.1048  0.6723  0.1932
 7756TIP3    H144683   6.172   2.266   1.687 -0.8525  2.3395  3.4212
 7756TIP3    H244684   6.105   2.132   1.666  2.2317  1.2429 -0.5674
 7757TIP3   OH244685   5.843   3.506  14.860 -0.1290  0.8371 -0.2681
 7757TIP3    H144686   5.877   3.593  14.836 -0.7156  1.0657 -0.2979
 7757TIP3    H244687   5.835   3.509  14.955  1.0630  0.3537 -0.1371
 7758TIP3   OH244688   6.254   1.862   2.077  0.2938  0.1516 -0.1995
 7758TIP3    H144689   6.264   1.825   2.165 -0.8629  2.1155  0.8440
 7758TIP3    H244690   6.342   1.863   2.041  0.9361  0.1082  1.3114
 7759TIP3   OH244691   5.622   0.826   4.380 -0.1417  0.7795  0.0219
 7759TIP3    H144692   5.637   0.818   4.286  4.2006  0.7255  0.5430
 7759TIP3    H244693   5.608   0.919   4.395 -0.9567  0.7755 -0.6219
 7760TIP3   OH244694   4.084   2.807   1.050  0.1114 -0.4342  0.8097
 7760TIP3    H144695   4.068   2.866   1.123  1.2723 -0.2559  0.9384
 7760TIP3    H244696   4.153   2.849   1.000 -0.8729 -0.4084 -0.5788
 7761TIP3   OH244697   4.419   6.210  11.637  0.2453  0.0005 -0.5837
 7761TIP3    H144698   4.449   6.198  11.547 -1.5259 -1.1764 -1.0855
 7761TIP3    H244699   4.346   6.271  11.630 -0.2682 -0.5307 -0.0347
 7762TIP3   OH244700   4.817   2.123  14.498  0.2213  0.1857  0.1493
 7762TIP3    H144701   4.874   2.129  14.421  1.6282  0.1345  1.1581
 7762TIP3    H244702   4.871   2.153  14.571 -0.9580 -0.1435  1.1925
 7763TIP3   OH244703   3.304   3.569   2.888 -0.3105 -0.7910 -0.1817
 7763TIP3    H144704   3.290   3.476   2.872 -1.0022 -0.7396  0.0828
 7763TIP3    H244705   3.304   3.609   2.801  1.0234 -1.1562 -0.3767
 7764TIP3   OH244706   6.254   4.489  16.613  0.4980 -0.0372 -0.4569
 7764TIP3    H144707   6.318   4.427  16.648 -0.1112 -0.3143  0.2000
 7764TIP3    H244708   6.306   4.555  16.569  1.1205 -1.8336 -2.5903
 7765TIP3   OH244709   2.379   2.838   1.053  0.2944 -0.1239  0.3413
 7765TIP3    H144710   2.453   2.891   1.082  1.2847 -0.6475 -1.1842
 7765TIP3    H244711   2.303   2.895   1.068  1.0157  0.5887  1.4996
 7766TIP3   OH244712   0.975   5.811  14.827 -0.1799 -0.0709 -0.0072
 7766TIP3    H144713   0.902   5.872  14.811 -0.0831 -0.1904 -0.9600
 7766TIP3    H244714   1.004   5.831  14.916 -0.8570  0.5310  0.0884
 7767TIP3   OH244715   3.386   2.364   2.071  0.9086 -0.3296  0.6023
 7767TIP3    H144716   3.432   2.445   2.093  1.5432 -0.7472  0.8527
 7767TIP3    H244717   3.324   2.389   2.002 -1.0850  1.0390  2.7159
 7768TIP3   OH244718   6.361   5.073  10.823 -0.4853  0.0130  0.2731
 7768TIP3    H144719   6.413   5.069  10.743  1.4381 -1.1567  1.4841
 7768TIP3    H244720   6.362   4.983  10.856 -2.3712  0.2043  0.9350
 7769TIP3   OH244721   0.283   5.357  13.021 -0.1081 -0.2093 -0.0357
 7769TIP3    H144722   0.282   5.450  13.046  0.8167  0.3750 -2.0100
 7769TIP3    H244723   0.190   5.333  13.019 -0.3422  0.5175  0.9604
 7770TIP3   OH244724   3.090   3.590  11.497 -0.0941  0.0739  0.1335
 7770TIP3    H144725   2.999   3.605  11.523 -0.4460 -0.8189 -0.5490
 7770TIP3    H244726   3.088   3.512  11.443  1.2618 -0.6995  1.1210
 7771TIP3   OH244727   1.442   1.638   1.162  0.2178  0.2740  1.0652
 7771TIP3    H144728   1.380   1.622   1.091 -0.7546  0.4523  1.8617
 7771TIP3    H244729   1.528   1.635   1.119 -0.2009 -1.7277  0.2395
 7772TIP3   OH244730   6.687   5.854  15.190 -0.2956  0.4464 -0.2281
 7772TIP3    H144731   6.592   5.854  15.201 -0.1947  2.0237  1.0433
 7772TIP3    H244732   6.705   5.923  15.127  0.0558  0.7631  0.2103
 7773TIP3   OH244733   0.742   3.072   3.784 -0.0094 -0.1746  0.6794
 7773TIP3    H144734   0.739   3.161   3.750 -0.2369  0.0989  1.3975
 7773TIP3    H244735   0.738   3.082   3.879  0.2581 -0.9366  0.7816
 7774TIP3   OH244736   2.963   5.670  16.762 -0.7308 -0.1078  0.0022
 7774TIP3    H144737   3.050   5.629  16.762 -0.5084  0.3324 -0.9278
 7774TIP3    H244738   2.902   5.597  16.768 -0.3109 -0.4945 -0.3160
 7775TIP3   OH244739   1.014   2.950  11.900 -0.5240 -0.2388 -0.4556
 7775TIP3    H144740   1.067   2.936  11.822  0.0582 -0.2570 -0.0593
 7775TIP3    H244741   0.964   2.868  11.910  0.0270 -0.5667 -0.3340
 7776TIP3   OH244742   0.747   2.551   0.601 -0.5218  0.1312 -0.2032
 7776TIP3    H144743   0.693   2.476   0.625  0.6061 -0.9872 -1.0519
 7776TIP3    H244744   0.699   2.594   0.531 -0.5842 -0.5365 -0.5771
 7777TIP3   OH244745   5.468   4.394   2.247  0.1158 -0.4831 -0.0455
 7777TIP3    H144746   5.559   4.377   2.224  0.1661 -1.3254  0.7369
 7777TIP3    H244747   5.471   4.424   2.338 -0.5002 -2.0135  0.5115
 7778TIP3   OH244748   4.646   1.912   5.006  0.1272 -0.4145 -0.0363
 7778TIP3    H144749   4.685   1.914   5.094  1.3383 -0.5300 -0.5436
 7778TIP3    H244750   4.592   1.990   5.002  0.0031 -0.4445  0.8402
 7779TIP3   OH244751   0.466   1.556   5.041 -0.2459 -0.1033  0.5959
 7779TIP3    H144752   0.490   1.487   5.103 -0.9427 -0.8603  0.0583
 7779TIP3    H244753   0.382   1.590   5.073 -0.9431 -0.9577 -0.2668
 7780TIP3   OH244754   3.835   3.440   4.231  0.7348  0.2919 -0.4524
 7780TIP3    H144755   3.826   3.463   4.138  1.6107 -0.1593 -0.6618
 7780TIP3    H244756   3.838   3.344   4.231 -0.8441  0.2032  0.2079
 7781TIP3   OH244757   2.889   6.198  14.079 -0.1783  0.5337  0.8036
 7781TIP3    H144758   2.943   6.219  14.155 -1.4029 -0.9249  2.1548
 7781TIP3    H244759   2.814   6.151  14.116 -1.5955  1.1338 -1.1509
 7782TIP3   OH244760   4.336   1.812   5.639 -0.6070  0.1827  0.0171
 7782TIP3    H144761   4.399   1.885   5.636  1.9465 -1.7361  2.1858
 7782TIP3    H244762   4.331   1.788   5.731 -3.0808 -1.0576 -0.3514
 7783TIP3   OH244763   6.384   6.295  15.164  0.8512  0.1278 -0.2143
 7783TIP3    H144764   6.465   6.287  15.113  0.2973  0.7989 -1.2184
 7783TIP3    H244765   6.412   6.281  15.255  1.8400 -1.1702 -0.6909
 7784TIP3   OH244766   6.444   5.738   2.947  0.2665  0.3535 -0.0615
 7784TIP3    H144767   6.362   5.751   2.900  0.4589  1.0697 -0.2158
 7784TIP3    H244768   6.472   5.649   2.923  0.6172  0.8671 -1.7147
 7785TIP3   OH244769   4.067   5.867  12.351  0.1382 -0.4753 -0.1764
 7785TIP3    H144770   4.004   5.808  12.391  1.5797 -1.1239  1.2655
 7785TIP3    H244771   4.062   5.947  12.403 -1.2577  0.4534 -1.6478
 7786TIP3   OH244772   4.268   0.109  16.675  1.2673  0.2929 -0.3294
 7786TIP3    H144773   4.263   0.021  16.712  0.7221  0.1263 -0.7801
 7786TIP3    H244774   4.208   0.161  16.728 -2.0850 -0.6531 -2.8466
 7787TIP3   OH244775   3.682   4.892  12.100 -0.0069  0.3733  0.1884
 7787TIP3    H144776   3.740   4.853  12.165  0.3736  0.1620 -0.2661
 7787TIP3    H244777   3.726   4.972  12.072  0.0500  0.2291 -0.1368
 7788TIP3   OH244778   6.302   2.915   0.693 -0.1725 -0.2237 -0.7018
 7788TIP3    H144779   6.369   2.932   0.626 -0.2341  0.0523 -0.6929
 7788TIP3    H244780   6.337   2.840   0.742  0.2311  0.0518 -0.5605
 7789TIP3   OH244781   4.388   6.520   3.119 -0.4295 -0.3360  0.3726
 7789TIP3    H144782   4.348   6.453   3.063 -0.5273  0.8553 -1.0369
 7789TIP3    H244783   4.482   6.510   3.106 -0.4082 -0.6334  0.7150
 7790TIP3   OH244784   0.882   2.145   0.974  0.0600  0.2755 -0.4020
 7790TIP3    H144785   0.918   2.232   0.988 -0.0764  0.1162  1.0503
 7790TIP3    H244786   0.788   2.155   0.983  0.0284  0.0152 -0.4211
 7791TIP3   OH244787   4.664   1.279  14.206 -0.2863  0.7282 -0.0834
 7791TIP3    H144788   4.661   1.273  14.302 -0.7841  1.3923 -0.0579
 7791TIP3    H244789   4.614   1.203  14.176  2.1384 -1.0887  0.1330
 7792TIP3   OH244790   2.627   5.235   3.617  0.2874  0.1404 -0.7242
 7792TIP3    H144791   2.664   5.266   3.534  0.0998 -1.0647 -1.2869
 7792TIP3    H244792   2.637   5.140   3.613 -0.1092  0.0350  0.4576
 7793TIP3   OH244793   0.031   1.798  16.348  0.6612 -0.1460  0.6300
 7793TIP3    H144794   0.028   1.762  16.437 -0.3451  0.3092  0.7934
 7793TIP3    H244795  -0.047   1.762  16.305  1.9798 -1.6687 -0.6023
 7794TIP3   OH244796   6.065   5.177  14.110  0.2592  0.2744  0.4243
 7794TIP3    H144797   6.134   5.157  14.047  1.0812  0.6930  1.1735
 7794TIP3    H244798   6.005   5.234  14.063  0.2345 -0.3651 -0.3424
 7795TIP3   OH244799   1.859   6.247  17.060  0.1527 -0.1223  0.2590
 7795TIP3    H144800   1.940   6.257  17.011 -0.0780 -0.3344 -0.1724
 7795TIP3    H244801   1.797   6.306  17.016  0.2353  0.4967  0.9609
 7796TIP3   OH244802   3.856   2.064   6.158 -0.3609  0.0315  0.0599
 7796TIP3    H144803   3.900   1.992   6.203 -1.2131  0.0054  0.8916
 7796TIP3    H244804   3.923   2.132   6.150 -0.2113  0.1094  1.5645
 7797TIP3   OH244805   5.059   5.975  14.713  0.2023 -0.0311 -0.2412
 7797TIP3    H144806   5.095   5.887  14.710  1.7032  0.4671  1.4991
 7797TIP3    H244807   5.003   5.976  14.791 -1.5538 -0.0112 -1.4299
 7798TIP3   OH244808   6.041   6.007  12.714 -0.2786 -0.6012  0.4981
 7798TIP3    H144809   6.081   6.053  12.640  1.2957 -0.8580  1.1466
 7798TIP3    H244810   6.024   5.919  12.681  1.3264 -1.0147  0.6932
 7799TIP3   OH244811   4.170   3.897  13.628  0.1367  0.4916 -0.0116
 7799TIP3    H144812   4.209   3.984  13.638 -0.6905  0.7458  1.1850
 7799TIP3    H244813   4.140   3.895  13.537  2.5517  0.4167 -0.8644
 7800TIP3   OH244814   3.063   2.177   3.148  0.3879 -0.1490 -0.1550
 7800TIP3    H144815   3.053   2.203   3.056 -1.4911  1.8430  0.5232
 7800TIP3    H244816   3.017   2.245   3.197  3.0177 -0.0511  2.4383
 7801TIP3   OH244817   6.076   1.423  11.458  0.0637 -0.4218  0.0657
 7801TIP3    H144818   6.161   1.410  11.416  0.4645  3.1834 -0.5318
 7801TIP3    H244819   6.094   1.419  11.552  1.2765  1.7254 -0.0189
 7802TIP3   OH244820   6.303   0.857  11.615  0.3022 -0.4378  0.1535
 7802TIP3    H144821   6.255   0.930  11.655  1.4774  0.6397 -0.3521
 7802TIP3    H244822   6.283   0.782  11.671 -1.1963  0.1806  0.5024
 7803TIP3   OH244823   3.850   4.764  12.274 -0.1580  0.2034 -0.1577
 7803TIP3    H144824   3.939   4.789  12.297 -0.7524  1.5385  0.8102
 7803TIP3    H244825   3.825   4.700  12.341  0.9135 -2.2197 -1.9058
 7804TIP3   OH244826   0.669   6.024  16.326  0.4721 -0.0529 -0.1888
 7804TIP3    H144827   0.663   6.090  16.395  0.6263  1.9688 -2.0377
 7804TIP3    H244828   0.751   6.043  16.281 -0.0554 -0.7689 -1.5014
 7805TIP3   OH244829   0.142   3.468  13.554  0.0968 -0.0845 -0.3418
 7805TIP3    H144830   0.055   3.429  13.563  0.1698 -0.4584 -1.1239
 7805TIP3    H244831   0.125   3.562  13.543 -0.0628  0.1971  1.8674
 7806TIP3   OH244832   4.051   6.199  14.395  0.3708  0.1941 -0.1897
 7806TIP3    H144833   4.039   6.288  14.363 -0.5220  0.0845 -0.1718
 7806TIP3    H244834   4.038   6.205  14.489  1.4540  0.2364 -0.0256
 7807TIP3   OH244835   4.396   6.692  14.109 -0.7174 -0.2175 -0.5356
 7807TIP3    H144836   4.351   6.703  14.194  0.6566 -1.7113  0.4403
 7807TIP3    H244837   4.385   6.599  14.089  0.8729 -0.3448 -0.8836
 7808TIP3   OH244838   5.084   3.278   3.803  0.2448 -0.4676  0.4192
 7808TIP3    H144839   5.040   3.194   3.817 -0.9302  0.1600  0.5801
 7808TIP3    H244840   5.060   3.330   3.879  1.1291 -0.0434  0.4130
 7809TIP3   OH244841   4.785   2.127  11.728 -0.2168  0.2728 -0.0025
 7809TIP3    H144842   4.790   2.179  11.808  2.0802  0.1322 -0.0046
 7809TIP3    H244843   4.848   2.168  11.668 -2.1637  0.6361 -1.9441
 7810TIP3   OH244844   4.091   3.915   0.768  0.5986 -0.4148 -0.1040
 7810TIP3    H144845   4.100   4.001   0.809 -0.1841 -0.2238 -0.3267
 7810TIP3    H244846   4.175   3.900   0.725  0.5670  0.4459 -0.4750
 7811TIP3   OH244847   3.923   2.344  13.008  0.5389 -0.2207 -0.2813
 7811TIP3    H144848   4.005   2.320  13.051 -0.4958 -1.0902  1.2956
 7811TIP3    H244849   3.947   2.414  12.947  2.5146 -0.7788 -0.1955
 7812TIP3   OH244850   3.236   4.143  11.749  0.5121 -0.3028 -0.2923
 7812TIP3    H144851   3.151   4.105  11.769 -0.0318  0.9098 -0.2206
 7812TIP3    H244852   3.216   4.233  11.722  1.9078  0.6152  1.5463
 7813TIP3   OH244853   3.799   5.602   6.168  0.1476 -0.9064 -0.2883
 7813TIP3    H144854   3.726   5.658   6.195 -0.4322 -1.7122 -0.1560
 7813TIP3    H244855   3.871   5.627   6.226 -0.1336 -0.3798 -0.1584
 7814TIP3   OH244856   0.869   1.259   3.239  0.1635  0.3117  0.0251
 7814TIP3    H144857   0.902   1.174   3.266  1.4105  1.1477  1.2318
 7814TIP3    H244858   0.946   1.305   3.206 -0.5708  0.8528 -1.0067
 7815TIP3   OH244859   4.553   2.868  10.840  0.0471  0.0247  0.5676
 7815TIP3    H144860   4.556   2.857  10.745 -0.1658  1.0715  0.4248
 7815TIP3    H244861   4.466   2.840  10.865  0.2580 -0.6849  0.5163
 7816TIP3   OH244862   4.892   4.055  14.636 -0.5465 -0.1903  0.2536
 7816TIP3    H144863   4.891   4.090  14.547  0.3453 -1.6130 -0.3499
 7816TIP3    H244864   4.948   3.978  14.631 -1.7243 -1.1981  1.7280
 7817TIP3   OH244865   4.447   4.519  10.783  0.4205  0.2360  1.0103
 7817TIP3    H144866   4.409   4.603  10.808  1.0038  1.1502 -0.9703
 7817TIP3    H244867   4.538   4.539  10.761  1.2098 -1.3326  2.5890
 7818TIP3   OH244868   4.933   2.158  16.949 -0.4075 -0.8392  0.0542
 7818TIP3    H144869   5.012   2.191  16.906  0.2407 -1.2437  0.8915
 7818TIP3    H244870   4.861   2.185  16.892  0.2839  0.0745 -0.4141
 7819TIP3   OH244871   0.191   2.407   3.824  0.0524  0.3031 -0.0873
 7819TIP3    H144872   0.285   2.389   3.819  0.8112  2.9010  2.0967
 7819TIP3    H244873   0.159   2.348   3.891  0.8333  1.4029  1.3186
 7820TIP3   OH244874   2.301   2.851   2.923 -0.2080  0.1285 -0.0326
 7820TIP3    H144875   2.230   2.870   2.862  0.3221  2.1950 -0.0665
 7820TIP3    H244876   2.305   2.927   2.980  1.3638 -0.3712  0.5779
 7821TIP3   OH244877   4.442   3.084  14.425  0.7844  0.7182 -0.1569
 7821TIP3    H144878   4.491   3.017  14.472  1.0460  1.5544  0.7876
 7821TIP3    H244879   4.493   3.164  14.436  0.0201  1.2695 -0.5025
 7822TIP3   OH244880   4.809   5.087  12.756 -0.4798 -0.3218  0.7156
 7822TIP3    H144881   4.896   5.111  12.725 -0.5358  0.2724  1.0078
 7822TIP3    H244882   4.750   5.109  12.684 -0.4537 -0.1865  0.7356
 7823TIP3   OH244883   5.770   6.518  14.587  0.7402 -0.7772 -0.1323
 7823TIP3    H144884   5.756   6.425  14.600 -0.4710 -0.4993  0.7234
 7823TIP3    H244885   5.829   6.524  14.511  0.0198 -2.1912 -0.8218
 7824TIP3   OH244886   5.055   0.707  13.913  0.1199  0.5168  0.7216
 7824TIP3    H144887   5.093   0.688  13.827  0.6730  2.5291  0.4610
 7824TIP3    H244888   4.972   0.659  13.915  0.7975 -0.7526 -0.3148
 7825TIP3   OH244889   3.445   3.312  14.972 -0.2333 -0.3278  0.0306
 7825TIP3    H144890   3.405   3.229  14.946 -1.5853  0.5843 -0.9298
 7825TIP3    H244891   3.381   3.351  15.033  1.4331 -0.9806  2.3361
 7826TIP3   OH244892   0.588   1.713   2.442  0.3127  0.2551 -0.4531
 7826TIP3    H144893   0.583   1.734   2.535 -0.8352  0.1603 -0.4788
 7826TIP3    H244894   0.623   1.624   2.439 -0.1997  0.0362 -0.0794
 7827TIP3   OH244895   5.098   6.185   3.831 -0.4302 -0.4931  0.3056
 7827TIP3    H144896   5.030   6.163   3.767 -0.3055 -2.0459  0.6747
 7827TIP3    H244897   5.178   6.191   3.779 -0.2955 -1.9372  0.3297
 7828TIP3   OH244898   4.110   5.540  15.307 -0.2983  0.1764 -0.0429
 7828TIP3    H144899   4.015   5.533  15.303 -0.3132  0.6740 -2.6361
 7828TIP3    H244900   4.127   5.600  15.380 -1.7652 -1.8142  2.0760
 7829TIP3   OH244901   4.843   5.262  15.096 -0.1188  0.1779  0.0331
 7829TIP3    H144902   4.793   5.258  15.015 -0.1352  1.1958 -0.0170
 7829TIP3    H244903   4.851   5.355  15.116 -1.5161 -0.0550  2.0589
 7830TIP3   OH244904   1.175   0.222   2.158 -0.1223  0.3150  0.7068
 7830TIP3    H144905   1.212   0.186   2.077 -0.7703 -1.3449  1.1099
 7830TIP3    H244906   1.132   0.147   2.200 -1.6319  1.6087  1.5512
 7831TIP3   OH244907   0.021   2.904  14.716  0.4876  0.2621  0.6169
 7831TIP3    H144908  -0.065   2.934  14.744  0.6558  1.2975  0.0650
 7831TIP3    H244909   0.072   2.899  14.798  0.8166  2.7512  0.6363
 7832TIP3   OH244910   0.744   2.862  16.246  0.4699 -0.5842 -0.0017
 7832TIP3    H144911   0.811   2.886  16.182 -0.6164 -1.5698 -1.5579
 7832TIP3    H244912   0.701   2.945  16.267  1.5683 -0.0752  0.3503
 7833TIP3   OH244913   6.020   1.842   1.464  0.5574  0.0776 -0.4856
 7833TIP3    H144914   5.943   1.896   1.443  0.5862 -0.4455 -2.0822
 7833TIP3    H244915   5.991   1.786   1.536  0.5574  2.2403  1.2895
 7834TIP3   OH244916   2.572   4.971  13.109  0.0346 -0.0701  0.5108
 7834TIP3    H144917   2.653   4.948  13.153  0.3014  1.1249  0.6841
 7834TIP3    H244918   2.534   5.040  13.163  0.3733  1.4284 -1.0789
 7835TIP3   OH244919   0.648   5.381   3.549  0.4252  0.0396 -0.5008
 7835TIP3    H144920   0.629   5.390   3.642  2.1365  2.7618 -0.2897
 7835TIP3    H244921   0.574   5.423   3.505 -1.5743 -3.3183 -0.6072
 7836TIP3   OH244922   0.224   0.861   2.261  0.3970 -0.1668  0.7938
 7836TIP3    H144923   0.311   0.876   2.224 -0.0047  1.4249  0.4095
 7836TIP3    H244924   0.186   0.791   2.208  0.8727  0.1741 -0.0028
 7837TIP3   OH244925   2.137   3.145  13.933  0.0816  0.3451  0.3281
 7837TIP3    H144926   2.053   3.109  13.903 -1.5296  2.4014  2.0143
 7837TIP3    H244927   2.143   3.229  13.889  1.9744 -0.3130 -0.7681
 7838TIP3   OH244928   2.175   1.146  15.394 -0.3972 -0.3061  0.0412
 7838TIP3    H144929   2.201   1.059  15.423 -2.5954 -0.6106  1.3124
 7838TIP3    H244930   2.254   1.199  15.402  1.3846 -2.4081 -2.0486
 7839TIP3   OH244931   3.684   0.104   1.880  0.1899 -0.4441  0.6328
 7839TIP3    H144932   3.757   0.043   1.888 -1.2651 -2.3378  0.2308
 7839TIP3    H244933   3.655   0.095   1.789 -0.9991 -0.3073  0.9788
 7840TIP3   OH244934   5.042   6.682  16.073 -0.2600 -0.6201 -0.1040
 7840TIP3    H144935   4.997   6.707  15.992 -1.8996 -1.4841  0.4776
 7840TIP3    H244936   5.120   6.736  16.076 -0.9511  0.5110 -1.5087
 7841TIP3   OH244937   5.122   3.796   3.105 -0.2717 -0.0385  0.3395
 7841TIP3    H144938   5.122   3.892   3.109 -0.3618  0.0254 -0.7809
 7841TIP3    H244939   5.045   3.774   3.052 -1.3381 -0.8416  2.1306
 7842TIP3   OH244940   2.713   6.707   1.191  0.3698  0.3604 -0.8421
 7842TIP3    H144941   2.774   6.751   1.251  0.8374  0.2696 -1.2366
 7842TIP3    H244942   2.634   6.694   1.242  1.1314 -0.7194  0.1150
 7843TIP3   OH244943   2.418   1.024  16.786 -0.2156 -0.1996 -0.2828
 7843TIP3    H144944   2.411   1.082  16.709  0.9707  0.3603 -0.0030
 7843TIP3    H244945   2.374   1.072  16.856 -1.2181 -0.6687 -0.5788
 7844TIP3   OH244946   4.830   0.866   2.372  0.1226  0.3212 -0.1437
 7844TIP3    H144947   4.908   0.815   2.350  1.8838  1.7139  2.3388
 7844TIP3    H244948   4.793   0.892   2.288  2.1924 -0.6035 -1.4066
 7845TIP3   OH244949   0.486   5.307   2.206 -0.2344 -0.0707 -0.5071
 7845TIP3    H144950   0.478   5.375   2.139 -1.8548  0.2200 -0.0674
 7845TIP3    H244951   0.416   5.326   2.269 -1.1361 -2.4599 -0.6678
 7846TIP3   OH244952   5.642   4.209  13.284  0.4416 -0.2006  0.4395
 7846TIP3    H144953   5.702   4.261  13.230  1.1483 -1.1684  0.2424
 7846TIP3    H244954   5.570   4.186  13.225  1.3680 -1.5226 -0.2261
 7847TIP3   OH244955   1.870   0.587   2.307 -0.1915  0.2571 -0.2001
 7847TIP3    H144956   1.937   0.518   2.314  1.4176  1.8653  1.0889
 7847TIP3    H244957   1.796   0.552   2.355  0.1552 -1.0564 -0.5721
 7848TIP3   OH244958   5.913   1.194   1.216  0.8657  0.0142 -0.4870
 7848TIP3    H144959   5.951   1.282   1.211  1.4561 -0.2457 -0.7407
 7848TIP3    H244960   5.917   1.161   1.126  0.2816 -0.1250 -0.4641
 7849TIP3   OH244961   6.178   0.125  16.297  0.3428 -0.3073  0.1701
 7849TIP3    H144962   6.102   0.099  16.349  1.2261 -0.6652  1.3265
 7849TIP3    H244963   6.151   0.205  16.253 -0.4524 -0.0256  1.1364
 7850TIP3   OH244964   0.561   0.106   5.931 -0.1105  0.2016  0.7122
 7850TIP3    H144965   0.611   0.026   5.949  0.5553  0.2938 -0.6268
 7850TIP3    H244966   0.622   0.163   5.886 -1.4940  0.1517 -1.3780
 7851TIP3   OH244967   4.794   2.896   1.045  0.2405 -0.1794  0.8578
 7851TIP3    H144968   4.748   2.941   0.974 -0.9874 -1.7581  0.5797
 7851TIP3    H244969   4.879   2.939   1.050 -0.4288  1.3554 -0.1463
 7852TIP3   OH244970   4.792   3.412   0.442  0.0429 -0.1742  0.1508
 7852TIP3    H144971   4.720   3.475   0.445  1.0737  1.0407  0.1224
 7852TIP3    H244972   4.848   3.436   0.516  0.4330 -1.0965  0.1625
 7853TIP3   OH244973   1.574   1.692  14.699 -0.3488 -0.3064 -0.1598
 7853TIP3    H144974   1.499   1.681  14.641 -1.2538  0.3052  0.8417
 7853TIP3    H244975   1.645   1.721  14.642 -0.9754 -0.5405 -1.0741
 7854TIP3   OH244976   5.291   0.264  12.749  0.0058 -0.6372 -0.3865
 7854TIP3    H144977   5.285   0.172  12.724 -2.7714 -0.9765  1.1540
 7854TIP3    H244978   5.358   0.266  12.817  1.0644 -1.2504 -1.3831
 7855TIP3   OH244979   6.657   1.111  11.732 -0.3347 -0.4225  0.1899
 7855TIP3    H144980   6.687   1.164  11.658  0.8543 -0.4977  0.5909
 7855TIP3    H244981   6.674   1.021  11.705 -0.0571 -0.4590  0.4775
 7856TIP3   OH244982   1.200   4.888  12.154  0.1076  0.2938  0.5088
 7856TIP3    H144983   1.195   4.822  12.085  1.8958 -0.4303  1.0297
 7856TIP3    H244984   1.169   4.969  12.112  0.4149 -0.2985 -0.9158
 7857TIP3   OH244985   0.246   4.411  15.544  0.3148  0.0785 -0.4942
 7857TIP3    H144986   0.308   4.442  15.609  0.6981 -1.2292 -0.2030
 7857TIP3    H244987   0.254   4.473  15.471 -0.7670  2.0986  1.0055
 7858TIP3   OH244988   0.856   1.577  15.054  0.4116  0.2332 -0.0625
 7858TIP3    H144989   0.774   1.599  15.010 -1.1294 -3.5946  0.5074
 7858TIP3    H244990   0.907   1.529  14.988 -0.5703 -2.7659  1.1965
 7859TIP3   OH244991   3.860   0.400  16.034 -0.1927  0.4010 -0.0877
 7859TIP3    H144992   3.866   0.338  16.107 -1.0990  0.9106  0.4374
 7859TIP3    H244993   3.949   0.434  16.025 -0.3237  1.3338  1.6985
 7860TIP3   OH244994   1.653   0.729  11.523  0.1558 -0.0060 -0.1725
 7860TIP3    H144995   1.736   0.705  11.564  0.6218  0.9728 -0.5104
 7860TIP3    H244996   1.653   0.825  11.522 -0.0404  0.0203 -2.0150
 7861TIP3   OH244997   5.983   3.293   3.010  0.2629 -0.5677 -0.2039
 7861TIP3    H144998   5.955   3.204   2.989  1.4679 -1.1878  0.7238
 7861TIP3    H244999   6.003   3.291   3.103  0.6530  0.5929 -0.2423
 7862TIP3   OH245000   1.373   3.923   1.289  0.6496  0.2398  0.1874
 7862TIP3    H145001   1.323   3.882   1.219  1.0127 -0.0240  0.0782
 7862TIP3    H245002   1.358   3.867   1.365  1.0995 -0.0756  0.0525
 7863TIP3   OH245003   2.815   1.879  16.758 -0.4589 -0.0244  0.1416
 7863TIP3    H145004   2.773   1.894  16.674 -1.2850  0.3218  0.6108
 7863TIP3    H245005   2.793   1.955  16.811  0.7295  0.1550  0.4192
 7864TIP3   OH245006   4.243   2.064   3.957 -0.0984  0.0899 -0.1957
 7864TIP3    H145007   4.190   2.121   4.013  0.8302 -0.7998  1.6826
 7864TIP3    H245008   4.296   2.013   4.018 -0.3666 -2.3025 -1.8312
 7865TIP3   OH245009   3.481   3.348   2.175 -0.3303  0.2016  0.6971
 7865TIP3    H145010   3.392   3.381   2.161 -1.3448 -2.5627 -0.0642
 7865TIP3    H245011   3.479   3.314   2.265 -0.8608 -1.8694 -0.0210
 7866TIP3   OH245012   5.118   1.126   4.032  0.5824  0.5214 -0.0133
 7866TIP3    H145013   5.055   1.057   4.047  0.4842  0.4101 -0.8628
 7866TIP3    H245014   5.087   1.200   4.084  0.7155 -0.0810  0.9325
 7867TIP3   OH245015   2.711   3.560   1.500 -0.2420 -0.7279  0.6345
 7867TIP3    H145016   2.618   3.549   1.520 -0.3685  0.2729  0.6212
 7867TIP3    H245017   2.745   3.616   1.570  0.0837 -0.1189  0.0026
 7868TIP3   OH245018   2.719   3.946  11.201 -0.1793 -0.1287 -0.3361
 7868TIP3    H145019   2.661   3.931  11.275 -1.3003  2.0143 -0.6939
 7868TIP3    H245020   2.669   4.004  11.143  1.4702 -0.0410 -1.7535
 7869TIP3   OH245021   0.311   1.324   0.691  0.2355 -0.2601 -0.3706
 7869TIP3    H145022   0.352   1.392   0.745 -0.4075 -1.2857  1.4882
 7869TIP3    H245023   0.383   1.263   0.671  0.9750  1.2225 -2.6307
 7870TIP3   OH245024   6.739   0.906   0.351 -0.1561  0.7986 -0.7879
 7870TIP3    H145025   6.717   0.955   0.430  0.3038 -1.9732  1.2010
 7870TIP3    H245026   6.657   0.865   0.325  0.0060  0.5188 -0.8578
 7871TIP3   OH245027   0.893   3.991  11.609  0.4398 -0.4450 -0.2245
 7871TIP3    H145028   0.801   3.967  11.604 -0.6385  3.1222 -0.7580
 7871TIP3    H245029   0.940   3.908  11.617 -2.8060 -2.3800  0.5063
 7872TIP3   OH245030   4.001   5.951   4.051 -0.0206 -0.3102 -0.4317
 7872TIP3    H145031   3.978   5.960   3.959 -0.7194  0.6583 -0.1862
 7872TIP3    H245032   4.023   5.859   4.062  2.0717 -0.0688 -1.9880
 7873TIP3   OH245033   6.763   1.506  10.942  0.5215  0.2937 -0.1324
 7873TIP3    H145034   6.689   1.515  10.882  0.2542  0.0021  0.1521
 7873TIP3    H245035   6.723   1.497  11.028  0.8754 -0.2627 -0.0216
 7874TIP3   OH245036   1.448   4.264   0.243  0.1705  0.0135  0.2790
 7874TIP3    H145037   1.495   4.219   0.313 -0.4728 -0.4468  0.4224
 7874TIP3    H245038   1.491   4.236   0.163 -1.0696 -1.9966  0.2364
 7875TIP3   OH245039   2.384   5.620   4.710  0.7384 -0.3218  0.7409
 7875TIP3    H145040   2.303   5.607   4.661  1.7208 -0.7512 -0.8505
 7875TIP3    H245041   2.356   5.658   4.793 -0.9457  1.0780 -0.4044
 7876TIP3   OH245042   3.048   3.176   0.430 -0.1907  0.5404  0.3291
 7876TIP3    H145043   3.103   3.224   0.369  0.0505  0.5424  0.5480
 7876TIP3    H245044   3.072   3.085   0.419  0.2705  0.5945  0.8344
 7877TIP3   OH245045   2.811   1.891   1.828 -0.6584  0.7145 -0.1612
 7877TIP3    H145046   2.853   1.946   1.762  0.6678  0.6716  0.6172
 7877TIP3    H245047   2.736   1.943   1.859 -0.8785  1.0222 -1.1729
 7878TIP3   OH245048   1.578   0.843   4.937  0.4567 -0.2102 -0.2383
 7878TIP3    H145049   1.591   0.838   4.843 -1.7729 -1.7089 -0.5480
 7878TIP3    H245050   1.656   0.801   4.974  0.3010 -1.7446 -1.5354
 7879TIP3   OH245051   4.719   2.773   2.956  0.5512 -0.0563 -0.1725
 7879TIP3    H145052   4.666   2.850   2.938  2.7831  1.6422  0.1547
 7879TIP3    H245053   4.693   2.747   3.045 -1.6361 -0.9812 -1.0144
 7880TIP3   OH245054   2.504   4.969  14.320 -0.3569  0.1370 -0.0988
 7880TIP3    H145055   2.507   4.886  14.272 -1.0932  0.1937 -0.2525
 7880TIP3    H245056   2.411   4.989  14.327 -0.2047  0.6988  0.3805
 7881TIP3   OH245057   2.878   5.447  13.744 -0.5783  0.0609 -0.3872
 7881TIP3    H145058   2.951   5.509  13.739  1.1447 -1.9396 -1.1176
 7881TIP3    H245059   2.804   5.496  13.707  0.1674  2.3492  0.9074
 7882TIP3   OH245060   6.763   1.051   1.718 -0.3292 -0.1750 -0.1650
 7882TIP3    H145061   6.720   0.974   1.755 -0.3912 -0.2187 -0.3300
 7882TIP3    H245062   6.856   1.033   1.727 -0.3444 -0.1660  0.0136
 7883TIP3   OH245063   4.415   5.675  11.106  0.1963  0.0487  0.2636
 7883TIP3    H145064   4.350   5.637  11.047  1.2626 -0.4254 -0.6344
 7883TIP3    H245065   4.463   5.738  11.051  0.6875  0.1811  0.8345
 7884TIP3   OH245066   1.489   1.094  13.456  0.3480  0.6949  0.1500
 7884TIP3    H145067   1.409   1.098  13.508  0.5404  1.0958  0.4211
 7884TIP3    H245068   1.525   1.183  13.459  0.3346  0.7385 -0.7206
 7885TIP3   OH245069   6.279   2.834   0.330  0.5873 -0.1750 -0.1054
 7885TIP3    H145070   6.298   2.804   0.419 -1.2910  0.0171  0.3977
 7885TIP3    H245071   6.184   2.825   0.321  0.7723 -0.4846 -2.2131
 7886TIP3   OH245072   6.143   0.537  11.444  0.5185  0.2994 -0.2747
 7886TIP3    H145073   6.236   0.541  11.422  0.2050 -0.9023 -1.9492
 7886TIP3    H245074   6.112   0.627  11.430  1.0846  0.3407 -1.3634
 7887TIP3   OH245075   2.363   5.470   1.398 -0.3320 -0.6625 -0.1587
 7887TIP3    H145076   2.354   5.381   1.431  1.3095 -0.4601  0.9594
 7887TIP3    H245077   2.335   5.465   1.307  0.3190 -2.4645 -0.3025
 7888TIP3   OH245078   1.905   3.611  14.738  0.1184  0.6068 -0.3190
 7888TIP3    H145079   2.001   3.607  14.729  0.0975 -1.1867 -0.1322
 7888TIP3    H245080   1.884   3.704  14.728  1.8454  0.9989 -0.6867
 7889TIP3   OH245081   4.503   3.295  16.932 -0.5839 -0.4751 -0.0016
 7889TIP3    H145082   4.429   3.355  16.944  0.5191  0.5437  2.2112
 7889TIP3    H245083   4.474   3.237  16.862 -1.0661  3.6552 -3.7003
 7890TIP3   OH245084   5.639   1.377   4.500 -0.4412  0.5382  0.4533
 7890TIP3    H145085   5.722   1.353   4.542 -1.3349 -1.0650  1.4079
 7890TIP3    H245086   5.661   1.388   4.408  0.9601  0.8993  0.7995
 7891TIP3   OH245087   2.983   6.323  17.110 -0.1436 -0.0633  0.4242
 7891TIP3    H145088   2.967   6.364  17.195  2.5298  3.2328 -0.4637
 7891TIP3    H245089   3.062   6.271  17.122  0.0771  0.1775  0.0588
 7892TIP3   OH245090   1.648   2.772   2.110  0.1207 -0.0463  0.0236
 7892TIP3    H145091   1.614   2.738   2.193  0.1689 -0.0767  0.0313
 7892TIP3    H245092   1.571   2.782   2.055  0.2423 -1.5236 -0.4676
 7893TIP3   OH245093   3.912   0.734  12.660  0.5480  0.1581 -0.4439
 7893TIP3    H145094   3.988   0.701  12.708  0.0657 -0.1112  0.1587
 7893TIP3    H245095   3.850   0.661  12.661 -0.2166  0.7846  0.1979
 7894TIP3   OH245096   4.800   0.645  11.302  0.5267 -0.1684  0.0881
 7894TIP3    H145097   4.873   0.583  11.303  0.9695  0.3304 -0.3406
 7894TIP3    H245098   4.740   0.612  11.369  1.1219 -0.6129  0.4214
 7895TIP3   OH245099   6.617   4.823  14.451  0.3541  0.1011 -0.1157
 7895TIP3    H145100   6.553   4.818  14.522 -0.7366  0.2659 -1.0582
 7895TIP3    H245101   6.621   4.734  14.416  0.3917  0.1691 -0.2837
 7896TIP3   OH245102   0.469   1.652  15.263  0.6903  0.5298  0.4469
 7896TIP3    H145103   0.505   1.573  15.223  0.8582  0.7993  0.0594
 7896TIP3    H245104   0.500   1.649  15.353  0.6733  0.1398  0.4418
 7897TIP3   OH245105   1.559   0.933  16.711 -0.2903 -0.5365  0.5686
 7897TIP3    H145106   1.496   0.974  16.651 -0.6269  0.3862  1.5163
 7897TIP3    H245107   1.634   0.912  16.657 -0.0471  1.4895  0.0464
 7898TIP3   OH245108   6.785   4.736   5.981  0.5152  0.0736  0.1161
 7898TIP3    H145109   6.748   4.823   5.988  1.8350  0.9392 -2.4381
 7898TIP3    H245110   6.860   4.737   6.041 -2.0291 -0.9996  3.6717
 7899TIP3   OH245111   0.142   4.171  15.795 -0.1716 -0.0878 -0.8814
 7899TIP3    H145112   0.133   4.076  15.791 -1.0203 -0.2433  2.1394
 7899TIP3    H245113   0.060   4.205  15.758  0.7437 -0.3996 -3.3602
 7900TIP3   OH245114   0.835   3.425   4.065  0.3002  0.1079  0.1391
 7900TIP3    H145115   0.798   3.504   4.104  0.6873  0.3412  0.0462
 7900TIP3    H245116   0.835   3.361   4.136  1.6305  0.7332  0.7527
 7901TIP3   OH245117   3.763   5.050  16.707  0.1072  0.0037 -0.1288
 7901TIP3    H145118   3.740   5.063  16.799 -1.5040  0.8313 -0.6092
 7901TIP3    H245119   3.787   4.957  16.701  0.4498 -0.0103  1.1475
 7902TIP3   OH245120   2.484   3.698   4.703 -0.1053 -0.4759  0.6269
 7902TIP3    H145121   2.432   3.651   4.638  1.1279  0.1858 -0.8938
 7902TIP3    H245122   2.433   3.776   4.723  1.0675  1.2659 -2.4251
 7903TIP3   OH245123   6.461   4.790   2.055 -0.4566  0.2854  0.0238
 7903TIP3    H145124   6.387   4.743   2.094  0.2463 -0.0842  0.9365
 7903TIP3    H245125   6.538   4.754   2.099  0.3870 -0.1981 -1.7590
 7904TIP3   OH245126   5.364   2.581  11.235 -0.5601  0.0951 -0.0871
 7904TIP3    H145127   5.429   2.625  11.290  0.4020 -0.7935 -0.4738
 7904TIP3    H245128   5.416   2.533  11.170 -1.5916 -0.8031 -0.2812
 7905TIP3   OH245129   4.648   3.422   6.926  0.0097  0.0977  0.5021
 7905TIP3    H145130   4.729   3.473   6.931  0.6662 -0.8382 -0.1109
 7905TIP3    H245131   4.669   3.350   6.866 -0.9771 -0.7083  1.0866
 7906TIP3   OH245132   6.087   3.786  12.215 -0.3225  0.1904  0.0709
 7906TIP3    H145133   6.046   3.841  12.148  0.2507 -0.8921 -1.1900
 7906TIP3    H245134   6.180   3.784  12.192 -0.7427 -4.0555 -2.0356
 7907TIP3   OH245135   1.178   2.458  15.879 -0.1798 -0.4753 -0.3307
 7907TIP3    H145136   1.154   2.397  15.949  0.6433 -0.1635  0.2371
 7907TIP3    H245137   1.270   2.479  15.896  0.4099 -1.3596 -2.2337
 7908TIP3   OH245138   0.811   6.775  11.137 -0.1040 -0.0521  0.0743
 7908TIP3    H145139   0.807   6.871  11.133 -1.4098 -0.0699  0.7245
 7908TIP3    H245140   0.873   6.752  11.067 -1.5912  1.1260 -1.7303
 7909TIP3   OH245141   2.734   2.982   4.299 -0.4460 -0.0905 -0.0370
 7909TIP3    H145142   2.686   3.049   4.250 -0.7936  1.1247  1.8409
 7909TIP3    H245143   2.687   2.975   4.382  0.4538 -1.6464  0.3887
 7910TIP3   OH245144   0.155   2.137   3.304 -0.5578 -0.2957  0.5684
 7910TIP3    H145145   0.177   2.217   3.256  0.2333 -1.0320 -0.3553
 7910TIP3    H245146   0.137   2.073   3.235 -0.5264 -1.0782  1.2797
 7911TIP3   OH245147   1.002   0.119  15.723  0.4738  0.4145  0.0760
 7911TIP3    H145148   1.023   0.207  15.692 -1.8087  0.6400 -1.1063
 7911TIP3    H245149   1.035   0.061  15.654  0.6273  0.4560  0.1136
 7912TIP3   OH245150   2.820   2.666   4.625  0.5071 -0.3889  0.1274
 7912TIP3    H145151   2.782   2.580   4.641 -0.1072  0.0308  0.9793
 7912TIP3    H245152   2.747   2.727   4.633  0.7688  0.1454 -1.3467
 7913TIP3   OH245153   1.737   6.124   3.793 -0.4450  0.1009  0.3358
 7913TIP3    H145154   1.672   6.194   3.785 -0.7789 -0.4094 -2.2698
 7913TIP3    H245155   1.763   6.105   3.703 -0.2643 -3.0668  0.9660
 7914TIP3   OH245156   2.624   1.299   5.143  0.2555 -0.6757  0.0321
 7914TIP3    H145157   2.575   1.217   5.140 -0.6094 -0.1448 -0.8993
 7914TIP3    H245158   2.568   1.362   5.098  0.0444  0.8922  2.3562
 7915TIP3   OH245159   5.585   2.037  11.333  0.7237 -0.0793  0.3820
 7915TIP3    H145160   5.519   2.102  11.306 -0.9261 -2.2891 -1.2469
 7915TIP3    H245161   5.654   2.044  11.266 -0.1535 -0.9352 -0.6558
 7916TIP3   OH245162   2.525   5.336   2.000 -0.0842 -0.3921 -0.2139
 7916TIP3    H145163   2.442   5.293   2.019 -0.4507 -2.3482 -4.9771
 7916TIP3    H245164   2.505   5.430   2.003 -1.9867 -0.7921  0.4535
 7917TIP3   OH245165   4.281   3.997  14.165  0.4740  0.5810 -0.5528
 7917TIP3    H145166   4.296   4.091  14.152  0.8093  0.5169 -0.6285
 7917TIP3    H245167   4.329   3.976  14.245 -0.2475  0.6367 -0.1005
 7918TIP3   OH245168   6.164   5.918   6.022  0.2963  0.4950  0.2939
 7918TIP3    H145169   6.196   5.836   5.984 -0.7865  0.7610 -1.2932
 7918TIP3    H245170   6.244   5.965   6.049  0.9256 -1.0386  1.1927
 7919TIP3   OH245171   1.784   4.013   1.619 -0.2687  0.4447  0.5952
 7919TIP3    H145172   1.818   4.009   1.529 -1.2286 -1.6656  0.2663
 7919TIP3    H245173   1.691   4.034   1.608 -0.8629 -1.7624  0.8979
 7920TIP3   OH245174   5.783   6.259  11.624 -0.0941  0.3179 -0.4853
 7920TIP3    H145175   5.799   6.353  11.625  2.0098  0.0586 -2.2165
 7920TIP3    H245176   5.867   6.220  11.649 -0.6398 -1.0972 -0.7564
 7921TIP3   OH245177   6.171   6.809  13.997 -0.3524 -0.0674 -0.4418
 7921TIP3    H145178   6.097   6.850  13.952  0.6173  1.1606 -0.9901
 7921TIP3    H245179   6.245   6.822  13.938  0.5345 -0.2522  0.5991
 7922TIP3   OH245180   5.203   1.820   4.923  0.4334  0.8085  0.5342
 7922TIP3    H145181   5.193   1.797   4.831 -0.0640  1.2572  0.4730
 7922TIP3    H245182   5.287   1.866   4.928  0.0356  1.5954  0.1382
 7923TIP3   OH245183   1.743   0.427   2.496  0.7214 -0.5945 -0.4997
 7923TIP3    H145184   1.800   0.357   2.526  1.0560  0.2409  0.9238
 7923TIP3    H245185   1.654   0.395   2.514  0.5967 -2.1788 -3.3415
 7924TIP3   OH245186   0.915   5.965   6.054  0.5884  0.3216  0.3413
 7924TIP3    H145187   0.909   5.889   5.995 -1.9789  1.4219 -0.9980
 7924TIP3    H245188   0.935   5.927   6.140 -1.0778 -1.9915 -0.1827
 7925TIP3   OH245189   1.272   3.770   5.026  0.0706  0.2129 -0.3968
 7925TIP3    H145190   1.199   3.832   5.029  0.8179  1.1140 -0.3944
 7925TIP3    H245191   1.269   3.726   5.111  0.6479  1.5976  0.3808
 7926TIP3   OH245192   5.455   3.046  16.839 -0.3934  0.0237  0.6360
 7926TIP3    H145193   5.467   3.121  16.897 -2.2171  0.6525  0.2627
 7926TIP3    H245194   5.433   2.974  16.898  2.2619 -0.5127  1.0812
 7927TIP3   OH245195   4.242   6.747  14.310 -0.2035  0.0445 -0.5233
 7927TIP3    H145196   4.243   6.667  14.362  2.6217 -0.6610 -1.4619
 7927TIP3    H245197   4.247   6.818  14.374  1.9327 -0.7492  0.2725
 7928TIP3   OH245198   4.988   2.954  11.246  0.2497  0.1170  0.2391
 7928TIP3    H145199   4.913   3.008  11.223  1.1178  0.9475 -0.7595
 7928TIP3    H245200   5.011   2.909  11.165 -0.7213 -2.1564  1.1582
 7929TIP3   OH245201   5.387   5.007  13.036 -0.6472 -0.3210 -0.3266
 7929TIP3    H145202   5.413   5.021  12.945 -0.5579  0.1863 -0.2295
 7929TIP3    H245203   5.326   4.933  13.034  2.8220 -3.4902 -0.2684
 7930TIP3   OH245204   2.663   4.777  11.624 -0.0889 -0.1480  0.2645
 7930TIP3    H145205   2.581   4.809  11.661  0.5164  2.1253 -0.2377
 7930TIP3    H245206   2.731   4.804  11.686  0.6827  1.6728 -1.2608
 7931TIP3   OH245207   0.411   6.424  14.538  0.2862  0.4384  0.4399
 7931TIP3    H145208   0.441   6.452  14.451  0.4352  0.1507  0.3978
 7931TIP3    H245209   0.337   6.481  14.557  0.3670  0.6250  0.2013
 7932TIP3   OH245210   1.651   3.172   2.799  0.3047 -0.3219 -0.2238
 7932TIP3    H145211   1.651   3.077   2.807  0.5904 -0.2832  0.2587
 7932TIP3    H245212   1.702   3.203   2.873 -0.7240  0.2654  0.2748
 7933TIP3   OH245213   5.390   4.541  16.490  0.0633 -0.2332 -0.4918
 7933TIP3    H145214   5.429   4.625  16.466 -1.3171  0.1211 -1.6098
 7933TIP3    H245215   5.425   4.480  16.426 -0.8854  0.0139 -1.2687
 7934TIP3   OH245216   5.064   5.623  11.341  0.5994  0.7061  0.5290
 7934TIP3    H145217   4.982   5.585  11.308  0.8760  1.3708 -0.9701
 7934TIP3    H245218   5.105   5.551  11.389 -0.3403  0.0375  0.3794
 7935TIP3   OH245219   2.557   0.445   3.031  0.2037 -0.2755  0.1476
 7935TIP3    H145220   2.641   0.423   3.071  0.4480  0.1263 -0.1266
 7935TIP3    H245221   2.564   0.539   3.012 -0.7864  0.0550  1.2782
 7936TIP3   OH245222   1.545   4.605   3.975  0.3094 -0.2520  0.5481
 7936TIP3    H145223   1.624   4.553   3.965  0.4941  0.2414 -0.7788
 7936TIP3    H245224   1.544   4.663   3.899 -1.7881 -0.8757  0.0084
 7937TIP3   OH245225   5.220   0.674  14.164  0.3820  0.0364 -0.2728
 7937TIP3    H145226   5.193   0.589  14.200 -1.8989  1.1075  0.7723
 7937TIP3    H245227   5.178   0.678  14.079  0.6880  0.0330 -0.4245
 7938TIP3   OH245228   2.114   1.549   3.903  0.1259  0.2877  0.0741
 7938TIP3    H145229   2.039   1.589   3.948  0.7657  4.0906 -1.8353
 7938TIP3    H245230   2.129   1.467   3.950 -2.7412  1.2444  3.0394
 7939TIP3   OH245231   6.097   4.826  11.628  0.2706  0.3604  0.2903
 7939TIP3    H145232   6.079   4.858  11.717 -0.6641 -1.2949  0.7524
 7939TIP3    H245233   6.141   4.742  11.642  0.0120  0.0246 -0.7946
 7940TIP3   OH245234   2.851   2.039   3.563 -0.1029 -0.3407  0.3635
 7940TIP3    H145235   2.940   2.026   3.531  0.2359  0.8772  0.7315
 7940TIP3    H245236   2.815   2.106   3.505 -0.1598  0.4435  1.2878
 7941TIP3   OH245237   5.393   3.428  13.842  0.2392  0.3438  0.0723
 7941TIP3    H145238   5.403   3.425  13.937 -0.0923  2.7331  0.2588
 7941TIP3    H245239   5.453   3.498  13.815 -0.9613  0.9054 -1.2404
 7942TIP3   OH245240   5.666   4.982  13.433  0.2680  0.1238  0.1489
 7942TIP3    H145241   5.661   4.943  13.345 -1.3543  0.4012  0.0905
 7942TIP3    H245242   5.739   4.936  13.475 -0.1440 -1.3763 -0.6997
 7943TIP3   OH245243   4.572   2.823  11.371 -0.1015  0.2212  0.0305
 7943TIP3    H145244   4.607   2.771  11.443 -1.9462 -1.5896 -0.2928
 7943TIP3    H245245   4.479   2.832  11.392  0.0336  3.0049 -0.2003
 7944TIP3   OH245246   2.344   0.289   1.518 -0.3303 -0.4347  0.3349
 7944TIP3    H145247   2.429   0.246   1.510  0.4009  1.2616 -2.0792
 7944TIP3    H245248   2.288   0.246   1.454 -0.6478 -0.1224  0.3976
 7945TIP3   OH245249   6.327   0.309   3.695  0.0709  0.2754 -0.2907
 7945TIP3    H145250   6.331   0.401   3.721 -1.8832 -0.1126  1.6226
 7945TIP3    H245251   6.298   0.263   3.773 -2.2959 -1.5230 -2.0751
 7946TIP3   OH245252   0.765   2.923  13.061  0.2001  0.1626 -0.9303
 7946TIP3    H145253   0.823   2.891  13.130 -0.7591 -2.5732 -1.2748
 7946TIP3    H245254   0.822   2.931  12.985  0.5049 -0.7207 -0.8103
 7947TIP3   OH245255   6.508   6.463  10.397  0.0247  0.4314  0.0731
 7947TIP3    H145256   6.459   6.504  10.468 -0.1565  0.8675 -0.2973
 7947TIP3    H245257   6.461   6.381  10.379  0.3565  0.0762  0.7764
 7948TIP3   OH245258   3.263   4.621  13.248  0.0715 -0.0564  0.6812
 7948TIP3    H145259   3.201   4.550  13.230 -0.7648  0.6177  0.8165
 7948TIP3    H245260   3.280   4.661  13.162  1.1098 -0.8663  0.5011
 7949TIP3   OH245261   4.265   6.523   4.205  0.1380  0.0773 -0.0684
 7949TIP3    H145262   4.322   6.519   4.281  0.9687  3.3643 -0.3573
 7949TIP3    H245263   4.325   6.518   4.130 -0.1419  1.3293 -0.4019
 7950TIP3   OH245264   1.064   4.261  13.814 -0.5130 -0.1610  0.3987
 7950TIP3    H145265   1.072   4.299  13.727 -0.0785 -0.0651  0.4765
 7950TIP3    H245266   1.093   4.170  13.803 -0.3258 -0.1110  0.4686
 7951TIP3   OH245267   3.783   4.499  13.788  0.1920  0.0282 -0.4606
 7951TIP3    H145268   3.737   4.557  13.727 -0.2754  0.9378  0.7336
 7951TIP3    H245269   3.841   4.557  13.838 -0.3624 -0.5038  0.8357
 7952TIP3   OH245270   3.625   1.387  15.607 -0.1232 -0.1042  0.4914
 7952TIP3    H145271   3.544   1.378  15.557 -1.0632  0.4634  1.8532
 7952TIP3    H245272   3.693   1.349  15.550 -1.2213  0.0169 -0.9460
 7953TIP3   OH245273   0.994   5.435  16.405 -0.7930  0.0390 -0.0800
 7953TIP3    H145274   1.000   5.479  16.320 -2.0425  1.7470  0.6693
 7953TIP3    H245275   1.024   5.346  16.388 -0.9034  0.3752 -2.2822
 7954TIP3   OH245276   2.369   1.017  13.391  0.5594 -0.4480  0.0964
 7954TIP3    H145277   2.351   0.957  13.463 -1.3125  0.0814  0.1104
 7954TIP3    H245278   2.414   1.091  13.431  1.2629 -1.0220  0.3820
 7955TIP3   OH245279   6.419   6.036  13.395 -0.2903 -0.2526  0.2278
 7955TIP3    H145280   6.403   5.995  13.480  0.6485  0.2792  0.6791
 7955TIP3    H245281   6.334   6.072  13.370 -0.5505 -0.2808  1.0191
 7956TIP3   OH245282   1.003   1.267  11.825 -0.4619  0.4642 -0.7491
 7956TIP3    H145283   0.969   1.192  11.873  0.9681  0.1948 -0.1125
 7956TIP3    H245284   1.000   1.240  11.733  0.2415 -0.4648 -0.5071
 7957TIP3   OH245285   0.578   0.925  14.613 -0.2533  0.7545 -0.1818
 7957TIP3    H145286   0.564   0.830  14.610  0.0773  0.7148 -2.7170
 7957TIP3    H245287   0.493   0.963  14.594 -0.2137  0.9277 -0.0107
 7958TIP3   OH245288   2.125   2.849   0.898  0.0508 -0.0495  0.1521
 7958TIP3    H145289   2.071   2.830   0.822 -0.0279 -1.2715  0.4969
 7958TIP3    H245290   2.180   2.771   0.908  1.7969  1.0786 -0.1023
 7959TIP3   OH245291   4.853   0.285   3.920 -0.0389 -0.1200 -0.1001
 7959TIP3    H145292   4.864   0.325   3.834  0.0965 -0.6976 -0.3568
 7959TIP3    H245293   4.811   0.201   3.902 -3.2662  1.1676  0.6651
 7960TIP3   OH245294   5.811   0.991   3.048  0.1084 -0.0008 -0.2001
 7960TIP3    H145295   5.886   0.950   3.091 -0.0448 -0.2095 -0.1272
 7960TIP3    H245296   5.846   1.071   3.009  0.6463 -0.7198 -1.2386
 7961TIP3   OH245297   1.127   6.081   1.060 -0.1656 -0.7173 -0.4397
 7961TIP3    H145298   1.137   6.078   1.155  0.3470  1.7052 -0.3552
 7961TIP3    H245299   1.210   6.116   1.028 -0.7826 -0.2926 -1.6530
 7962TIP3   OH245300   4.375   1.209  15.683  0.1793 -0.6677 -0.3688
 7962TIP3    H145301   4.317   1.278  15.653  2.1962  1.4090  0.2646
 7962TIP3    H245302   4.397   1.232  15.773  0.7090 -2.3011 -0.0323
 7963TIP3   OH245303   4.893   5.012   4.207 -0.0036 -0.5313  0.1320
 7963TIP3    H145304   4.986   4.990   4.218  0.3943  1.0136  0.0259
 7963TIP3    H245305   4.872   5.067   4.282 -0.1368  1.1664 -1.0866
 7964TIP3   OH245306   5.991   2.118  16.818  0.5556 -0.2977  0.5649
 7964TIP3    H145307   6.053   2.142  16.749  0.4802 -0.7878  0.3230
 7964TIP3    H245308   5.963   2.202  16.856  2.1622 -0.0862  1.3976
 7965TIP3   OH245309   4.286   0.731   0.892 -0.7540  0.3014 -0.6350
 7965TIP3    H145310   4.317   0.785   0.965  0.9028 -1.3836  0.0093
 7965TIP3    H245311   4.223   0.786   0.846  1.5391  3.1658 -0.6446
 7966TIP3   OH245312   2.774   2.789  16.828  0.3920  0.7433  0.2892
 7966TIP3    H145313   2.867   2.811  16.835  0.4537  0.1479  1.5723
 7966TIP3    H245314   2.764   2.752  16.740  1.4011  0.6616  0.2018
 7967TIP3   OH245315   6.353   1.986   5.479  0.1648 -0.2757  0.0036
 7967TIP3    H145316   6.326   1.976   5.388 -3.0020  0.5303  0.7454
 7967TIP3    H245317   6.320   1.908   5.524  1.9851 -0.8323  0.4799
 7968TIP3   OH245318   3.065   1.803   5.069 -0.6970  0.4458  0.3405
 7968TIP3    H145319   3.044   1.894   5.046 -1.4749  0.5401  1.3471
 7968TIP3    H245320   3.136   1.811   5.133  0.7916  0.2263 -1.2165
 7969TIP3   OH245321   1.491   2.929  12.753 -0.6395  0.2278  0.3004
 7969TIP3    H145322   1.420   2.865  12.749 -0.2149 -0.1899 -0.8245
 7969TIP3    H245323   1.496   2.953  12.846  0.8835 -3.2955  1.2806
 7970TIP3   OH245324   5.486   4.523   2.484 -0.2673  0.4083 -0.2427
 7970TIP3    H145325   5.518   4.495   2.569  1.2128 -0.5194 -1.0541
 7970TIP3    H245326   5.462   4.615   2.496  1.3955  0.7411  0.7910
 7971TIP3   OH245327   1.746   5.675   4.002 -0.5802 -0.2116  0.2885
 7971TIP3    H145328   1.719   5.729   3.927 -2.6396 -1.7198 -0.1352
 7971TIP3    H245329   1.836   5.650   3.981 -0.8697 -0.0191 -1.3609
 7972TIP3   OH245330   1.162   5.391  11.521  0.5205  0.0111  0.0907
 7972TIP3    H145331   1.164   5.299  11.495  1.4016  0.1549 -0.3946
 7972TIP3    H245332   1.214   5.395  11.601  1.4069  0.2533 -0.4857
 7973TIP3   OH245333   1.476   3.035   2.003  0.1042 -0.0976  0.0088
 7973TIP3    H145334   1.490   3.122   1.966  0.4868  0.2023  0.8292
 7973TIP3    H245335   1.560   2.991   1.993 -0.2710 -0.6079 -0.9859
 7974TIP3   OH245336   1.971   0.198  12.262  0.8025  0.3070  0.4024
 7974TIP3    H145337   1.999   0.127  12.319  2.0269  2.0168  2.0715
 7974TIP3    H245338   1.902   0.243  12.311 -0.2641  0.0493 -0.8173
 7975TIP3   OH245339   1.753   5.415   0.925 -0.2742  0.1232 -0.1896
 7975TIP3    H145340   1.743   5.449   0.836 -0.3858 -0.5082 -0.4197
 7975TIP3    H245341   1.830   5.359   0.921 -0.1447  0.2697  0.1721
 7976TIP3   OH245342   0.886   6.100   3.223  1.3026 -0.0183  0.5265
 7976TIP3    H145343   0.885   6.176   3.164 -2.7647  0.0003  0.3002
 7976TIP3    H245344   0.890   6.138   3.311  1.3294  0.3400  0.3733
 7977TIP3   OH245345   0.099   0.736   0.191 -0.2108  0.3784  0.7601
 7977TIP3    H145346   0.067   0.789   0.265  0.4727 -0.6423  1.8290
 7977TIP3    H245347   0.051   0.653   0.199  1.0314 -0.3398  1.0458
 7978TIP3   OH245348   3.499   0.287  14.979 -0.4010  0.2554 -1.1940
 7978TIP3    H145349   3.406   0.281  15.003  0.0518 -1.0939  0.3952
 7978TIP3    H245350   3.512   0.379  14.957 -2.3355  0.2865 -2.5254
 7979TIP3   OH245351   2.249   4.622  17.012  0.1093 -0.5879  0.2661
 7979TIP3    H145352   2.197   4.685  17.061 -0.8291 -1.1083 -0.0319
 7979TIP3    H245353   2.330   4.668  16.992 -0.6692  0.6480 -0.2058
 7980TIP3   OH245354   5.448   6.299   3.199 -0.1378  0.0590  0.1559
 7980TIP3    H145355   5.463   6.265   3.111  1.5322  1.8057 -0.2838
 7980TIP3    H245356   5.535   6.320   3.232 -0.8874  1.2784  1.4599
 7981TIP3   OH245357   4.886   4.206  12.136  0.3758 -0.4867  0.4789
 7981TIP3    H145358   4.899   4.184  12.228  1.2291 -2.9682 -0.1391
 7981TIP3    H245359   4.797   4.178  12.116 -0.4063  1.5641  0.8819
 7982TIP3   OH245360   5.689   2.064   0.245  0.0692 -0.0509  0.1909
 7982TIP3    H145361   5.626   1.992   0.248  0.8559 -0.7869 -0.2224
 7982TIP3    H245362   5.661   2.118   0.170  0.0908 -0.5273 -0.1656
 7983TIP3   OH245363   5.173   2.299  11.732  0.6327  0.3310 -0.1538
 7983TIP3    H145364   5.131   2.324  11.814  0.5548  1.1792 -0.4334
 7983TIP3    H245365   5.100   2.290  11.670  0.2853 -3.8216  0.6319
 7984TIP3   OH245366   2.046   6.682  14.704 -0.1798  0.4738 -0.4831
 7984TIP3    H145367   1.982   6.639  14.647 -1.0961 -1.5622  1.8991
 7984TIP3    H245368   1.995   6.710  14.780  1.7320 -1.6811  1.7409
 7985TIP3   OH245369   6.583   2.423   1.331 -0.5018 -0.0758  0.4283
 7985TIP3    H145370   6.671   2.449   1.359 -0.3292  0.2263 -0.3763
 7985TIP3    H245371   6.525   2.491   1.368 -0.1393  1.0502 -0.9769
 7986TIP3   OH245372   0.273   3.848   5.278 -0.5164 -0.6687  0.5819
 7986TIP3    H145373   0.256   3.942   5.272 -1.8349 -0.8064  1.5799
 7986TIP3    H245374   0.345   3.840   5.340 -1.3586 -0.3512  1.6434
 7987TIP3   OH245375   2.891   0.853  15.791 -0.1094 -0.1972  0.5127
 7987TIP3    H145376   2.868   0.914  15.721  1.2757  2.3000  2.0972
 7987TIP3    H245377   2.849   0.771  15.765 -0.8645  0.9849 -2.4687
 7988TIP3   OH245378   2.930   1.668  16.134 -0.1179  0.3428  0.2250
 7988TIP3    H145379   3.016   1.628  16.130  0.3626  1.4444 -1.0748
 7988TIP3    H245380   2.906   1.664  16.227  0.2146 -2.2054  0.2649
 7989TIP3   OH245381   1.771   4.272  12.534 -0.2805 -0.2077 -1.0040
 7989TIP3    H145382   1.863   4.258  12.555 -0.6030  1.8479  2.7946
 7989TIP3    H245383   1.725   4.201  12.579 -0.6417  0.7227  0.1859
 7990TIP3   OH245384   5.510   1.185  11.278  0.0186 -0.4839 -0.3607
 7990TIP3    H145385   5.435   1.164  11.222  0.3925 -0.3050 -0.9334
 7990TIP3    H245386   5.487   1.269  11.318  0.6492  0.4460 -1.8829
 7991TIP3   OH245387   4.433   2.586   2.594  0.2657 -0.8767 -0.1416
 7991TIP3    H145388   4.369   2.633   2.647 -1.1480 -0.9544 -1.6844
 7991TIP3    H245389   4.431   2.496   2.627  0.4001 -0.6318  0.5372
 7992TIP3   OH245390   6.108   0.585  10.788  0.1691 -0.1143 -0.0421
 7992TIP3    H145391   6.079   0.494  10.780  0.2991 -0.1612  0.0263
 7992TIP3    H245392   6.028   0.633  10.808  0.1397 -0.2499  0.1809
 7993TIP3   OH245393   0.057   1.070   3.302  0.1743  0.2490 -0.4912
 7993TIP3    H145394   0.033   1.006   3.369 -0.8360  1.3477  0.2483
 7993TIP3    H245395   0.147   1.093   3.322  0.0465  0.1830  0.1984
 7994TIP3   OH245396   6.770   0.588   0.773 -0.9322 -0.1234 -0.1836
 7994TIP3    H145397   6.761   0.674   0.814  1.4256  0.8306 -1.4468
 7994TIP3    H245398   6.794   0.529   0.845 -0.2445  0.7837  0.3556
 7995TIP3   OH245399   6.059   3.303   2.032  0.3719 -0.3227  0.3630
 7995TIP3    H145400   6.030   3.224   2.078  1.9885 -0.8156  0.5776
 7995TIP3    H245401   6.000   3.309   1.956  0.4889 -1.9921  0.0889
 7996TIP3   OH245402   4.375   4.253  11.267 -0.2184  0.2000  0.1916
 7996TIP3    H145403   4.360   4.292  11.181  0.8516 -0.9158 -0.5479
 7996TIP3    H245404   4.413   4.167  11.247 -0.6265 -0.3763  1.7776
 7997TIP3   OH245405   5.721   4.023   5.705  0.2281 -0.3374  0.2687
 7997TIP3    H145406   5.701   3.983   5.789  0.9264  0.9112  1.0616
 7997TIP3    H245407   5.808   3.989   5.682  0.5996  0.3022  0.6955
 7998TIP3   OH245408   2.636   1.245  12.652 -0.3148  0.0900  0.6438
 7998TIP3    H145409   2.731   1.261  12.651 -0.0043 -1.4997 -0.7898
 7998TIP3    H245410   2.598   1.328  12.679  1.5576  0.0827  3.8767
 7999TIP3   OH245411   4.691   4.627  10.750 -0.2515 -0.3910  0.6380
 7999TIP3    H145412   4.755   4.569  10.790 -0.5986  0.0064  1.8166
 7999TIP3    H245413   4.681   4.699  10.812 -1.4371 -0.1793  0.2388
 8000TIP3   OH245414   1.018   5.778  11.383  0.3818 -0.2211  0.2938
 8000TIP3    H145415   1.038   5.843  11.450  1.3630 -0.3585  0.1479
 8000TIP3    H245416   0.975   5.827  11.313  0.3760  0.1183  0.5348
 8001TIP3   OH245417   0.665   2.909   3.006  0.4229 -0.1847 -0.0351
 8001TIP3    H145418   0.739   2.897   3.065 -0.7917 -2.1402  1.2290
 8001TIP3    H245419   0.634   2.998   3.023  0.5922 -0.4276  1.7368
 8002TIP3   OH245420   5.534   6.632  10.762  0.0141 -0.0298  0.0480
 8002TIP3    H145421   5.584   6.551  10.752 -1.2449 -0.8213 -0.0549
 8002TIP3    H245422   5.504   6.653  10.673  0.3785  0.5934  0.0653
 8003TIP3   OH245423   6.294   3.468  15.271  0.6717 -0.3679  0.2603
 8003TIP3    H145424   6.382   3.441  15.244  1.1665  1.0917  0.2911
 8003TIP3    H245425   6.240   3.458  15.192  0.6361 -2.1147  0.4810
 8004TIP3   OH245426   6.311   3.251   1.907  0.1679  0.1738 -0.1578
 8004TIP3    H145427   6.342   3.291   1.988 -0.5669  1.1426 -0.3325
 8004TIP3    H245428   6.218   3.272   1.904 -0.0065 -0.6652 -0.7883
 8005TIP3   OH245429   0.954   4.021  17.033  0.1615  0.2809  0.1240
 8005TIP3    H145430   1.031   4.059  17.075 -0.6121 -0.2800  2.2032
 8005TIP3    H245431   0.892   4.094  17.025 -0.5757 -0.0265  2.2787
 8006TIP3   OH245432   0.801   0.969  15.114  0.4606 -0.1931 -0.5838
 8006TIP3    H145433   0.739   0.978  15.186 -0.4476 -0.7535 -1.2648
 8006TIP3    H245434   0.751   0.994  15.036  1.2977  0.0073 -1.0662
 8007TIP3   OH245435   2.135   4.489   0.971  0.5972 -0.6819 -0.1051
 8007TIP3    H145436   2.161   4.524   0.886  0.1624 -1.7485 -0.6870
 8007TIP3    H245437   2.063   4.546   0.999  1.8861  0.7609  0.3863
 8008TIP3   OH245438   1.329   5.775   1.312  0.1806 -0.3775  0.0900
 8008TIP3    H145439   1.393   5.715   1.351  0.9478 -1.6839 -2.8737
 8008TIP3    H245440   1.374   5.859   1.308  0.8949 -0.7549  0.0043
 8009TIP3   OH245441   0.359   1.890  12.568  0.3473  0.0547 -0.1565
 8009TIP3    H145442   0.331   1.858  12.654 -0.1997  1.9155  0.4187
 8009TIP3    H245443   0.299   1.848  12.506 -0.2968 -0.0686  0.5387
 8010TIP3   OH245444   4.386   1.975   2.489  0.3955 -0.2364 -0.3204
 8010TIP3    H145445   4.411   1.988   2.580 -0.6943  0.0648 -0.0474
 8010TIP3    H245446   4.303   2.022   2.480  0.4520 -0.3195 -1.4521
 8011TIP3   OH245447   4.704   4.707   2.380 -0.2354  0.0497 -0.2388
 8011TIP3    H145448   4.611   4.719   2.401 -0.2190 -1.5027  0.8111
 8011TIP3    H245449   4.743   4.792   2.400 -1.1446  0.2232  0.9617
 8012TIP3   OH245450   2.701   5.757  12.838  0.0532  0.0263  0.2576
 8012TIP3    H145451   2.731   5.766  12.928 -0.9445  0.5247  0.5430
 8012TIP3    H245452   2.642   5.682  12.839  1.5430 -1.2376 -0.3976
 8013TIP3   OH245453   5.164   4.253   2.916 -0.2238 -0.2392 -0.0863
 8013TIP3    H145454   5.135   4.195   2.986 -2.0870  0.0686 -0.5601
 8013TIP3    H245455   5.223   4.199   2.864  0.8565 -0.6048  1.4396
 8014TIP3   OH245456   0.245   6.376  11.273  0.1916  0.3849  0.4979
 8014TIP3    H145457   0.210   6.337  11.353 -0.3265  0.2168  0.1885
 8014TIP3    H245458   0.237   6.470  11.286 -0.9683  0.3361  0.1605
 8015TIP3   OH245459   0.942   3.280  16.604  0.0611  0.4135  0.2811
 8015TIP3    H145460   0.878   3.214  16.630 -0.0749  0.4280 -0.0136
 8015TIP3    H245461   0.893   3.340  16.548  0.2163  0.6917  0.4454
 8016TIP3   OH245462   3.024   2.307   2.897 -0.2485  0.3266  0.2037
 8016TIP3    H145463   3.074   2.389   2.899  0.9018 -0.2926 -1.6161
 8016TIP3    H245464   3.078   2.247   2.846 -1.2131 -1.5026  1.2563
 8017TIP3   OH245465   4.446   3.425   0.524  0.5332 -0.1919  0.7394
 8017TIP3    H145466   4.368   3.477   0.508  0.3562 -0.3967  0.9286
 8017TIP3    H245467   4.519   3.484   0.504  0.3653  0.5978  2.3372
 8018TIP3   OH245468   3.195   4.997   6.021 -0.7829  0.3486 -0.0188
 8018TIP3    H145469   3.169   4.933   6.089 -1.2354  0.3179 -0.2151
 8018TIP3    H245470   3.180   5.082   6.062 -3.7267  0.4176 -0.9632
 8019TIP3   OH245471   5.133   1.363   0.314 -0.4921  0.1324  0.5103
 8019TIP3    H145472   5.051   1.327   0.280 -0.0434 -0.3689 -0.0665
 8019TIP3    H245473   5.174   1.406   0.239 -0.7992  1.4686  1.0872
 8020TIP3   OH245474   1.342   4.274  16.917 -0.0183 -0.0023  0.5293
 8020TIP3    H145475   1.354   4.182  16.893  1.1945  0.0395  0.9575
 8020TIP3    H245476   1.281   4.308  16.850  0.6929 -0.7298 -0.5185
 8021TIP3   OH245477   0.654   1.656  16.544 -0.1316  0.0031 -0.6667
 8021TIP3    H145478   0.633   1.567  16.515 -0.5303 -0.5215  1.0872
 8021TIP3    H245479   0.749   1.664  16.531 -0.1159 -0.6381 -0.9675
 8022TIP3   OH245480   2.828   3.250  13.391  0.0419 -0.0096 -0.5779
 8022TIP3    H145481   2.824   3.278  13.482  1.6640 -1.5635  0.0074
 8022TIP3    H245482   2.742   3.209  13.375  0.8179 -2.6513  1.3123
 8023TIP3   OH245483   4.695   3.227   2.511  0.4196  0.2395 -0.4464
 8023TIP3    H145484   4.652   3.301   2.468  0.9019  0.9669  0.2851
 8023TIP3    H245485   4.752   3.190   2.443 -0.2673  0.1693 -0.9883
 8024TIP3   OH245486   3.390   3.475   3.852  0.2131 -0.3143  0.1826
 8024TIP3    H145487   3.438   3.434   3.780  0.1712 -0.0946  0.0283
 8024TIP3    H245488   3.375   3.565   3.823  1.9853  0.3967  1.3143
 8025TIP3   OH245489   0.077   3.201   1.103  0.1577 -0.0572  0.7593
 8025TIP3    H145490   0.114   3.118   1.134  1.6934  1.5603  3.6176
 8025TIP3    H245491   0.022   3.231   1.175 -0.6554  1.2805 -0.3769
 8026TIP3   OH245492   3.977   1.239   1.006 -0.2964  0.3310 -0.4964
 8026TIP3    H145493   3.949   1.168   0.948  0.6508 -0.9827  0.6274
 8026TIP3    H245494   3.912   1.240   1.076 -0.4827  0.8017 -0.6682
 8027TIP3   OH245495   0.887   4.124  16.739 -0.5107  0.3300  0.0065
 8027TIP3    H145496   0.906   4.044  16.690  0.2910  0.3028  0.3457
 8027TIP3    H245497   0.968   4.144  16.785 -0.6836  1.3773 -0.1136
 8028TIP3   OH245498   5.575   3.934  11.560 -0.4872 -0.1543  0.0314
 8028TIP3    H145499   5.606   3.901  11.476 -1.9595  0.9035 -0.9727
 8028TIP3    H245500   5.578   3.858  11.618 -1.3258 -1.4254 -1.5066
 8029TIP3   OH245501   2.551   1.519   5.839  0.0046  0.0370 -0.7701
 8029TIP3    H145502   2.490   1.546   5.908  0.5300  0.2163 -0.3736
 8029TIP3    H245503   2.543   1.424   5.836  0.8088 -0.0803  0.3228
 8030TIP3   OH245504   0.624   6.262  14.011  0.8251  0.3039  0.2372
 8030TIP3    H145505   0.594   6.334  13.957  0.0954  0.3415  0.6781
 8030TIP3    H245506   0.549   6.241  14.068  1.6829  0.5156  1.4901
 8031TIP3   OH245507   3.562   3.549   1.163 -0.1881 -0.0273  0.3102
 8031TIP3    H145508   3.482   3.576   1.207 -0.7539  0.4753 -0.9730
 8031TIP3    H245509   3.546   3.459   1.137 -0.9887  0.5300 -1.2831
 8032TIP3   OH245510   2.008   0.205   4.921 -0.3512  0.2256  0.5734
 8032TIP3    H145511   2.041   0.170   5.003 -1.1317 -1.4504  0.2182
 8032TIP3    H245512   1.917   0.174   4.916 -0.5619  0.9367 -0.5661
 8033TIP3   OH245513   1.398   5.144   4.668  0.1007  0.3442 -1.6734
 8033TIP3    H145514   1.326   5.183   4.619 -2.0425  1.7080  2.1025
 8033TIP3    H245515   1.476   5.187   4.635 -1.5247  3.3426 -1.9714
 8034TIP3   OH245516   3.836   3.441   3.454  0.2478  0.1398 -0.1188
 8034TIP3    H145517   3.806   3.509   3.393 -0.8186 -0.5252 -0.3499
 8034TIP3    H245518   3.914   3.405   3.412 -0.6050 -0.4655 -1.2357
 8035TIP3   OH245519   0.790   4.425  12.235  0.2275 -0.6880 -0.1135
 8035TIP3    H145520   0.851   4.381  12.176  1.4693  0.2460  0.4393
 8035TIP3    H245521   0.709   4.432  12.184  1.1621 -0.2305 -1.5900
 8036TIP3   OH245522   2.656   6.368  16.561  0.2562  0.9552 -0.2686
 8036TIP3    H145523   2.627   6.450  16.599 -2.0538 -0.0557  0.3506
 8036TIP3    H245524   2.713   6.330  16.627 -1.9546  0.2446  1.3664
 8037TIP3   OH245525   5.451   2.734   2.232  0.2241 -0.0984  0.1499
 8037TIP3    H145526   5.366   2.766   2.265  1.1248  1.3085  1.2356
 8037TIP3    H245527   5.461   2.648   2.272 -0.0670  0.3356  1.2028
 8038TIP3   OH245528   0.255   2.832  16.505 -0.5370  0.2817 -0.3954
 8038TIP3    H145529   0.332   2.815  16.451 -0.8386 -0.5081 -0.5983
 8038TIP3    H245530   0.181   2.825  16.444 -0.9868 -1.7954  0.2822
 8039TIP3   OH245531   6.199   1.911   5.736 -0.0532  0.2882  0.0252
 8039TIP3    H145532   6.130   1.845   5.724  0.8791 -0.6112 -0.6195
 8039TIP3    H245533   6.152   1.994   5.742 -1.2936 -0.4554  1.2536
 8040TIP3   OH245534   4.113   2.731  12.582  0.1595  0.2980 -0.0028
 8040TIP3    H145535   4.135   2.745  12.490 -0.5828 -0.7941 -0.3669
 8040TIP3    H245536   4.062   2.650  12.582 -0.3523  0.6018  1.2967
 8041TIP3   OH245537   2.924   2.324  14.455 -0.0465 -0.3241 -0.6750
 8041TIP3    H145538   2.910   2.247  14.510  1.0151  1.3457  2.1449
 8041TIP3    H245539   2.849   2.381  14.473  0.0885  0.0759 -1.3231
 8042TIP3   OH245540   0.839   5.051  10.972  0.3045  0.3357  0.2987
 8042TIP3    H145541   0.902   4.988  10.937  1.1110  0.1420  1.9932
 8042TIP3    H245542   0.754   5.008  10.963  0.6236 -0.1891 -0.2929
 8043TIP3   OH245543   3.618   0.118  12.085  0.0117 -0.3076 -0.5778
 8043TIP3    H145544   3.586   0.050  12.144  1.2441 -0.6582 -0.2992
 8043TIP3    H245545   3.712   0.122  12.100  0.4100 -0.5301 -2.6203
 8044TIP3   OH245546   1.088   1.219   2.140  0.6945 -0.9401  0.4373
 8044TIP3    H145547   0.996   1.200   2.159  0.6109  0.2807  1.4715
 8044TIP3    H245548   1.129   1.225   2.226  1.2410  0.6985  0.1124
 8045TIP3   OH245549   5.552   2.706  16.710  0.0324  0.2071 -0.6114
 8045TIP3    H145550   5.563   2.761  16.633 -1.3127  0.5065 -0.6261
 8045TIP3    H245551   5.627   2.725  16.765  1.3335 -0.4287 -2.0727
 8046TIP3   OH245552   0.621   6.408   1.854  0.3253  0.2925  0.5669
 8046TIP3    H145553   0.599   6.331   1.803 -2.0809  1.2115  0.0712
 8046TIP3    H245554   0.693   6.449   1.806 -2.4136  1.6252 -2.8447
 8047TIP3   OH245555   3.508   1.555  15.785  0.2699  0.2857  0.0947
 8047TIP3    H145556   3.418   1.574  15.757  1.1060  1.3491 -2.1211
 8047TIP3    H245557   3.544   1.501  15.715  1.0842 -0.9786  1.4480
 8048TIP3   OH245558   5.544   6.184  12.455  0.2514 -0.2133 -0.0101
 8048TIP3    H145559   5.509   6.216  12.538 -2.6767  0.6101 -1.4276
 8048TIP3    H245560   5.589   6.259  12.417  0.6254 -0.2658  0.3222
 8049TIP3   OH245561   3.348   5.599   1.188  0.1420 -0.2922 -0.0612
 8049TIP3    H145562   3.315   5.683   1.220 -1.1542 -0.1824 -1.5563
 8049TIP3    H245563   3.375   5.617   1.098  0.7002 -1.2865 -0.1080
 8050TIP3   OH245564   3.557   3.229  13.801 -0.1487 -0.0822  0.0807
 8050TIP3    H145565   3.639   3.277  13.805 -0.7513  0.9166  1.2673
 8050TIP3    H245566   3.575   3.146  13.846  0.3848 -0.1742 -0.2904
 8051TIP3   OH245567   5.175   5.735  14.674  0.0988  0.5245  0.2682
 8051TIP3    H145568   5.270   5.743  14.682  0.4065 -1.6563 -0.6575
 8051TIP3    H245569   5.155   5.650  14.713 -1.4590  0.8585  0.2414
 8052TIP3   OH245570   4.766   1.798   5.606 -0.1468  0.3485  0.0224
 8052TIP3    H145571   4.834   1.742   5.568  0.2876  1.4889 -0.9413
 8052TIP3    H245572   4.690   1.787   5.548 -0.6179 -0.4714  0.7647
 8053TIP3   OH245573   2.230   6.489   5.083 -0.3477 -0.1593 -0.1171
 8053TIP3    H145574   2.254   6.573   5.121 -0.7517 -0.2812  0.4206
 8053TIP3    H245575   2.281   6.483   5.002 -0.8614  0.9250 -0.5386
 8054TIP3   OH245576   3.764   3.049   0.668  0.4954 -0.1086  0.3120
 8054TIP3    H145577   3.752   3.031   0.761  0.1337  0.2484  0.3331
 8054TIP3    H245578   3.859   3.045   0.655  0.8569  2.9021  1.3215
 8055TIP3   OH245579   0.446   5.719   9.926 -0.4869  0.3221 -0.0085
 8055TIP3    H145580   0.490   5.789   9.974 -0.6823  0.1925  0.3648
 8055TIP3    H245581   0.358   5.716   9.964 -0.0123 -1.1780  1.0871
 8056TIP3   OH245582   3.794   2.249  12.769 -0.0168  0.5581 -0.1315
 8056TIP3    H145583   3.844   2.295  12.837  0.7773 -2.0245  1.1599
 8056TIP3    H245584   3.850   2.177  12.742 -1.9144 -0.8094 -0.6446
 8057TIP3   OH245585   6.183   6.340   5.271 -0.1634 -0.2358  0.1767
 8057TIP3    H145586   6.125   6.410   5.241 -1.4728 -1.5138 -0.3694
 8057TIP3    H245587   6.148   6.314   5.356 -0.1326 -0.7240  0.0456
 8058TIP3   OH245588   4.997   5.970  12.489  0.6312  0.4571  0.1241
 8058TIP3    H145589   5.026   5.909  12.422  1.4272 -0.5808  1.3593
 8058TIP3    H245590   5.058   6.044  12.483 -0.3737  1.1999 -1.4179
 8059TIP3   OH245591   3.620   5.705   5.598  0.4431 -0.1644 -0.0024
 8059TIP3    H145592   3.677   5.713   5.522  1.0107  0.1341  0.4460
 8059TIP3    H245593   3.647   5.623   5.639  0.8894  0.2123  0.4751
 8060TIP3   OH245594   3.173   0.224  11.766 -0.2540 -0.2540 -0.1830
 8060TIP3    H145595   3.096   0.194  11.813  0.4399 -1.7602  0.0445
 8060TIP3    H245596   3.237   0.242  11.834 -0.0874  0.0816 -0.4223
 8061TIP3   OH245597   3.873   2.554  15.471  0.1120 -0.4187 -0.2762
 8061TIP3    H145598   3.786   2.553  15.512  0.8959  1.5848  1.6675
 8061TIP3    H245599   3.923   2.490  15.521  0.2909 -0.0561  0.0181
 8062TIP3   OH245600   5.694   3.897   0.812  0.4726 -0.3353  0.5202
 8062TIP3    H145601   5.676   3.811   0.773  0.1202 -0.4587  0.9538
 8062TIP3    H245602   5.626   3.909   0.878 -0.3792  0.9237 -0.5200
 8063TIP3   OH245603   1.533   5.058  15.229 -0.4405  0.6691 -0.2973
 8063TIP3    H145604   1.521   5.092  15.317 -0.2268 -0.8243  0.3392
 8063TIP3    H245605   1.490   5.122  15.172 -0.7426  1.5567  0.8959
 8064TIP3   OH245606   4.922   3.800  10.583  0.0553 -0.0025 -0.3007
 8064TIP3    H145607   4.874   3.830  10.660  2.3841 -1.1746  1.7645
 8064TIP3    H245608   5.001   3.854  10.581  1.0427 -1.3848 -0.5560
 8065TIP3   OH245609   5.931   4.187   1.670  0.1975  0.8464 -0.0839
 8065TIP3    H145610   5.899   4.224   1.752 -0.2523 -0.4603  0.3643
 8065TIP3    H245611   5.967   4.261   1.623  1.1333  1.5277  1.6015
 8066TIP3   OH245612   4.576   3.054   4.063 -0.4139  0.0592  0.0116
 8066TIP3    H145613   4.643   3.079   4.126  0.3919 -0.9936 -0.4002
 8066TIP3    H245614   4.505   3.018   4.115 -0.6495  1.1102  0.4458
 8067TIP3   OH245615   2.257   3.193  11.572 -0.1754 -0.0455  0.2191
 8067TIP3    H145616   2.220   3.202  11.660  1.3536  0.0499  0.8827
 8067TIP3    H245617   2.192   3.235  11.515 -0.9520  0.3700  1.3561
 8068TIP3   OH245618   1.706   4.846   0.651 -0.3353 -0.2879  0.2389
 8068TIP3    H145619   1.771   4.904   0.692 -2.1053  0.2912  2.4500
 8068TIP3    H245620   1.738   4.832   0.562  2.9156 -0.2349  1.2743
 8069TIP3   OH245621   5.946   2.942  14.887  0.0700  0.4783 -1.1729
 8069TIP3    H145622   6.032   2.934  14.844 -0.0442  0.0872 -1.3395
 8069TIP3    H245623   5.915   2.851  14.894  0.5542  0.4069  0.7090
 8070TIP3   OH245624   2.644   2.171   5.473 -0.4296 -0.5478  0.1537
 8070TIP3    H145625   2.655   2.264   5.454  0.7409 -0.7275 -0.0863
 8070TIP3    H245626   2.641   2.129   5.387 -1.2668 -0.7091  0.2537
 8071TIP3   OH245627   6.799   5.167  10.516  0.0921 -0.5361  0.6486
 8071TIP3    H145628   6.796   5.171  10.420 -0.0488  0.4833  0.6843
 8071TIP3    H245629   6.892   5.152  10.536  0.2140 -0.1885  0.3636
 8072TIP3   OH245630   0.484   6.388  10.763 -1.0297 -0.8567  0.1861
 8072TIP3    H145631   0.560   6.363  10.711 -0.0489  0.8793  0.7097
 8072TIP3    H245632   0.425   6.431  10.701 -0.4018  0.1114  0.2304
 8073TIP3   OH245633   2.969   6.699   4.926 -0.3937 -0.1972 -0.1973
 8073TIP3    H145634   2.953   6.755   4.850  0.0842  2.6431  1.6386
 8073TIP3    H245635   3.038   6.639   4.896  0.8071  1.7479 -1.6657
 8074TIP3   OH245636   6.403   2.735   2.170 -0.4246  0.1754  0.1261
 8074TIP3    H145637   6.337   2.803   2.180 -0.4434  0.1602  0.1067
 8074TIP3    H245638   6.405   2.690   2.255 -2.6554 -1.8379 -0.7878
 8075TIP3   OH245639   3.541   1.697   2.291  0.4470 -0.2763  0.1261
 8075TIP3    H145640   3.495   1.778   2.311  1.6655  0.2741  0.8251
 8075TIP3    H245641   3.613   1.694   2.355 -0.6900 -2.8869  1.4394
 8076TIP3   OH245642   4.508   2.136  11.944 -0.3295  0.0741  0.1991
 8076TIP3    H145643   4.457   2.056  11.958 -1.7550  0.8422 -0.3600
 8076TIP3    H245644   4.467   2.200  12.002  0.9342  0.3634  0.8037
 8077TIP3   OH245645   5.505   0.114   3.418 -0.5999 -0.1177 -0.0644
 8077TIP3    H145646   5.427   0.130   3.472 -0.1922  1.3999  0.1239
 8077TIP3    H245647   5.568   0.179   3.449  0.9609 -1.6833  0.1752
 8078TIP3   OH245648   1.586   1.661   4.668  0.0321  0.4403 -0.4591
 8078TIP3    H145649   1.595   1.587   4.608  1.3261 -0.7489  1.1109
 8078TIP3    H245650   1.668   1.709   4.658  0.3709  0.0803  0.5344
 8079TIP3   OH245651   4.268   4.265   5.864 -0.3539 -0.1589  0.2924
 8079TIP3    H145652   4.329   4.338   5.874 -0.7784  0.0220  1.9639
 8079TIP3    H245653   4.218   4.285   5.785  0.7455  0.4330 -0.2750
 8080TIP3   OH245654   5.365   4.611   3.042  0.1315 -0.1177  0.7758
 8080TIP3    H145655   5.287   4.561   3.066 -0.9030  1.1779  0.2051
 8080TIP3    H245656   5.356   4.627   2.948  0.9953  0.2073  0.7334
 8081TIP3   OH245657   0.053   0.250   0.295  0.8182  0.2907 -0.7421
 8081TIP3    H145658   0.057   0.345   0.291  1.6276  0.2984 -0.1376
 8081TIP3    H245659  -0.039   0.228   0.279  0.0504  1.3313  1.7382
 8082TIP3   OH245660   1.369   6.724  15.203 -0.4951  0.3632  0.3050
 8082TIP3    H145661   1.418   6.652  15.241 -1.6108 -0.4947  0.1725
 8082TIP3    H245662   1.296   6.682  15.157  0.1391  1.4217 -1.8025
 8083TIP3   OH245663   5.943   3.379  16.662  0.8598 -0.0185 -0.5659
 8083TIP3    H145664   6.003   3.332  16.720 -1.0883  0.1483  1.7704
 8083TIP3    H245665   5.921   3.315  16.594  0.9265 -1.3296  0.5918
 8084TIP3   OH245666   1.997   4.998   4.966 -0.4780  0.6585 -0.1030
 8084TIP3    H145667   2.018   5.063   5.033 -0.9030  0.6415  0.0489
 8084TIP3    H245668   2.066   5.009   4.900 -0.8789  1.6882 -0.3768
 8085TIP3   OH245669   2.611   3.589   0.689 -0.3248 -0.2766 -0.7486
 8085TIP3    H145670   2.683   3.530   0.665  0.4042  0.0183  0.6211
 8085TIP3    H245671   2.535   3.531   0.698 -0.4253 -0.5166 -2.7360
 8086TIP3   OH245672   4.551   4.518  12.952  0.1803 -0.7360  0.3422
 8086TIP3    H145673   4.522   4.494  12.864  0.8421 -2.3886  0.5256
 8086TIP3    H245674   4.522   4.444  13.007 -0.4452  0.3723  1.5708
 8087TIP3   OH245675   2.067   4.894  13.494 -0.3163 -0.5070 -0.2258
 8087TIP3    H145676   2.138   4.883  13.558  0.0136 -1.5713 -0.7623
 8087TIP3    H245677   1.999   4.834  13.525 -0.1885 -0.9614 -0.8121
 8088TIP3   OH245678   0.387   3.253  15.578  0.2841  0.0574  0.0340
 8088TIP3    H145679   0.468   3.294  15.610  1.1672 -0.4131 -1.5281
 8088TIP3    H245680   0.401   3.159  15.589  0.1457 -0.0529 -0.6919
 8089TIP3   OH245681   4.386   0.678   1.846 -0.7506 -0.3276 -1.0371
 8089TIP3    H145682   4.350   0.591   1.829  0.9118 -0.9567 -1.5189
 8089TIP3    H245683   4.367   0.694   1.938  0.1792 -1.8468 -0.5456
 8090TIP3   OH245684   3.116   0.746  12.166 -0.0479  0.0261 -0.2489
 8090TIP3    H145685   3.057   0.715  12.097  0.8239 -0.8443 -0.6301
 8090TIP3    H245686   3.174   0.672  12.182  1.7579  1.2589 -0.7788
 8091TIP3   OH245687   4.495   5.154   6.705 -0.0347 -0.1474  0.2525
 8091TIP3    H145688   4.563   5.100   6.664 -0.1822  0.1994 -0.4693
 8091TIP3    H245689   4.541   5.231   6.737  0.1225 -0.5413  0.9772
 8092TIP3   OH245690   3.096   3.871   3.051 -0.1890 -0.2246 -0.2244
 8092TIP3    H145691   3.152   3.916   2.988 -1.2385  1.6756  0.1540
 8092TIP3    H245692   3.077   3.787   3.009 -0.0383  0.5681 -1.9863
 8093TIP3   OH245693   0.061   1.574   5.510 -0.1035 -0.1752 -0.1078
 8093TIP3    H145694   0.044   1.560   5.417  2.0321  0.7573 -0.6993
 8093TIP3    H245695   0.154   1.555   5.521 -0.0232  0.9238  1.5868
 8094TIP3   OH245696   6.208   3.435   4.148 -0.0204  0.1494 -0.0170
 8094TIP3    H145697   6.220   3.529   4.165  1.2393 -0.1687  1.0775
 8094TIP3    H245698   6.140   3.408   4.210 -1.1886  0.5352 -1.1036
 8095TIP3   OH245699   1.104   1.485   1.324 -0.4157  0.3851  0.0651
 8095TIP3    H145700   1.060   1.502   1.240  0.5008  0.4033 -0.4275
 8095TIP3    H245701   1.161   1.561   1.337 -0.0044  0.0367  0.3280
 8096TIP3   OH245702   1.857   5.829   5.605 -0.5485  0.3965 -0.2108
 8096TIP3    H145703   1.827   5.751   5.558  0.3500  0.2236 -0.5296
 8096TIP3    H245704   1.778   5.865   5.645 -0.7516 -1.5691  1.2888
 8097TIP3   OH245705   5.093   1.998  13.781 -0.6355  0.0549  0.0509
 8097TIP3    H145706   5.140   2.081  13.782  1.8827 -1.2814  1.5017
 8097TIP3    H245707   5.028   2.008  13.711  1.1302  2.4009 -1.3915
 8098TIP3   OH245708   3.393   2.698  12.136  0.2273  0.5281 -0.9290
 8098TIP3    H145709   3.394   2.608  12.104  0.3601  0.3153 -0.3355
 8098TIP3    H245710   3.314   2.736  12.097 -1.1401 -0.5365  0.6357
 8099TIP3   OH245711   5.703   3.229  10.802 -0.0592 -0.4304 -0.0192
 8099TIP3    H145712   5.627   3.272  10.763 -0.8398 -0.9791  0.8385
 8099TIP3    H245713   5.748   3.189  10.729 -0.8809 -0.5139 -0.4934
 8100TIP3   OH245714   0.190   2.385  11.921  0.2160 -0.2193  0.5165
 8100TIP3    H145715   0.175   2.405  12.013 -0.6587 -0.3425  0.4110
 8100TIP3    H245716   0.247   2.455  11.890 -0.1964  0.3076  0.9399
 8101TIP3   OH245717   3.745   0.770  13.688  0.2360 -0.2028 -0.0112
 8101TIP3    H145718   3.716   0.815  13.768 -0.1791  0.7196 -0.6525
 8101TIP3    H245719   3.689   0.693  13.682 -0.6631  0.4362 -0.0983
 8102TIP3   OH245720   5.392   6.301   4.116 -0.2024 -0.5516  0.6598
 8102TIP3    H145721   5.376   6.238   4.187  1.4664 -0.7974  0.8515
 8102TIP3    H245722   5.437   6.250   4.049 -2.8055 -0.6327 -1.1669
 8103TIP3   OH245723   1.272   5.848  11.266 -0.0447  0.1224  0.6204
 8103TIP3    H145724   1.198   5.791  11.286  0.6203 -0.8395  0.4655
 8103TIP3    H245725   1.234   5.924  11.222 -1.0410  0.1868  1.5656
 8104TIP3   OH245726   6.351   6.173   4.488 -0.1362  0.3916  0.2615
 8104TIP3    H145727   6.379   6.225   4.564 -1.8990 -0.4002  1.5239
 8104TIP3    H245728   6.339   6.085   4.523  1.3146 -0.5605 -1.5081
 8105TIP3   OH245729   1.366   6.173   0.980  0.6260 -0.3024  0.4257
 8105TIP3    H145730   1.341   6.184   0.888  2.3895  0.6735  0.0030
 8105TIP3    H245731   1.436   6.237   0.993  0.7317 -0.7474  2.3374
 8106TIP3   OH245732   0.208   3.067  16.142  0.2611 -0.2353 -0.7515
 8106TIP3    H145733   0.138   3.022  16.190 -0.7356  1.0608 -0.9326
 8106TIP3    H245734   0.216   3.017  16.060 -0.2388 -0.5862 -0.5967
 8107TIP3   OH245735   1.908   6.497  13.652 -0.3808 -0.3943  0.7046
 8107TIP3    H145736   1.987   6.463  13.610  0.2557 -0.0864  1.6307
 8107TIP3    H245737   1.903   6.452  13.736 -1.4512 -0.7470  0.4589
 8108TIP3   OH245738   0.532   6.085   3.903  0.4862 -0.4363  0.2876
 8108TIP3    H145739   0.623   6.110   3.921 -0.3328  0.7366  3.6239
 8108TIP3    H245740   0.522   6.001   3.949 -0.0572 -0.7289 -0.3549
 8109TIP3   OH245741   1.482   5.675  15.131  0.1661 -0.6556  0.0147
 8109TIP3    H145742   1.511   5.613  15.198  1.4927  0.7642  0.8320
 8109TIP3    H245743   1.552   5.673  15.065 -0.3096 -0.8031 -0.4952
 8110TIP3   OH245744   4.600   1.187  12.828  0.0008  0.3338 -0.3041
 8110TIP3    H145745   4.692   1.190  12.856 -0.2668 -1.6443  0.9613
 8110TIP3    H245746   4.595   1.112  12.769 -1.0447 -0.3538  0.6356
 8111TIP3   OH245747   5.525   5.692  11.377  0.1626 -0.1280 -0.2343
 8111TIP3    H145748   5.584   5.740  11.434  0.4592 -0.7446 -0.0103
 8111TIP3    H245749   5.495   5.618  11.430  0.8359 -0.9907 -1.0318
 8112TIP3   OH245750   4.198   5.001   5.972 -0.1766 -0.1891  0.2271
 8112TIP3    H145751   4.226   4.916   6.007 -1.8215 -0.9372 -0.1665
 8112TIP3    H245752   4.110   5.013   6.008  0.4986  1.9778  1.2955
 8113TIP3   OH245753   4.494   1.774   1.153 -0.5161  0.6369 -0.4113
 8113TIP3    H145754   4.518   1.803   1.065  0.6079 -2.0726 -1.1197
 8113TIP3    H245755   4.514   1.680   1.153  0.0431  0.6313  2.9214
 8114TIP3   OH245756   3.546   4.124   2.678  0.1485 -0.2141 -0.6685
 8114TIP3    H145757   3.465   4.116   2.628 -0.0337  0.9846 -0.5859
 8114TIP3    H245758   3.575   4.034   2.691 -1.5843 -0.6943  0.0160
 8115TIP3   OH245759   1.713   0.724   4.477  0.2258  0.1134 -0.6022
 8115TIP3    H145760   1.653   0.781   4.428  1.2316  1.1971 -0.6231
 8115TIP3    H245761   1.707   0.757   4.567  1.9655  1.3209 -0.8835
 8116TIP3   OH245762   0.704   4.445   1.763 -0.2217  0.3518 -0.4722
 8116TIP3    H145763   0.639   4.514   1.751  0.4744  1.0248 -0.4752
 8116TIP3    H245764   0.787   4.485   1.736  0.1246 -0.6427 -0.9519
 8117TIP3   OH245765   5.644   3.011   5.319  0.4102  0.0912 -0.7866
 8117TIP3    H145766   5.586   2.985   5.247 -0.1332 -1.1999  0.1015
 8117TIP3    H245767   5.732   3.004   5.282  0.1997 -1.6366 -1.0119
 8118TIP3   OH245768   4.999   6.572   0.710  0.0265  0.3664  0.8823
 8118TIP3    H145769   5.014   6.602   0.620 -1.4599 -0.1006  0.4520
 8118TIP3    H245770   5.069   6.508   0.726  0.6007  0.8184  0.2487
 8119TIP3   OH245771   2.970   1.406  16.819  0.4835 -0.2302  0.4012
 8119TIP3    H145772   2.946   1.339  16.883 -0.0773  0.0485  0.4900
 8119TIP3    H245773   3.006   1.357  16.745  0.9161 -0.5701  0.8289
 8120TIP3   OH245774   2.765   3.692   5.054 -0.3987  0.3900 -0.4377
 8120TIP3    H145775   2.692   3.736   5.011  0.2110  0.7126 -1.1509
 8120TIP3    H245776   2.748   3.599   5.038 -0.9415  0.4296 -0.1274
 8121TIP3   OH245777   1.839   4.294  11.479  0.4129  0.4544 -0.1462
 8121TIP3    H145778   1.824   4.365  11.542  3.7162  0.3953  0.8854
 8121TIP3    H245779   1.933   4.297  11.461  0.1406 -1.7289 -2.5008
 8122TIP3   OH245780   0.683   3.623   5.182 -0.2215 -0.0382 -0.3715
 8122TIP3    H145781   0.684   3.699   5.123  1.3162 -1.3425 -2.1332
 8122TIP3    H245782   0.734   3.651   5.257  0.4954  0.6204 -1.0872
 8123TIP3   OH245783   5.511   6.432   0.604  0.1079  0.1601  0.7377
 8123TIP3    H145784   5.553   6.384   0.532  0.4513  1.4837  0.0317
 8123TIP3    H245785   5.547   6.391   0.683  0.7612 -0.4289  0.1595
 8124TIP3   OH245786   3.109   0.069  15.382  0.0120 -0.8191 -0.0557
 8124TIP3    H145787   3.109   0.145  15.440  0.0780 -0.9742  0.1487
 8124TIP3    H245788   3.194   0.073  15.338  0.0016 -0.7561 -0.0695
 8125TIP3   OH245789   6.610   0.878  17.087 -0.3145 -0.5593  0.1478
 8125TIP3    H145790   6.639   0.951  17.143  0.0537 -0.7913  0.2630
 8125TIP3    H245791   6.531   0.911  17.044 -0.3696 -0.2290  0.4931
 8126TIP3   OH245792   4.534   6.388  16.507 -0.7147  0.0450  0.1142
 8126TIP3    H145793   4.617   6.371  16.463 -0.8503 -0.2740 -0.0153
 8126TIP3    H245794   4.543   6.477  16.542  0.5981 -0.8286  2.1567
 8127TIP3   OH245795   4.448   6.658  10.364  0.4681 -0.6089 -0.1283
 8127TIP3    H145796   4.497   6.738  10.345 -0.6205 -0.1463 -1.0895
 8127TIP3    H245797   4.502   6.612  10.428  0.9332  1.0932  0.7823
 8128TIP3   OH245798   2.173   1.259  16.478 -0.2499  0.3704 -0.0598
 8128TIP3    H145799   2.265   1.264  16.506  0.1853  1.4419 -1.5804
 8128TIP3    H245800   2.160   1.337  16.424 -2.0778  0.2456  0.1542
 8129TIP3   OH245801   4.197   5.235   2.901  0.0345 -0.3131  0.2672
 8129TIP3    H145802   4.114   5.271   2.933  1.9354  2.8274  2.2190
 8129TIP3    H245803   4.222   5.294   2.830  1.9061  0.6592  1.6589
 8130TIP3   OH245804   5.342   2.194  13.655 -0.2151 -0.0206  0.1703
 8130TIP3    H145805   5.435   2.185  13.633 -0.2728 -1.0791  0.3302
 8130TIP3    H245806   5.308   2.255  13.588  0.7594  1.0798  0.6413
 8131TIP3   OH245807   1.877   3.598   2.507  0.4435 -0.5911 -0.1891
 8131TIP3    H145808   1.801   3.602   2.449  1.1289 -0.9525 -1.1450
 8131TIP3    H245809   1.868   3.514   2.553 -0.1261 -0.2819  0.2817
 8132TIP3   OH245810   1.611   3.027  15.831 -0.1175  0.6742  0.3558
 8132TIP3    H145811   1.698   3.067  15.828  0.1310  0.1565 -2.8588
 8132TIP3    H245812   1.562   3.072  15.763 -0.7209 -2.3958 -1.4471
 8133TIP3   OH245813   0.344   4.780   5.406 -0.0711 -0.7260  0.2730
 8133TIP3    H145814   0.295   4.722   5.466 -0.3455  0.0843  0.8455
 8133TIP3    H245815   0.325   4.868   5.438 -1.1833 -0.1969 -1.7271
 8134TIP3   OH245816   6.068   0.203  12.576 -0.7715 -0.3617  0.1282
 8134TIP3    H145817   6.105   0.181  12.490 -0.4302  0.4207  0.0664
 8134TIP3    H245818   6.116   0.147  12.637  1.8703  1.7941  0.2690
 8135TIP3   OH245819   4.926   3.677  13.716 -0.2162  0.2110  0.3216
 8135TIP3    H145820   4.880   3.758  13.736 -1.6372 -0.3090 -0.5992
 8135TIP3    H245821   4.884   3.645  13.636 -0.6858 -2.1198  1.3910
 8136TIP3   OH245822   4.662   3.387   3.975  0.3160 -0.1982  0.2860
 8136TIP3    H145823   4.586   3.435   3.942  0.3348  0.2772  0.9231
 8136TIP3    H245824   4.730   3.453   3.987  0.5100 -0.4605  0.6677
 8137TIP3   OH245825   4.623   5.809   5.008 -0.0435  0.3378 -0.5615
 8137TIP3    H145826   4.568   5.867   4.955  0.3206  2.5475  1.3292
 8137TIP3    H245827   4.560   5.751   5.052 -0.5273  0.2196 -1.3862
 8138TIP3   OH245828   5.592   4.115   6.042  0.5628 -0.3645  0.3322
 8138TIP3    H145829   5.529   4.159   6.098  1.5575  0.8696  0.5170
 8138TIP3    H245830   5.551   4.031   6.021 -0.1515 -0.5557  2.3030
 8139TIP3   OH245831   3.214   2.782  14.576  0.1696 -0.0260 -0.0608
 8139TIP3    H145832   3.261   2.711  14.531 -0.0190  0.2116 -0.6535
 8139TIP3    H245833   3.213   2.853  14.512 -0.5692  0.1352  0.1228
 8140TIP3   OH245834   2.065   3.221   3.235 -0.1709 -0.5352  0.2293
 8140TIP3    H145835   2.023   3.306   3.228  0.9924  0.1122  0.8899
 8140TIP3    H245836   1.997   3.163   3.270 -0.5509  0.4490  1.1561
 8141TIP3   OH245837   0.921   2.526  12.763  0.2226  0.1764  0.1165
 8141TIP3    H145838   0.955   2.438  12.778 -1.7450 -0.6310  0.2085
 8141TIP3    H245839   0.894   2.525  12.671 -0.5180  0.3990  0.3257
 8142TIP3   OH245840   1.985   3.209   0.094  0.0603 -0.1875  0.3194
 8142TIP3    H145841   1.983   3.122   0.054  1.4782  0.5565 -1.5819
 8142TIP3    H245842   2.078   3.223   0.115 -0.2017  0.7248  0.9260
 8143TIP3   OH245843   0.835   6.767  15.236  0.0365  0.4567  0.5424
 8143TIP3    H145844   0.822   6.853  15.276  0.1978 -0.2562  2.1720
 8143TIP3    H245845   0.894   6.721  15.295 -0.4648 -0.9778 -0.0323
 8144TIP3   OH245846   1.709   5.896  15.366  0.3545  0.0886 -0.1473
 8144TIP3    H145847   1.764   5.830  15.323  1.0570  0.8761 -0.4707
 8144TIP3    H245848   1.771   5.957  15.405 -0.2969  0.4468  0.3318
 8145TIP3   OH245849   1.770   1.660  15.098 -0.4543  0.2587 -0.3848
 8145TIP3    H145850   1.732   1.599  15.034  1.1738 -2.1755  0.8183
 8145TIP3    H245851   1.719   1.646  15.177 -1.5704  2.2546 -0.7025
 8146TIP3   OH245852   4.561   6.765   4.306 -0.3582  0.5245  0.4778
 8146TIP3    H145853   4.605   6.720   4.234  0.8817  0.1631  1.4370
 8146TIP3    H245854   4.490   6.813   4.263 -0.0917 -0.2365 -0.8938
 8147TIP3   OH245855   0.918   5.689   0.678  0.2694 -0.7876  0.0941
 8147TIP3    H145856   0.941   5.697   0.585  1.2275 -0.1444  0.3660
 8147TIP3    H245857   1.002   5.682   0.723 -0.2012 -1.6948  0.8752
 8148TIP3   OH245858   5.529   2.899   1.434  0.4134  0.5316  0.4712
 8148TIP3    H145859   5.621   2.893   1.407  0.4027 -1.4216  0.6847
 8148TIP3    H245860   5.480   2.904   1.352  0.6946  1.9199  0.3636
 8149TIP3   OH245861   5.903   6.599  14.950 -0.1598  0.1693 -0.0479
 8149TIP3    H145862   5.950   6.613  15.032  0.2600  1.3678 -0.4790
 8149TIP3    H245863   5.952   6.650  14.885 -1.7884  1.0866 -0.5984
 8150TIP3   OH245864   3.380   5.125   3.069  0.7957  0.1135  0.1894
 8150TIP3    H145865   3.302   5.106   3.016 -0.6705  1.2756  1.8386
 8150TIP3    H245866   3.410   5.038   3.098  1.2290 -0.4919 -1.9143
 8151TIP3   OH245867   4.134   0.885   0.723 -0.1132 -0.0330  0.1603
 8151TIP3    H145868   4.165   0.840   0.644  2.0574  1.4856  0.0549
 8151TIP3    H245869   4.171   0.973   0.716 -0.8096  0.4960  2.3572
 8152TIP3   OH245870   4.579   3.227  16.539  0.3532 -0.9172  0.2583
 8152TIP3    H145871   4.645   3.158  16.551  3.2515  1.5702 -0.1751
 8152TIP3    H245872   4.621   3.291  16.481 -3.4220 -0.2532 -2.1007
 8153TIP3   OH245873   2.805   0.183  12.183 -0.2352  0.0867  0.3554
 8153TIP3    H145874   2.777   0.194  12.273 -0.3368  0.7428  0.2452
 8153TIP3    H245875   2.776   0.262  12.138 -2.3008 -1.2286 -0.7998
 8154TIP3   OH245876   3.872   3.166   4.236 -0.3813 -0.6710 -0.4276
 8154TIP3    H145877   3.863   3.074   4.259 -1.0238 -0.7327 -0.9207
 8154TIP3    H245878   3.915   3.166   4.151  1.8393 -0.4413  0.6176
 8155TIP3   OH245879   3.537   1.541   1.465  0.0621  0.7763 -0.0546
 8155TIP3    H145880   3.609   1.571   1.521 -0.9093  2.3628  0.4122
 8155TIP3    H245881   3.543   1.596   1.387  1.1714 -1.1699 -1.4200
 8156TIP3   OH245882   0.029   3.179  15.955 -0.1105 -0.2796  0.3111
 8156TIP3    H145883   0.105   3.216  15.999  0.2524 -0.7728  0.0990
 8156TIP3    H245884   0.008   3.099  16.004  0.9388 -1.4130 -1.0066
 8157TIP3   OH245885   5.588   0.636   0.064  0.6616  0.0916 -0.0693
 8157TIP3    H145886   5.574   0.645   0.159  0.7718 -1.1252  0.0775
 8157TIP3    H245887   5.572   0.544   0.046 -2.4259  0.7866 -1.7633
 8158TIP3   OH245888   3.863   2.714   5.696 -0.4852  0.4752  1.1890
 8158TIP3    H145889   3.953   2.687   5.709 -0.4551 -0.4090 -0.5330
 8158TIP3    H245890   3.811   2.635   5.715 -0.5453 -0.3302 -1.8343
 8159TIP3   OH245891   0.170   3.264  11.722  0.3276  0.3586  0.1477
 8159TIP3    H145892   0.200   3.175  11.702  0.4741  0.1196  1.3535
 8159TIP3    H245893   0.154   3.304  11.636  0.9782 -0.5809 -0.4272
 8160TIP3   OH245894   0.467   2.033  14.348 -0.4465 -0.2786  0.8562
 8160TIP3    H145895   0.446   1.945  14.377  0.1647 -0.1104  1.8786
 8160TIP3    H245896   0.554   2.050  14.385  0.0175  0.2645 -0.4276
 8161TIP3   OH245897   1.753   1.480   4.451  0.3877 -0.5359 -1.0220
 8161TIP3    H145898   1.707   1.488   4.367 -0.2245 -1.7418 -0.8245
 8161TIP3    H245899   1.763   1.385   4.463 -3.2774 -0.7400  2.2491
 8162TIP3   OH245900   1.049   0.537  11.525 -0.4405 -0.4695 -0.5367
 8162TIP3    H145901   0.973   0.585  11.491  0.1978 -0.2625 -1.7192
 8162TIP3    H245902   1.023   0.511  11.613 -0.7727  2.2312  0.2699
 8163TIP3   OH245903   0.514   1.844  13.717  0.5234 -0.0866 -0.3394
 8163TIP3    H145904   0.474   1.871  13.635 -0.9438 -3.2911 -0.8394
 8163TIP3    H245905   0.440   1.833  13.777  1.0814 -1.8474  0.0839
 8164TIP3   OH245906   5.565   5.070   3.097  0.1878 -0.7732  0.6930
 8164TIP3    H145907   5.488   5.024   3.129 -1.5457 -0.1430 -2.2176
 8164TIP3    H245908   5.612   5.004   3.046 -0.3778 -0.2773 -0.4958
 8165TIP3   OH245909   2.846   1.942   1.163 -0.6714  0.5847 -0.4235
 8165TIP3    H145910   2.798   2.007   1.113 -0.4902  0.5242 -0.6778
 8165TIP3    H245911   2.820   1.957   1.254  0.2830  1.7941 -0.3359
 8166TIP3   OH245912   0.430   0.111  10.319  0.0981  0.2999 -0.1431
 8166TIP3    H145913   0.474   0.062  10.249 -0.5006 -1.0457  0.3765
 8166TIP3    H245914   0.401   0.043  10.380  1.5135  1.4518  1.9620
 8167TIP3   OH245915   2.056   2.359   5.849 -0.4477  0.3652 -0.6757
 8167TIP3    H145916   1.964   2.384   5.843 -0.4077  1.2101  1.3918
 8167TIP3    H245917   2.101   2.439   5.879  0.4880 -0.7583  1.1410
 8168TIP3   OH245918   5.455   5.764   1.989  0.2649 -0.2194 -0.3231
 8168TIP3    H145919   5.421   5.704   2.056  1.2551  0.2988  0.6886
 8168TIP3    H245920   5.545   5.733   1.973  0.7952  0.9622  0.2229
 8169TIP3   OH245921   3.823   1.258  14.336  0.2759 -0.5380  0.1477
 8169TIP3    H145922   3.793   1.328  14.278 -1.6951 -1.7602 -0.3811
 8169TIP3    H245923   3.917   1.251  14.318 -0.0792 -0.1894 -2.1830
 8170TIP3   OH245924   5.066   2.581  16.503  0.0887 -0.4512 -0.4282
 8170TIP3    H145925   5.019   2.647  16.553  0.7275  0.9111 -1.5358
 8170TIP3    H245926   5.118   2.534  16.568  0.3166  0.7511  0.2962
 8171TIP3   OH245927   5.140   4.750   0.343 -0.1806  0.1578  0.5686
 8171TIP3    H145928   5.226   4.715   0.365 -0.9856 -1.9809  0.5052
 8171TIP3    H245929   5.159   4.823   0.283  1.5737 -0.4776  0.2728
 8172TIP3   OH245930   2.254   0.530   3.989  0.0071 -0.7355  0.1629
 8172TIP3    H145931   2.171   0.481   3.990  0.0399 -0.8478 -1.1695
 8172TIP3    H245932   2.269   0.550   3.897  1.4697 -0.7025  0.3848
 8173TIP3   OH245933   1.577   4.290  11.900  0.6298 -0.3510 -0.4777
 8173TIP3    H145934   1.558   4.365  11.843  2.0840  1.3671  1.1575
 8173TIP3    H245935   1.616   4.225  11.842 -0.1096  0.3716 -1.8370
 8174TIP3   OH245936   2.448   3.815   2.339  0.1927  0.4348  0.2157
 8174TIP3    H145937   2.427   3.842   2.428 -1.6661 -1.3878  0.4239
 8174TIP3    H245938   2.381   3.750   2.317 -0.4553  2.0113 -3.1523
 8175TIP3   OH245939   3.347   4.983  15.599  0.5401 -0.0008 -0.1422
 8175TIP3    H145940   3.325   5.062  15.549 -0.7335 -0.1197  0.2085
 8175TIP3    H245941   3.327   4.911  15.539  0.3417 -0.0986  0.0408
 8176TIP3   OH245942   1.531   5.755  15.684  0.6316  0.1207  0.8066
 8176TIP3    H145943   1.554   5.668  15.651 -0.2197 -0.0894  0.7476
 8176TIP3    H245944   1.487   5.739  15.767 -1.1104  0.3479 -0.0177
 8177TIP3   OH245945   3.153   0.545   3.619  0.3377  0.1424 -0.4985
 8177TIP3    H145946   3.232   0.535   3.568  0.3880 -1.5211 -0.1258
 8177TIP3    H245947   3.091   0.483   3.582 -0.1951  0.1335  0.3549
 8178TIP3   OH245948   4.206   6.203   0.095  0.7432 -0.8287  0.0125
 8178TIP3    H145949   4.166   6.118   0.078 -3.5084  0.7368  0.8886
 8178TIP3    H245950   4.224   6.204   0.189 -1.7165  0.0391  0.5379
 8179TIP3   OH245951   3.383   1.653  16.700 -0.5346 -0.8811  0.7892
 8179TIP3    H145952   3.464   1.664  16.649  1.1635 -2.3756  2.9519
 8179TIP3    H245953   3.314   1.649  16.635  1.4933 -2.6324 -1.4686
 8180TIP3   OH245954   1.974   4.475   2.962  0.0794  0.2288  0.4529
 8180TIP3    H145955   1.996   4.563   2.992  0.0023 -0.0074  1.2127
 8180TIP3    H245956   2.022   4.417   3.020  1.7995 -0.2323 -1.3319
 8181TIP3   OH245957   5.567   4.303   5.084 -0.4869  0.3054  0.0088
 8181TIP3    H145958   5.552   4.243   5.157 -1.7531 -1.3495 -1.5180
 8181TIP3    H245959   5.622   4.254   5.023 -0.7018  1.0822 -0.8374
 8182TIP3   OH245960   3.693   5.849  13.569 -0.5753  0.3332  0.0955
 8182TIP3    H145961   3.766   5.846  13.508 -0.5264  3.2852 -0.1077
 8182TIP3    H245962   3.727   5.809  13.649  1.1116  1.2146 -0.1424
 8183TIP3   OH245963   0.577   6.017  10.843  0.2295  0.0351  0.4380
 8183TIP3    H145964   0.601   6.047  10.755 -1.6503 -0.0444 -0.1301
 8183TIP3    H245965   0.590   5.922  10.840 -1.9292 -0.2813 -0.5060
 8184TIP3   OH245966   5.710   1.248  11.487  0.4436 -0.2529 -0.3794
 8184TIP3    H145967   5.627   1.202  11.471  1.0252 -0.6949 -2.4711
 8184TIP3    H245968   5.685   1.340  11.490 -0.2542 -0.4467  0.1034
 8185TIP3   OH245969   4.275   1.206   0.033 -0.5109  0.0090 -0.7757
 8185TIP3    H145970   4.293   1.292   0.069  2.3734  0.6969 -3.4458
 8185TIP3    H245971   4.286   1.146   0.107  0.8676  1.6702  0.4404
 8186TIP3   OH245972   3.972   3.223   4.692 -0.3514  0.6524  0.0804
 8186TIP3    H145973   4.061   3.235   4.723 -0.4621 -1.1666  1.2186
 8186TIP3    H245974   3.977   3.148   4.633 -0.8756  1.5440 -1.1440
 8187TIP3   OH245975   4.317   1.532  12.488 -0.2742 -0.5571 -0.1887
 8187TIP3    H145976   4.331   1.533  12.393 -0.8086 -0.6610 -0.2701
 8187TIP3    H245977   4.235   1.485  12.500  0.7636 -2.3098  0.4542
 8188TIP3   OH245978   2.143   6.482  14.322 -0.2101 -0.0425 -1.0634
 8188TIP3    H145979   2.111   6.572  14.314 -1.0114 -0.2912 -0.7094
 8188TIP3    H245980   2.227   6.483  14.276  1.7312  1.8652  2.1538
 8189TIP3   OH245981   1.751   3.666   2.764 -0.7577 -0.3172 -0.2399
 8189TIP3    H145982   1.763   3.698   2.674 -0.9256 -0.3933 -0.2895
 8189TIP3    H245983   1.699   3.586   2.753  0.4342 -1.1230 -0.2076
 8190TIP3   OH245984   4.995   4.359   6.128 -0.4802 -0.2466  0.0507
 8190TIP3    H145985   4.995   4.454   6.139  1.2115 -0.1341 -0.6341
 8190TIP3    H245986   5.079   4.331   6.165 -1.1257 -1.5370  0.6007
 8191TIP3   OH245987   5.788   2.661  15.303  0.1431 -0.2675 -0.0736
 8191TIP3    H145988   5.776   2.733  15.242 -0.8228 -1.1143 -0.9172
 8191TIP3    H245989   5.879   2.633  15.291  0.3930  0.5277 -0.0405
 8192TIP3   OH245990   4.373   5.003  14.126 -0.6814  0.1860  0.2097
 8192TIP3    H145991   4.426   5.073  14.164 -0.0691  0.2380 -0.7111
 8192TIP3    H245992   4.393   4.926  14.180 -0.1207  0.3493  0.2484
 8193TIP3   OH245993   0.763   1.634   5.310 -0.0970  0.2881 -0.4369
 8193TIP3    H145994   0.756   1.709   5.251  0.6089 -0.0755 -0.9934
 8193TIP3    H245995   0.856   1.631   5.334 -0.2135 -0.1049 -0.0204
 8194TIP3   OH245996   5.445   0.983   2.285 -0.1595  0.1510  0.2066
 8194TIP3    H145997   5.428   0.900   2.240  0.4042  0.0675  0.1441
 8194TIP3    H245998   5.413   1.050   2.225  0.1795  0.0174 -0.1251
 8195TIP3   OH245999   4.325   4.792  13.227 -0.5008  0.1377 -0.0826
 8195TIP3    H146000   4.269   4.868  13.244 -1.0176  0.3680 -2.4963
 8195TIP3    H246001   4.371   4.813  13.146  3.1766 -0.0462  1.7402
 8196TIP3   OH246002   4.144   5.856  14.421 -0.8739  0.7372  1.1313
 8196TIP3    H146003   4.229   5.888  14.450 -0.7285  0.8106  0.6383
 8196TIP3    H246004   4.116   5.920  14.355 -1.6063  1.0684  1.7456
 8197TIP3   OH246005   1.145   4.869   4.408  0.1918  1.0144  0.0773
 8197TIP3    H146006   1.062   4.838   4.443  0.2631 -0.5476 -1.0268
 8197TIP3    H246007   1.208   4.800   4.430  0.3791  0.2956 -2.3776
 8198TIP3   OH246008   5.896   6.299   0.596 -0.1947 -0.1421  0.3231
 8198TIP3    H146009   5.851   6.254   0.667 -0.7830  0.8134  0.5694
 8198TIP3    H246010   5.878   6.392   0.611  1.2895  0.2253  0.0420
 8199TIP3   OH246011   2.585   5.743   6.072 -0.0697 -0.2371 -0.1996
 8199TIP3    H146012   2.662   5.690   6.091  0.5667  0.7458  0.0125
 8199TIP3    H246013   2.603   5.781   5.986  0.0124  0.5836  0.1805
 8200TIP3   OH246014   1.293   6.119  12.617 -0.1315  0.1664  0.1070
 8200TIP3    H146015   1.276   6.202  12.662 -0.3940  0.7290 -0.9978
 8200TIP3    H246016   1.262   6.052  12.678  0.3978  0.8521  1.1686
 8201TIP3   OH246017   5.863   0.401   3.275  0.0216 -0.8485 -0.1278
 8201TIP3    H146018   5.886   0.317   3.315 -0.5683 -0.4761  1.0517
 8201TIP3    H246019   5.777   0.422   3.312  0.3081  0.4310 -0.1504
 8202TIP3   OH246020   4.432   6.779  15.403  0.0258 -0.4679  0.1548
 8202TIP3    H146021   4.357   6.721  15.412  0.6515 -1.4430 -0.6524
 8202TIP3    H246022   4.408   6.857  15.452 -2.5655  0.2919 -2.0249
 8203TIP3   OH246023   1.097   3.384   4.328 -0.1539  0.1451  0.5144
 8203TIP3    H146024   1.036   3.316   4.299 -1.6502  1.5457  0.2072
 8203TIP3    H246025   1.090   3.452   4.261  3.8182 -0.6939 -1.0337
 8204TIP3   OH246026   1.258   3.867  12.942  0.1593  0.1881  0.1027
 8204TIP3    H146027   1.323   3.849  12.875  0.0948  1.4199 -0.3295
 8204TIP3    H246028   1.177   3.882  12.892 -0.0800  0.2592  0.5109
 8205TIP3   OH246029   5.448   3.013  11.440 -0.6276 -0.3887 -0.3099
 8205TIP3    H146030   5.378   3.013  11.376  0.3339  1.3456 -1.4300
 8205TIP3    H246031   5.450   3.102  11.475 -0.5443 -1.0572  1.4991
 8206TIP3   OH246032   4.713   0.774   1.594 -0.4060  0.7784  0.9016
 8206TIP3    H146033   4.640   0.827   1.626 -1.1510  0.4806 -0.2592
 8206TIP3    H246034   4.694   0.685   1.625 -0.8057  0.6061  0.1696
 8207TIP3   OH246035   4.036   0.794   4.030  0.8077 -0.3821 -0.4533
 8207TIP3    H146036   4.021   0.700   4.041 -0.2134  0.0418  2.7969
 8207TIP3    H246037   3.953   0.835   4.054  1.5678  1.3891 -0.6675
 8208TIP3   OH246038   0.377   3.925   4.524  0.2154  0.8875 -0.2327
 8208TIP3    H146039   0.362   3.951   4.434  0.8875 -0.6929 -0.8325
 8208TIP3    H246040   0.397   3.831   4.520 -0.0473  0.7090  1.5864
 8209TIP3   OH246041   4.906   5.986   1.008 -0.1185 -0.0202 -0.1872
 8209TIP3    H146042   4.886   5.946   0.923  1.1030 -1.5281  0.1853
 8209TIP3    H246043   4.994   5.955   1.028  0.1129  1.3509  1.0585
 8210TIP3   OH246044   5.460   1.278  15.493 -0.0499 -0.7277 -0.0516
 8210TIP3    H146045   5.402   1.236  15.430 -1.9168  0.3305  0.8410
 8210TIP3    H246046   5.417   1.265  15.578  1.5111 -0.6708  0.7954
 8211TIP3   OH246047   6.582   2.878  16.475  0.4101 -0.1652  0.7919
 8211TIP3    H146048   6.570   2.924  16.393  0.9938 -1.0954  0.1701
 8211TIP3    H246049   6.526   2.925  16.537 -0.8416 -0.0767 -0.3646
 8212TIP3   OH246050   1.377   4.009  16.853  0.0083  0.0645  0.8645
 8212TIP3    H146051   1.380   3.966  16.938 -1.3525 -2.7892 -0.4130
 8212TIP3    H246052   1.355   3.939  16.791  2.1168  1.7542 -2.0404
 8213TIP3   OH246053   1.596   2.883   4.695 -0.1744  0.1331 -0.8103
 8213TIP3    H146054   1.651   2.828   4.640  0.3368  1.0260 -1.2120
 8213TIP3    H246055   1.514   2.834   4.704  1.4026 -2.3621  1.7532
 8214TIP3   OH246056   5.194   4.214  14.865 -0.3187 -0.7252 -0.2210
 8214TIP3    H146057   5.226   4.300  14.837 -0.8571 -0.9860 -1.7430
 8214TIP3    H246058   5.265   4.154  14.841  0.0821 -0.7104  0.8964
 8215TIP3   OH246059   4.317   5.380  11.020  0.5665  0.2036 -0.6262
 8215TIP3    H146060   4.277   5.466  11.008 -0.7538 -0.3799 -0.6675
 8215TIP3    H246061   4.373   5.389  11.097 -1.0638  0.6275  0.5680
 8216TIP3   OH246062   0.573   3.173   6.242  0.3718  0.1263  0.0082
 8216TIP3    H146063   0.636   3.244   6.225  0.8641 -0.6261 -1.4557
 8216TIP3    H246064   0.624   3.106   6.287  0.1476  0.2864  0.5046
 8217TIP3   OH246065   4.105   3.364   1.708 -0.1997  0.1474 -0.2526
 8217TIP3    H146066   4.040   3.392   1.643  0.8598  1.7851 -0.6700
 8217TIP3    H246067   4.182   3.342   1.656  0.2589  0.2567  0.3737
 8218TIP3   OH246068   6.722   2.701   5.462 -0.4101  0.5876  0.2552
 8218TIP3    H146069   6.640   2.682   5.416 -1.3555  0.1679  2.0414
 8218TIP3    H246070   6.727   2.634   5.530  0.9837  1.1625  0.7433
 8219TIP3   OH246071   0.896   2.743  13.944  0.0078  0.5141 -0.2191
 8219TIP3    H146072   0.980   2.712  13.908  0.4058 -0.3340  1.3258
 8219TIP3    H246073   0.850   2.662  13.969 -1.5235  0.9346 -1.4964
 8220TIP3   OH246074   5.420   4.304   3.857 -0.6553  0.0202  0.2505
 8220TIP3    H146075   5.463   4.378   3.814  0.2569 -2.7909 -4.4218
 8220TIP3    H246076   5.333   4.301   3.817 -1.2165 -0.6377  1.4737
 8221TIP3   OH246077   3.699   5.097   0.308 -0.0365 -0.6667  0.2136
 8221TIP3    H146078   3.765   5.033   0.283 -1.2637 -1.8896  0.0013
 8221TIP3    H246079   3.633   5.046   0.354 -0.2418  0.7355  1.5493
 8222TIP3   OH246080   4.072   4.518   3.081  0.3662  0.2213 -0.1457
 8222TIP3    H146081   4.110   4.600   3.051  0.0191  0.9097  1.2389
 8222TIP3    H246082   4.002   4.499   3.018  0.7515  0.7419 -0.7331
 8223TIP3   OH246083   2.065   1.575  11.866  1.1236  0.5706 -0.3395
 8223TIP3    H146084   1.995   1.597  11.928  1.4011 -1.3952  0.7331
 8223TIP3    H246085   2.047   1.485  11.840  1.8083  0.8979 -2.0833
 8224TIP3   OH246086   2.486   3.978  13.063  0.5840 -0.0647 -0.0278
 8224TIP3    H146087   2.519   4.052  13.013  0.2133 -0.4540 -0.8743
 8224TIP3    H246088   2.518   3.901  13.016 -0.9109 -0.4482 -0.4883
 8225TIP3   OH246089   1.958   3.484   5.482  0.1884  0.6732  0.3271
 8225TIP3    H146090   1.946   3.422   5.410  0.5081  0.3627  0.5437
 8225TIP3    H246091   1.948   3.432   5.561 -0.3826  1.0582  0.5133
 8226TIP3   OH246092   3.668   3.122  15.082 -0.0408 -0.3605 -0.3186
 8226TIP3    H146093   3.600   3.183  15.053  1.0772  1.0932 -0.0311
 8226TIP3    H246094   3.741   3.179  15.107  0.8217 -1.8071  0.5849
 8227TIP3   OH246095   4.708   3.770   5.634 -0.0721  0.1049  0.1215
 8227TIP3    H146096   4.656   3.845   5.603  1.2557  0.5902 -1.0216
 8227TIP3    H246097   4.740   3.797   5.720 -1.8338 -0.2865  0.9438
 8228TIP3   OH246098   0.298   3.937   0.096  0.0089 -0.0934  0.2970
 8228TIP3    H146099   0.263   3.952   0.008  0.0744  0.6132  0.3778
 8228TIP3    H246100   0.384   3.899   0.081  0.1974  0.4180  0.0342
 8229TIP3   OH246101   3.282   5.247  11.135 -0.4428  0.1138  0.0496
 8229TIP3    H146102   3.204   5.239  11.190 -0.3632 -1.7005 -0.0616
 8229TIP3    H246103   3.287   5.164  11.087  1.2604  0.4017 -0.3414
 8230TIP3   OH246104   1.597   5.937   2.840  0.3022  0.2298  0.3339
 8230TIP3    H146105   1.667   6.000   2.852  0.8751 -0.4949  0.8869
 8230TIP3    H246106   1.520   5.980   2.877 -0.0171  1.7955 -1.9367
 8231TIP3   OH246107   6.607   5.743   3.347 -0.4137 -0.2549  0.5907
 8231TIP3    H146108   6.653   5.826   3.336 -1.0266 -0.0206 -0.3586
 8231TIP3    H246109   6.514   5.765   3.337 -0.8243 -0.6337  2.9160
 8232TIP3   OH246110   5.843   4.972   0.494  0.1303  0.0789 -0.0807
 8232TIP3    H146111   5.749   4.955   0.503 -0.1444  1.9760  1.2669
 8232TIP3    H246112   5.867   5.016   0.575  2.0881  0.1008 -0.6271
 8233TIP3   OH246113   6.053   1.747  16.709  0.2478  0.0370  0.4903
 8233TIP3    H146114   6.032   1.679  16.646  0.9806 -0.1430  0.4301
 8233TIP3    H246115   6.148   1.739  16.722  0.7457  2.2682 -1.0065
 8234TIP3   OH246116   3.092   2.342  11.440 -0.3683  0.0018  0.1275
 8234TIP3    H146117   3.091   2.437  11.441  0.9968  0.0632 -1.4707
 8234TIP3    H246118   3.181   2.318  11.468 -0.4027 -0.7763 -0.3989
 8235TIP3   OH246119   4.638   5.238   1.427 -0.0357  0.1237 -0.2254
 8235TIP3    H146120   4.690   5.318   1.419 -0.1156  0.1227 -0.7876
 8235TIP3    H246121   4.632   5.223   1.521 -0.0102  0.7738 -0.1125
 8236TIP3   OH246122   4.031   1.463   1.630  0.6290  0.0978 -0.0722
 8236TIP3    H146123   4.003   1.466   1.539 -1.0716  0.7478  0.4107
 8236TIP3    H246124   4.020   1.554   1.661 -0.0807 -0.3496  1.0852
 8237TIP3   OH246125   0.066   0.188   4.361  0.1730  0.2066  0.0211
 8237TIP3    H146126   0.109   0.269   4.334  2.9934 -0.3508  2.3385
 8237TIP3    H246127  -0.004   0.216   4.419  0.0052  1.0258 -0.5633
 8238TIP3   OH246128   6.632   5.791  16.090  0.0245 -0.5534  0.9079
 8238TIP3    H146129   6.724   5.799  16.065 -0.1797 -0.6148  0.1378
 8238TIP3    H246130   6.622   5.698  16.113 -0.0089 -0.6922  0.3389
 8239TIP3   OH246131   5.985   6.336  15.938  0.1085 -0.3941 -0.0739
 8239TIP3    H146132   5.993   6.246  15.968  0.7439  0.1307  1.4306
 8239TIP3    H246133   6.065   6.379  15.969 -2.0014  1.7044  3.0658
 8240TIP3   OH246134   4.752   0.476  16.974  0.2730  0.3792 -0.2432
 8240TIP3    H146135   4.667   0.438  16.952 -0.8368  1.1852  2.2825
 8240TIP3    H246136   4.731   0.561  17.013  2.4873  2.2388 -2.7572
 8241TIP3   OH246137   6.024   5.038   4.470 -0.0704  0.1859  0.5131
 8241TIP3    H146138   6.042   4.970   4.536 -1.2895 -2.3805 -1.6047
 8241TIP3    H246139   6.110   5.060   4.435  0.2529 -1.6815 -0.0009
 8242TIP3   OH246140   2.719   6.445  12.339 -0.0351  0.4630 -0.0595
 8242TIP3    H146141   2.756   6.383  12.401 -1.9761  0.1313  0.8332
 8242TIP3    H246142   2.752   6.531  12.368 -0.8213  0.3023  1.3793
 8243TIP3   OH246143   3.723   0.527  14.806  0.1496 -0.6087  1.2117
 8243TIP3    H146144   3.761   0.440  14.815 -0.7513 -0.7870  4.1445
 8243TIP3    H246145   3.784   0.585  14.850 -0.8779 -0.3034  2.2871
 8244TIP3   OH246146   6.389   0.151  15.435 -0.2937 -0.0054 -0.4226
 8244TIP3    H146147   6.414   0.092  15.506 -1.0064 -0.6185 -0.6750
 8244TIP3    H246148   6.410   0.238  15.468  1.0824 -0.3958 -0.1739
 8245TIP3   OH246149   3.287   6.410   4.619  0.0620  0.0943 -0.7549
 8245TIP3    H146150   3.361   6.442   4.567  0.2529 -0.6596 -0.9630
 8245TIP3    H246151   3.302   6.315   4.626  0.5754  0.3025  1.5235
 8246TIP3   OH246152   4.352   4.095   1.980  0.1339  0.2459  0.1709
 8246TIP3    H146153   4.256   4.086   1.980  0.3057 -2.1449  0.2073
 8246TIP3    H246154   4.369   4.163   1.915 -1.5253 -0.6015 -1.2540
 8247TIP3   OH246155   2.136   3.983  16.938 -0.1856  0.2739 -0.3001
 8247TIP3    H146156   2.159   4.047  16.871 -0.8787  0.5097 -0.3131
 8247TIP3    H246157   2.171   3.900  16.905 -1.5370  0.1564 -1.5380
 8248TIP3   OH246158   1.650   0.670   5.349 -0.4404 -0.4651  0.4665
 8248TIP3    H146159   1.678   0.728   5.278 -1.5243  0.4041  0.7289
 8248TIP3    H246160   1.711   0.689   5.420  2.3714 -3.2114 -0.9683
 8249TIP3   OH246161   4.596   2.919  14.234 -0.0682  0.6263 -0.0823
 8249TIP3    H146162   4.505   2.903  14.260 -0.4330  2.6049 -0.0238
 8249TIP3    H246163   4.610   3.012  14.251  2.2220  0.2133  0.6348
 8250TIP3   OH246164   5.920   6.023  11.356  0.1417 -0.1070 -0.1643
 8250TIP3    H146165   6.015   6.032  11.344  0.3776 -0.4876  1.2274
 8250TIP3    H246166   5.910   5.988  11.445 -1.3302  0.6043 -0.0131
 8251TIP3   OH246167   2.166   1.768  14.782  0.0888  0.5928  0.0463
 8251TIP3    H146168   2.235   1.776  14.848  0.3009  0.2498 -0.1289
 8251TIP3    H246169   2.085   1.785  14.830  0.3719  2.0235  0.0369
 8252TIP3   OH246170   6.069   0.680   4.711 -0.1371  0.0438 -0.0521
 8252TIP3    H146171   5.994   0.737   4.728 -0.8356 -0.2839 -1.7907
 8252TIP3    H246172   6.129   0.734   4.660 -0.7289 -0.6721 -1.5626
 8253TIP3   OH246173   2.288   2.804   2.255 -0.7419 -0.1641 -0.0090
 8253TIP3    H146174   2.298   2.771   2.345 -2.2564 -0.1916  0.1703
 8253TIP3    H246175   2.362   2.863   2.243 -0.0225 -0.8373  0.9463
 8254TIP3   OH246176   6.495   6.118   4.058 -0.7315 -0.2360 -0.1665
 8254TIP3    H146177   6.451   6.072   3.986  0.1536 -0.2907 -0.6819
 8254TIP3    H246178   6.509   6.050   4.124 -0.9525 -0.3331 -0.2186
 8255TIP3   OH246179   0.454   4.063  11.346  0.1291 -0.1033 -0.1890
 8255TIP3    H146180   0.530   4.108  11.384  0.4837 -0.8331 -0.0315
 8255TIP3    H246181   0.466   4.074  11.251  1.4739 -1.8274 -0.2750
 8256TIP3   OH246182   2.174   4.716  12.767  0.2084 -0.6514  0.1140
 8256TIP3    H146183   2.178   4.652  12.838 -0.4961  0.7345  1.4495
 8256TIP3    H246184   2.180   4.663  12.687  0.6784 -2.2790  1.1731
 8257TIP3   OH246185   4.254   3.626   5.425  0.0562 -0.1467  0.3089
 8257TIP3    H146186   4.300   3.632   5.508  0.8877 -0.9406 -0.0751
 8257TIP3    H246187   4.185   3.692   5.431 -0.1494 -0.4675  1.7767
 8258TIP3   OH246188   6.805   3.220  11.982 -0.2228 -0.8800  0.5566
 8258TIP3    H146189   6.752   3.298  11.997  0.0325 -0.6117  0.0929
 8258TIP3    H246190   6.835   3.228  11.891  0.8104 -0.9087  0.8837
 8259TIP3   OH246191   4.752   5.424   2.079  0.4122 -0.2102 -0.1776
 8259TIP3    H146192   4.838   5.447   2.114 -0.4199  1.3206  0.9921
 8259TIP3    H246193   4.771   5.369   2.003  2.3706 -1.2289  0.9625
 8260TIP3   OH246194   1.898   0.771   3.564  0.3471 -0.0570 -0.1406
 8260TIP3    H146195   1.851   0.776   3.481  0.6222 -0.1096 -0.3031
 8260TIP3    H246196   1.978   0.821   3.549 -0.1071  0.8725  0.4497
 8261TIP3   OH246197   0.134   6.097  14.961 -0.0795  0.8348 -0.0624
 8261TIP3    H146198   0.222   6.066  14.940 -0.0645  1.0872 -0.3728
 8261TIP3    H246199   0.080   6.018  14.962  0.1198  0.6986 -0.0160
 8262TIP3   OH246200   1.670   5.137   1.976 -0.3452  0.8130  0.3359
 8262TIP3    H146201   1.624   5.134   2.060 -0.4431  0.3156  0.2668
 8262TIP3    H246202   1.601   5.153   1.911 -0.5092 -0.4637  0.1740
 8263TIP3   OH246203   3.360   0.727  14.197  0.3918  0.3302  0.4179
 8263TIP3    H146204   3.350   0.819  14.222  0.8595  0.8566 -1.2102
 8263TIP3    H246205   3.437   0.697  14.246  0.0451  0.7057  1.2032
 8264TIP3   OH246206   5.192   1.869  12.479  0.3212 -0.3558  0.1422
 8264TIP3    H146207   5.196   1.850  12.385 -1.5119 -2.5694  0.4365
 8264TIP3    H246208   5.162   1.960  12.483  0.0792 -0.3330 -1.4077
 8265TIP3   OH246209   6.396   4.838  11.293  0.2897  0.3097 -0.1168
 8265TIP3    H146210   6.399   4.890  11.374 -1.3929  2.0824 -1.0983
 8265TIP3    H246211   6.444   4.890  11.229  0.5735 -0.4828 -0.5584
 8266TIP3   OH246212   3.229   6.423  12.077 -0.3404 -0.9280 -0.1641
 8266TIP3    H146213   3.257   6.436  12.167  0.7854 -1.5186 -0.4109
 8266TIP3    H246214   3.237   6.510  12.037 -0.9854 -0.6333  0.3260
 8267TIP3   OH246215   3.082   1.708   1.296  0.2520  0.4467  0.5397
 8267TIP3    H146216   3.146   1.648   1.257  0.0345 -2.0672  3.6439
 8267TIP3    H246217   3.071   1.777   1.230  1.2159 -2.3783 -2.9418
 8268TIP3   OH246218   1.408   0.923   3.442 -0.2720 -0.7017  0.5474
 8268TIP3    H146219   1.430   0.892   3.530  1.3332 -1.1885  0.0089
 8268TIP3    H246220   1.482   0.978   3.417 -0.5648 -0.8029 -0.6024
 8269TIP3   OH246221   5.192   5.045   4.078  0.2321 -0.1658  0.6100
 8269TIP3    H146222   5.147   5.079   4.000 -1.4188 -1.4405  0.9664
 8269TIP3    H246223   5.281   5.029   4.048  0.3377  1.7674 -0.3070
 8270TIP3   OH246224   6.640   6.327  14.825  0.7084 -0.1634  0.1662
 8270TIP3    H146225   6.605   6.407  14.786  0.4687  0.1740  1.0484
 8270TIP3    H246226   6.657   6.269  14.751 -2.3675 -0.5980 -0.3249
 8271TIP3   OH246227   0.849   1.858  15.761  0.6598 -0.0385  0.2654
 8271TIP3    H146228   0.915   1.799  15.797 -0.6020 -0.5576  1.8506
 8271TIP3    H246229   0.838   1.829  15.670  0.8841 -1.5257  0.6857
 8272TIP3   OH246230   1.619   4.988   2.538  0.1892  0.4475 -0.2472
 8272TIP3    H146231   1.578   4.906   2.508  0.5164  0.8233 -1.7685
 8272TIP3    H246232   1.555   5.056   2.517  0.6453  0.7772 -0.5973
 8273TIP3   OH246233   1.108   3.568  13.640 -0.4299  0.0648 -0.0599
 8273TIP3    H146234   1.062   3.512  13.577  0.3267 -0.1072 -0.4720
 8273TIP3    H246235   1.200   3.559  13.617 -0.3188  1.9650 -0.5459
 8274TIP3   OH246236   3.459   1.942   1.956 -0.0592  0.1740 -0.2695
 8274TIP3    H146237   3.489   1.866   1.906 -1.8119  0.0575 -1.2143
 8274TIP3    H246238   3.368   1.922   1.978  0.4774  0.4923  2.5086
 8275TIP3   OH246239   5.206   4.422  11.644  0.0065 -0.2194  0.4349
 8275TIP3    H146240   5.211   4.494  11.580 -0.7133  1.1956  1.8878
 8275TIP3    H246241   5.116   4.426  11.677 -0.0115 -1.7445  0.6518
 8276TIP3   OH246242   3.066   3.266  12.758 -0.0153 -0.8985 -0.0464
 8276TIP3    H146243   3.153   3.231  12.775  0.7047  0.8135 -0.0166
 8276TIP3    H246244   3.080   3.335  12.694 -1.5027 -1.2649 -0.8190
 8277TIP3   OH246245   5.422   0.690   4.519  0.0788 -0.2282 -0.6004
 8277TIP3    H146246   5.363   0.766   4.522  1.2184  0.6734  1.5811
 8277TIP3    H246247   5.502   0.724   4.478  1.6895  0.7537  2.9482
 8278TIP3   OH246248   0.615   1.470   3.848  0.0311  0.7951 -0.5373
 8278TIP3    H146249   0.701   1.469   3.806  0.2112  0.2626 -0.1605
 8278TIP3    H246250   0.579   1.556   3.826  0.2439  0.6442 -1.5373
 8279TIP3   OH246251   3.164   0.257  11.485  0.4814 -0.1009 -0.0044
 8279TIP3    H146252   3.159   0.217  11.572  1.0529 -0.9113 -0.3362
 8279TIP3    H246253   3.254   0.287  11.477  0.4124  0.0352 -0.2973
 8280TIP3   OH246254   2.102   6.013  11.729  0.3045 -0.2205  0.2336
 8280TIP3    H146255   2.064   6.096  11.702 -0.6793 -0.9835 -0.8194
 8280TIP3    H246256   2.046   5.946  11.689  0.2875 -1.4143  2.1295
 8281TIP3   OH246257   0.956   6.260   4.246  0.3203  0.1460 -0.1226
 8281TIP3    H146258   1.016   6.234   4.176  0.0997 -1.9748  0.4148
 8281TIP3    H246259   0.869   6.255   4.206  0.3082  0.7345 -0.1849
 8282TIP3   OH246260   5.887   6.494   3.092 -0.3525 -0.0774 -0.2875
 8282TIP3    H146261   5.928   6.483   3.178 -3.1303 -3.2050  0.8592
 8282TIP3    H246262   5.958   6.482   3.029  1.1316 -1.6656  1.5687
 8283TIP3   OH246263   3.614   6.340  11.783  0.4406 -0.0911  0.0934
 8283TIP3    H146264   3.521   6.316  11.789  0.4278  0.3266  3.2508
 8283TIP3    H246265   3.659   6.270  11.831  1.7006  0.1097 -0.7629
 8284TIP3   OH246266   0.716   2.935  15.061  0.3798  0.1066  0.3023
 8284TIP3    H146267   0.804   2.916  15.093  0.9383  0.9977 -0.6659
 8284TIP3    H246268   0.695   3.021  15.098  0.1876  0.1878  0.0077
 8285TIP3   OH246269   2.044   5.928   0.393 -0.4239  0.8526 -0.1304
 8285TIP3    H146270   2.139   5.917   0.395 -0.6468 -1.4276  0.9952
 8285TIP3    H246271   2.028   6.011   0.439  0.9630  0.9176  0.2735
 8286TIP3   OH246272   0.142   4.919   3.866  0.5247  0.4286 -0.8891
 8286TIP3    H146273   0.144   5.011   3.842 -1.4192  0.7131 -0.1270
 8286TIP3    H246274   0.177   4.917   3.955 -3.4480  1.1910  0.9174
 8287TIP3   OH246275   0.751   4.132   4.816 -0.4032  0.5307 -0.3738
 8287TIP3    H146276   0.833   4.088   4.838  0.3378  2.5492  1.1962
 8287TIP3    H246277   0.709   4.073   4.754  1.9981 -0.8089 -0.8706
 8288TIP3   OH246278   0.526   5.660  12.387 -0.1855 -0.2801 -0.4858
 8288TIP3    H146279   0.618   5.685  12.373 -0.0403 -0.6759 -0.2445
 8288TIP3    H246280   0.509   5.682  12.479  0.4173 -2.5082  0.2070
 8289TIP3   OH246281   6.018   4.145  16.487  0.0176  0.0191  0.0080
 8289TIP3    H146282   6.089   4.206  16.466  0.1014  0.5823  1.7562
 8289TIP3    H246283   6.034   4.119  16.577 -1.5899 -0.4115  0.2081
 8290TIP3   OH246284   1.127   3.279   6.153  0.6400  0.0725 -0.1505
 8290TIP3    H146285   1.217   3.259   6.126  1.0023  1.5614 -0.1810
 8290TIP3    H246286   1.115   3.231   6.235  2.0224  1.0195  0.6561
 8291TIP3   OH246287   2.712   3.265  17.071 -0.3375  0.2475 -0.1437
 8291TIP3    H146288   2.660   3.342  17.049  0.6150  0.5092 -1.5820
 8291TIP3    H246289   2.754   3.240  16.989  3.2551  1.1307  1.2309
 8292TIP3   OH246290   3.588   2.883  12.179  0.0008 -0.2043 -0.0124
 8292TIP3    H146291   3.544   2.968  12.171  0.7689  0.3225  1.0519
 8292TIP3    H246292   3.519   2.818  12.164 -1.1468  0.5930  1.5406
 8293TIP3   OH246293   4.166   4.993  15.299  0.0868 -0.0271  0.5810
 8293TIP3    H146294   4.224   5.039  15.360  0.7508 -1.6289  1.2071
 8293TIP3    H246295   4.089   5.050  15.292  1.2997  1.6660  0.4937
 8294TIP3   OH246296   0.763   6.263   2.981 -0.5607 -0.3899 -0.4056
 8294TIP3    H146297   0.858   6.272   2.988 -0.2432 -2.8930 -0.2496
 8294TIP3    H246298   0.750   6.205   2.905 -1.7262 -2.4484  1.2677
 8295TIP3   OH246299   3.306   2.737   5.014  0.2024 -0.2235 -0.4222
 8295TIP3    H146300   3.394   2.700   5.013  1.2778  1.8312  3.2480
 8295TIP3    H246301   3.271   2.716   5.101 -1.2463  2.5660 -0.2094
 8296TIP3   OH246302   0.371   3.641  17.121 -0.0434 -0.1013  0.6091
 8296TIP3    H146303   0.440   3.680  17.175  2.0126 -1.8349 -0.5923
 8296TIP3    H246304   0.412   3.564  17.082 -1.3457  0.9484 -3.3625
 8297TIP3   OH246305   3.731   6.378  13.909 -0.1725 -0.5222 -0.2233
 8297TIP3    H146306   3.731   6.412  13.819 -2.4313  0.7303  0.1734
 8297TIP3    H246307   3.797   6.430  13.954 -1.4518  1.3595 -0.3786
 8298TIP3   OH246308   0.362   6.227  10.939  0.0748  0.0292 -0.2602
 8298TIP3    H146309   0.404   6.293  10.883  0.7351 -0.4490 -0.3474
 8298TIP3    H246310   0.299   6.183  10.882  0.9371 -0.6382 -0.7315
 8299TIP3   OH246311   1.535   2.960   5.399  0.4599 -0.4362 -0.3859
 8299TIP3    H146312   1.600   2.959   5.329  1.3283  1.1251  0.3475
 8299TIP3    H246313   1.451   2.953   5.354  1.0075  0.3673 -1.5747
 8300TIP3   OH246314   4.179   5.470   4.678 -0.2398 -0.4330  0.4832
 8300TIP3    H146315   4.154   5.560   4.700  0.3860  0.2156 -1.3090
 8300TIP3    H246316   4.240   5.479   4.605  1.7312 -2.2102  1.8025
 8301TIP3   OH246317   2.700   1.649   3.353 -0.2989 -0.1764 -0.2444
 8301TIP3    H146318   2.622   1.682   3.398 -0.1966 -1.3351  0.8232
 8301TIP3    H246319   2.769   1.711   3.375 -0.3924 -0.4060  0.7382
 8302TIP3   OH246320   6.156   5.337   1.824  0.4345  0.4187 -0.2252
 8302TIP3    H146321   6.118   5.362   1.909  1.8829  1.5675  0.1432
 8302TIP3    H246322   6.187   5.420   1.787  1.2847 -0.2800 -1.1315
 8303TIP3   OH246323   4.429   0.624  11.939 -0.3154 -0.1952 -0.2083
 8303TIP3    H146324   4.371   0.693  11.908  1.1126 -0.3645 -3.7116
 8303TIP3    H246325   4.514   0.644  11.899  1.1885 -1.8037  1.9556
 8304TIP3   OH246326   0.937   2.739  15.677  0.6034 -0.1995 -0.2655
 8304TIP3    H146327   0.869   2.714  15.740 -1.0155  0.9972 -1.4331
 8304TIP3    H246328   1.015   2.755  15.731 -0.4117 -0.3155  1.3049
 8305TIP3   OH246329   2.033   6.002  12.913 -0.0960 -0.0375  0.6624
 8305TIP3    H146330   1.971   6.073  12.899  1.4512  1.6847  2.0480
 8305TIP3    H246331   2.001   5.957  12.991  0.4229  0.9602  1.4821
 8306TIP3   OH246332   3.686   3.577  12.487 -0.5645 -0.7965 -0.0623
 8306TIP3    H146333   3.634   3.620  12.554 -0.2581 -0.9576  0.2787
 8306TIP3    H246334   3.638   3.593  12.405 -0.7320 -0.2709  0.1387
 8307TIP3   OH246335   3.198   1.265  14.271  0.3299  0.4280 -0.2195
 8307TIP3    H146336   3.245   1.343  14.241 -1.3221  1.2027 -0.9361
 8307TIP3    H246337   3.137   1.297  14.338  1.0364 -0.6107  0.9624
 8308TIP3   OH246338   1.870   0.099  12.640 -0.4507  0.1626  0.5960
 8308TIP3    H146339   1.912   0.026  12.594  0.2976 -0.0249  1.5545
 8308TIP3    H246340   1.933   0.170  12.634 -0.1739  0.0152  1.6648
 8309TIP3   OH246341   0.058   2.389   2.489 -0.4795  0.6767  0.0027
 8309TIP3    H146342   0.095   2.417   2.405 -0.6793 -1.9718 -1.0444
 8309TIP3    H246343   0.134   2.376   2.545 -0.3308  2.2436  0.2290
 8310TIP3   OH246344   2.999   4.399   1.417 -0.2443 -0.5073 -0.3449
 8310TIP3    H146345   3.048   4.418   1.337  2.1787 -0.9025  0.9635
 8310TIP3    H246346   3.057   4.425   1.488 -2.0814 -0.7251  1.3295
 8311TIP3   OH246347   2.959   3.381   1.380 -0.0576 -0.5891  0.3158
 8311TIP3    H146348   2.912   3.345   1.455  2.5733 -0.0762  2.3322
 8311TIP3    H246349   3.046   3.342   1.385  0.3926 -0.0738 -2.1627
 8312TIP3   OH246350   1.133   2.925   5.989 -0.3406 -0.1908  0.5152
 8312TIP3    H146351   1.118   2.925   6.084 -1.0511  1.5282  0.4446
 8312TIP3    H246352   1.062   2.978   5.954 -0.8773 -1.9118 -1.1594
 8313TIP3   OH246353   2.565   0.965   1.306  0.2266 -0.0293 -0.3479
 8313TIP3    H146354   2.474   0.963   1.276  0.4260  0.9300 -1.0747
 8313TIP3    H246355   2.617   0.966   1.225  0.9350 -1.3858  0.0445
 8314TIP3   OH246356   5.895   3.956   0.986 -0.7828  0.2586 -0.0204
 8314TIP3    H146357   5.899   4.050   0.967 -2.5438  0.3968  0.1676
 8314TIP3    H246358   5.838   3.921   0.918  0.8298 -0.9271 -0.8458
 8315TIP3   OH246359   4.096   4.301   2.246 -0.0718  0.5114 -0.6119
 8315TIP3    H146360   4.137   4.330   2.328  0.0445 -0.0782 -0.4590
 8315TIP3    H246361   4.137   4.356   2.179  0.0835  0.7612 -0.3169
 8316TIP3   OH246362   5.723   0.074   0.842 -0.1327  0.4701  0.0673
 8316TIP3    H146363   5.653   0.113   0.893  0.4731 -0.1362  1.4053
 8316TIP3    H246364   5.706   0.103   0.752 -1.1167  1.7096  0.6224
 8317TIP3   OH246365   5.089   2.984   0.601  0.6763 -0.2531  0.4390
 8317TIP3    H146366   5.029   3.056   0.583 -1.6105 -1.8552  1.1404
 8317TIP3    H246367   5.034   2.905   0.595  3.4361 -2.1697 -2.1979
 8318TIP3   OH246368   5.143   4.829   2.500  0.3267 -0.2302  0.1986
 8318TIP3    H146369   5.056   4.868   2.490  0.9237  0.7202 -1.9764
 8318TIP3    H246370   5.130   4.736   2.479 -0.0915  0.0058 -0.6149
 8319TIP3   OH246371   0.773   3.711   0.013 -0.1905 -0.0347  0.1244
 8319TIP3    H146372   0.717   3.638  -0.010  0.4072 -0.7823  1.0006
 8319TIP3    H246373   0.739   3.743   0.096 -1.2081  1.4964 -0.8275
 8320TIP3   OH246374   5.587   2.305  10.346  0.1497  0.0308 -0.0427
 8320TIP3    H146375   5.670   2.266  10.319  0.8271 -0.2196  2.2106
 8320TIP3    H246376   5.522   2.237  10.329  0.5594 -0.1759 -0.8338
 8321TIP3   OH246377   6.474   0.829   0.302 -0.3699  0.1174 -0.3769
 8321TIP3    H146378   6.404   0.798   0.358 -1.3653  1.8749 -0.5867
 8321TIP3    H246379   6.469   0.773   0.224 -2.2165  0.8369 -0.8281
 8322TIP3   OH246380   0.235   6.766  10.156 -0.3704 -0.4234 -0.6851
 8322TIP3    H146381   0.241   6.756  10.251 -0.4009  0.9077 -0.5110
 8322TIP3    H246382   0.160   6.713  10.130 -0.6001 -0.4902  0.0894
 8323TIP3   OH246383   4.418   6.473  13.192 -0.0260 -0.5302  0.4572
 8323TIP3    H146384   4.457   6.558  13.171  0.0999  0.1915  3.2108
 8323TIP3    H246385   4.324   6.486  13.182  0.0311 -0.2593  0.2733
 8324TIP3   OH246386   4.268   6.512  16.121 -0.0916  0.1871 -0.2188
 8324TIP3    H146387   4.291   6.591  16.171  0.5683 -0.5843  0.7220
 8324TIP3    H246388   4.229   6.454  16.187 -1.8807  0.2454 -1.1647
 8325TIP3   OH246389   4.211   6.404   1.480  0.3718 -0.4386 -0.5037
 8325TIP3    H146390   4.192   6.314   1.506  1.7889 -0.9485 -1.1268
 8325TIP3    H246391   4.204   6.454   1.561  1.1680 -1.3947  0.1841
 8326TIP3   OH246392   0.785   6.531   3.213  1.0582 -0.1121  0.2220
 8326TIP3    H146393   0.746   6.494   3.291  0.3490 -0.3098 -0.2199
 8326TIP3    H246394   0.719   6.521   3.145  2.6895 -2.6242 -1.1612
 8327TIP3   OH246395   1.904   6.411  13.122  0.0820  0.0497 -0.1151
 8327TIP3    H146396   1.973   6.348  13.099  0.7181  0.7098 -0.0515
 8327TIP3    H246397   1.877   6.385  13.210 -0.7732 -1.0904 -0.6795
 8328TIP3   OH246398   4.857   4.245  14.271  0.1661  0.8775  0.3515
 8328TIP3    H146399   4.919   4.257  14.342  1.1359  0.4709 -0.4044
 8328TIP3    H246400   4.911   4.242  14.192 -0.5651 -1.7927 -0.1317
 8329TIP3   OH246401   4.000   5.504   1.816  0.0791 -0.1881 -0.1961
 8329TIP3    H146402   3.913   5.476   1.844 -0.8758  2.2674 -0.5061
 8329TIP3    H246403   4.020   5.579   1.872  1.1221  0.5407 -1.5071
 8330TIP3   OH246404   3.560   6.764  16.117  0.0820  0.6161 -0.2281
 8330TIP3    H146405   3.622   6.715  16.171 -1.5868  0.5326  1.7362
 8330TIP3    H246406   3.560   6.717  16.033  0.7748 -0.9154  0.5751
 8331TIP3   OH246407   5.767   4.340  16.143  0.0024  0.4043 -0.3856
 8331TIP3    H146408   5.708   4.415  16.134 -0.5851  0.2892  1.7462
 8331TIP3    H246409   5.800   4.347  16.233 -1.1815 -2.6070  0.4181
 8332TIP3   OH246410   2.688   0.164   5.242  0.1531  0.0399 -0.1729
 8332TIP3    H146411   2.666   0.250   5.279  1.4337  0.1990  0.2609
 8332TIP3    H246412   2.765   0.180   5.188 -0.0511 -0.7157 -0.7083
 8333TIP3   OH246413   6.620   2.726  13.715 -0.6690 -0.3297  1.0361
 8333TIP3    H146414   6.564   2.757  13.786 -0.6466 -2.1779  1.9224
 8333TIP3    H246415   6.561   2.681  13.655 -0.4339 -0.3902  0.8491
 8334TIP3   OH246416   4.598   3.425   2.976 -0.2035  0.3530  0.2440
 8334TIP3    H146417   4.613   3.370   3.053 -0.5348  0.4476  0.3764
 8334TIP3    H246418   4.614   3.367   2.902  2.1718  0.7707  0.3325
 8335TIP3   OH246419   1.188   4.035   0.632  0.5346  0.5601  0.3708
 8335TIP3    H146420   1.253   4.102   0.655  1.3056 -0.5829  1.6586
 8335TIP3    H246421   1.111   4.058   0.684  0.6215  0.7431  0.4200
 8336TIP3   OH246422   2.199   3.786   0.745  0.3914  0.1317  0.2060
 8336TIP3    H146423   2.212   3.868   0.696  2.4115 -0.5084 -0.4161
 8336TIP3    H246424   2.105   3.769   0.737  0.1817  1.5489 -1.0118
 8337TIP3   OH246425   6.706   5.234   3.858  0.5972  0.2522  0.9388
 8337TIP3    H146426   6.751   5.151   3.872  2.1416  1.1049  1.2321
 8337TIP3    H246427   6.773   5.301   3.873 -0.5799  1.5565  0.6125
 8338TIP3   OH246428   4.322   0.510  15.960  0.0259 -0.2034  0.9514
 8338TIP3    H146429   4.321   0.550  16.047  0.3033  0.8847  0.4716
 8338TIP3    H246430   4.294   0.580  15.901 -1.9742 -1.4282  0.3371
 8339TIP3   OH246431   6.293   2.730   6.364  0.4626  0.2822  0.2042
 8339TIP3    H146432   6.376   2.700   6.402  0.1242  0.4362  1.1008
 8339TIP3    H246433   6.228   2.667   6.397  0.2204  0.1678 -0.4817
 8340TIP3   OH246434   6.503   1.641  14.677  0.1774 -0.2087 -0.4250
 8340TIP3    H146435   6.534   1.574  14.737 -1.2587  0.3155  0.9989
 8340TIP3    H246436   6.575   1.654  14.615  1.8028 -0.6928  1.2575
 8341TIP3   OH246437   1.594   0.196   2.358 -0.0318 -0.3291  0.5234
 8341TIP3    H146438   1.559   0.269   2.408 -0.4568  0.5270 -0.9779
 8341TIP3    H246439   1.664   0.234   2.305 -2.4601 -0.1207 -2.8823
 8342TIP3   OH246440   0.859   4.449  11.526 -0.4366  0.1191 -0.2140
 8342TIP3    H146441   0.841   4.458  11.432  2.2893 -0.3879 -0.8791
 8342TIP3    H246442   0.923   4.378  11.531 -1.9622 -1.2085  2.2621
 8343TIP3   OH246443   2.682   1.424  13.614 -0.7073 -0.3799  0.0733
 8343TIP3    H146444   2.659   1.404  13.705 -2.4056 -1.0850 -0.4696
 8343TIP3    H246445   2.687   1.520  13.611 -0.7772 -0.3414  0.8878
 8344TIP3   OH246446   1.838   5.077   1.270 -0.2275 -0.2368 -0.1724
 8344TIP3    H146447   1.820   4.984   1.278  1.6406 -0.6379 -0.1610
 8344TIP3    H246448   1.767   5.120   1.318 -0.9203 -1.6589  0.1151
 8345TIP3   OH246449   1.325   6.779   5.147 -0.3591  0.0538 -0.2322
 8345TIP3    H146450   1.335   6.818   5.060  2.3273 -2.0172 -0.9739
 8345TIP3    H246451   1.251   6.719   5.138 -0.2359  0.0143 -1.0474
 8346TIP3   OH246452   0.977   1.763  12.360  0.4132  0.3518 -0.1267
 8346TIP3    H146453   0.972   1.731  12.271  1.4790 -0.4368  0.0818
 8346TIP3    H246454   1.061   1.731  12.393 -1.5576 -2.7612  2.4473
 8347TIP3   OH246455   6.565   4.009   3.158  0.4229  0.1771 -0.1863
 8347TIP3    H146456   6.479   4.012   3.200  1.2119 -1.2034  1.7109
 8347TIP3    H246457   6.555   3.946   3.087  0.0757 -0.6537  0.5848
 8348TIP3   OH246458   2.987   4.849  11.805 -0.4600  0.5150 -0.5535
 8348TIP3    H146459   2.894   4.851  11.829 -0.1487 -1.3391  1.1338
 8348TIP3    H246460   3.024   4.779  11.860  2.0422  1.5330 -0.8132
 8349TIP3   OH246461   0.732   0.527   4.334 -0.3347 -0.7376 -0.0854
 8349TIP3    H146462   0.730   0.509   4.240  0.1466 -1.9434  0.1182
 8349TIP3    H246463   0.748   0.621   4.340 -0.3373 -0.6504 -1.2058
 8350TIP3   OH246464   1.871   5.354   1.959 -0.0439  0.0958  0.3321
 8350TIP3    H146465   1.850   5.399   1.877 -1.4379 -0.9959  0.0309
 8350TIP3    H246466   1.828   5.268   1.950 -0.4462  0.0417  2.3034
 8351TIP3   OH246467   4.236   4.133   2.725  0.2469  0.0771  0.0477
 8351TIP3    H146468   4.298   4.069   2.761  0.0297 -0.2109 -0.0849
 8351TIP3    H246469   4.163   4.080   2.693 -0.2900  0.4532  0.6466
 8352TIP3   OH246470   6.079   3.017  12.281  0.1271 -0.6595 -0.7498
 8352TIP3    H146471   6.081   3.046  12.190 -1.8914  0.3064 -0.5348
 8352TIP3    H246472   6.083   3.098  12.332 -1.2759 -1.0148 -0.0412
 8353TIP3   OH246473   5.503   0.757   5.440 -0.3866  0.0246 -0.0374
 8353TIP3    H146474   5.436   0.691   5.422 -2.4310  1.9368  0.2496
 8353TIP3    H246475   5.586   0.710   5.428 -1.7321 -2.3595 -0.6477
 8354TIP3   OH246476   4.102   3.221  16.076 -0.4188 -0.5366  0.2364
 8354TIP3    H146477   4.115   3.315  16.083 -1.1023 -0.4184  0.0133
 8354TIP3    H246478   4.146   3.185  16.153  3.5828 -0.4668 -1.7686
 8355TIP3   OH246479   1.131   3.245   0.058 -0.3664 -0.2407 -0.1880
 8355TIP3    H146480   1.189   3.205  -0.007  1.1897  1.1704  0.2746
 8355TIP3    H246481   1.068   3.295   0.006  0.3976  0.2743 -0.6301
 8356TIP3   OH246482   6.043   6.275   1.209 -0.2616 -0.3386 -0.0975
 8356TIP3    H146483   6.073   6.335   1.277 -0.1527  0.6483 -0.9931
 8356TIP3    H246484   6.008   6.200   1.258  0.6404 -0.0670  1.0206
 8357TIP3   OH246485   1.633   1.151  15.921  0.3776  0.3631  0.2147
 8357TIP3    H146486   1.665   1.241  15.914 -0.4386  0.6916  0.6057
 8357TIP3    H246487   1.569   1.153  15.992  0.1205 -0.4602  0.0232
 8358TIP3   OH246488   5.163   1.470   4.029 -0.2164  0.0262 -0.5007
 8358TIP3    H146489   5.154   1.561   4.057  0.8792  0.4075 -1.2693
 8358TIP3    H246490   5.220   1.430   4.094 -0.9314 -0.1984 -0.0050
 8359TIP3   OH246491   2.801   0.615   5.017 -0.0725  0.1314 -0.1603
 8359TIP3    H146492   2.747   0.562   5.075 -1.2175 -0.3380 -1.6059
 8359TIP3    H246493   2.740   0.678   4.978  0.7285  0.6330 -0.6487
 8360TIP3   OH246494   1.555   0.831   0.147  0.7537 -0.2629 -0.0533
 8360TIP3    H146495   1.586   0.803   0.061  1.6067 -0.7679  0.4043
 8360TIP3    H246496   1.581   0.923   0.153  0.7659 -0.2490 -0.3060
 8361TIP3   OH246497   0.157   4.365   0.728  0.3470 -0.2273 -0.0270
 8361TIP3    H146498   0.075   4.339   0.771 -1.2885  1.0716 -2.1421
 8361TIP3    H246499   0.209   4.403   0.798 -0.8511 -1.0510  1.3883
 8362TIP3   OH246500   5.012   5.822   5.553  0.2012  0.0004  0.1585
 8362TIP3    H146501   4.948   5.761   5.590  1.4102  0.5622  3.5446
 8362TIP3    H246502   5.097   5.780   5.570  0.9408  1.5269  0.4453
 8363TIP3   OH246503   1.920   0.723   2.619  0.3052 -0.4572 -0.9237
 8363TIP3    H146504   1.937   0.633   2.647  0.4916 -0.4030 -0.8633
 8363TIP3    H246505   1.825   0.726   2.605  0.3302 -0.7304 -1.1613
 8364TIP3   OH246506   4.493   3.926   0.476 -0.5491  0.3821 -0.3001
 8364TIP3    H146507   4.478   4.021   0.479 -1.4733  0.2174  1.1897
 8364TIP3    H246508   4.481   3.903   0.384  2.0484  2.0301 -1.1773
 8365TIP3   OH246509   5.800   5.380  12.261  0.8705 -0.0261  0.8704
 8365TIP3    H146510   5.741   5.336  12.200  0.2303  0.6563  0.9700
 8365TIP3    H246511   5.747   5.452  12.297  2.2571  1.6697 -0.3003
 8366TIP3   OH246512   3.333   3.091  15.447 -0.1113 -0.0762  0.2585
 8366TIP3    H146513   3.260   3.059  15.393  1.3337 -1.6985 -0.8478
 8366TIP3    H246514   3.383   3.148  15.389  0.0878  0.1725  0.6744
 8367TIP3   OH246515   6.748   6.429  11.716 -0.5062  0.5174  0.1888
 8367TIP3    H146516   6.745   6.458  11.808 -0.8288  0.6637  0.1336
 8367TIP3    H246517   6.756   6.510  11.666 -0.6956  0.4609  0.0685
 8368TIP3   OH246518   0.562   2.764  13.208 -0.1073  0.6393 -0.1535
 8368TIP3    H146519   0.534   2.762  13.117  0.4705  0.2963 -0.3260
 8368TIP3    H246520   0.658   2.771  13.204  0.1707 -1.9133  0.3830
 8369TIP3   OH246521   0.841   1.846  14.656 -0.0502 -0.3892 -0.0606
 8369TIP3    H146522   0.901   1.828  14.583  0.2334 -2.3939  0.5994
 8369TIP3    H246523   0.787   1.768  14.662  0.2373 -0.4923  2.1581
 8370TIP3   OH246524   4.265   3.598   0.322 -0.5134 -0.6428  0.3111
 8370TIP3    H146525   4.293   3.617   0.232  0.8203 -1.5648  0.5051
 8370TIP3    H246526   4.290   3.676   0.371  1.0521 -1.0999  0.3157
 8371TIP3   OH246527   0.042   1.757   5.111  0.0058  0.2494 -0.0281
 8371TIP3    H146528   0.043   1.830   5.173 -0.2192  0.7144 -0.5672
 8371TIP3    H246529  -0.027   1.698   5.144 -0.3378  0.6545 -0.0139
 8372TIP3   OH246530   3.588   2.880  15.442  0.5965 -0.6638  0.4231
 8372TIP3    H146531   3.530   2.909  15.512  1.0615 -1.1450  1.0192
 8372TIP3    H246532   3.669   2.930  15.455  0.9816 -1.3558  0.7457
 8373TIP3   OH246533   6.138   3.783   2.060 -0.7755 -0.0709 -0.1606
 8373TIP3    H146534   6.185   3.863   2.036 -0.2771 -0.2074  0.3163
 8373TIP3    H246535   6.110   3.798   2.150  0.9729 -1.1393  0.6236
 8374TIP3   OH246536   1.553   0.762  16.284 -0.5843 -0.4691  0.0054
 8374TIP3    H146537   1.540   0.841  16.335 -0.8567  0.0575 -0.8458
 8374TIP3    H246538   1.520   0.691  16.339  1.5748 -0.2820  1.6333
 8375TIP3   OH246539   3.697   2.586  17.016 -0.5452 -0.7079 -0.8336
 8375TIP3    H146540   3.732   2.590  17.105 -0.0318 -1.7371 -0.9781
 8375TIP3    H246541   3.661   2.673  17.001  0.4243 -0.1533 -0.0539
 8376TIP3   OH246542   6.545   0.763   2.287 -0.2929  0.4766 -0.1367
 8376TIP3    H146543   6.450   0.769   2.279 -0.2295  2.8984  0.3144
 8376TIP3    H246544   6.579   0.825   2.222  0.9844 -0.3224 -0.2706
 8377TIP3   OH246545   2.790   4.045   2.844 -0.2365  0.3625  0.4057
 8377TIP3    H146546   2.842   4.124   2.859 -1.1274  0.9614  0.4125
 8377TIP3    H246547   2.730   4.041   2.918 -2.2563  1.3888 -1.0639
 8378TIP3   OH246548   5.914   3.503  14.519 -0.1089 -0.1195 -0.1807
 8378TIP3    H146549   5.896   3.452  14.598  1.4406  0.1167  0.3542
 8378TIP3    H246550   5.897   3.442  14.447 -0.5765 -0.6486  0.3712
 8379TIP3   OH246551   0.612   1.474  13.541 -0.1826 -0.4461 -0.0058
 8379TIP3    H146552   0.584   1.541  13.480 -2.7689 -1.3874  0.0265
 8379TIP3    H246553   0.543   1.471  13.607 -0.3638 -3.3000 -0.1937
 8380TIP3   OH246554   5.635   0.995   1.182  0.0531 -0.3501  0.3289
 8380TIP3    H146555   5.543   1.006   1.207 -0.5753 -2.1273 -1.0140
 8380TIP3    H246556   5.650   1.060   1.114 -1.3715 -2.3718 -2.1004
 8381TIP3   OH246557   3.468   3.666   0.655  0.2309  0.0619  0.0901
 8381TIP3    H146558   3.483   3.578   0.689  0.4957 -0.5890 -1.5875
 8381TIP3    H246559   3.394   3.699   0.706 -0.0585 -1.2527  0.5707
 8382TIP3   OH246560   4.901   2.320   6.350 -0.1712  0.3114 -0.3246
 8382TIP3    H146561   4.873   2.291   6.436 -0.5627  0.8568 -0.2660
 8382TIP3    H246562   4.926   2.240   6.305 -0.1074  0.0077  0.2423
 8383TIP3   OH246563   0.229   0.094  10.637  0.2755 -0.3643 -0.0956
 8383TIP3    H146564   0.195   0.159  10.575  0.9230  0.5521  0.4839
 8383TIP3    H246565   0.261   0.023  10.581 -0.0787 -0.0087 -0.7668
 8384TIP3   OH246566   5.407   1.161  15.736  0.1074 -0.4234 -0.4576
 8384TIP3    H146567   5.341   1.139  15.802  1.9424 -1.8812  0.9902
 8384TIP3    H246568   5.455   1.234  15.774  0.8059 -0.8897 -0.4405
 8385TIP3   OH246569   4.087   1.725   1.662 -0.5115  0.0345  0.4157
 8385TIP3    H146570   4.143   1.777   1.719  2.4295 -0.7003 -1.5293
 8385TIP3    H246571   4.044   1.788   1.605 -0.5946  0.5507  1.0454
 8386TIP3   OH246572   3.461   2.532   2.453 -0.1720 -0.3033  0.7307
 8386TIP3    H146573   3.521   2.587   2.502  0.6691 -1.1513  0.6810
 8386TIP3    H246574   3.375   2.571   2.467  0.2612  0.3523  1.6177
 8387TIP3   OH246575   1.222   4.904  10.069  0.0117  0.0270 -0.1292
 8387TIP3    H146576   1.251   4.819  10.103  1.9624  1.0021  0.8165
 8387TIP3    H246577   1.186   4.949  10.146  0.7120  0.7372 -0.2059
 8388TIP3   OH246578   0.165   6.769  15.657 -0.6901 -0.1169 -0.4218
 8388TIP3    H146579   0.239   6.749  15.714  2.0973  0.6975 -3.4233
 8388TIP3    H246580   0.135   6.684  15.627 -0.9866 -0.4629  0.8086
 8389TIP3   OH246581   0.845   5.587  10.712  0.0932  0.0615  0.2556
 8389TIP3    H146582   0.843   5.530  10.789 -2.6266 -0.9437 -0.4330
 8389TIP3    H246583   0.819   5.530  10.640  1.2981  1.2856 -1.1940
 8390TIP3   OH246584   0.907   4.305  13.296  0.1266 -0.3278 -0.5459
 8390TIP3    H146585   0.966   4.234  13.273 -0.6058 -0.7579 -1.1509
 8390TIP3    H246586   0.921   4.371  13.227  0.0759 -0.3261 -0.5548
 8391TIP3   OH246587   0.688   3.551  11.213 -0.8225 -0.2285 -0.4257
 8391TIP3    H146588   0.672   3.479  11.273  0.8295 -0.4559 -0.1967
 8391TIP3    H246589   0.688   3.510  11.126  2.1248 -0.9820 -0.1751
 8392TIP3   OH246590   3.501   5.271   1.254  0.5302  0.0850 -0.2448
 8392TIP3    H146591   3.484   5.258   1.161  0.7288  1.3927 -0.4836
 8392TIP3    H246592   3.437   5.214   1.298 -0.7547  0.7403 -1.1755
 8393TIP3   OH246593   4.425   6.091  11.869 -0.2689  0.2400 -0.1587
 8393TIP3    H146594   4.387   6.155  11.929  1.1829  0.4716  0.5786
 8393TIP3    H246595   4.423   6.134  11.783 -1.8018  0.1527 -0.1886
 8394TIP3   OH246596   4.174   4.254  12.863  0.3102 -0.0254 -0.1326
 8394TIP3    H146597   4.185   4.349  12.867 -1.9788  0.2966  0.0389
 8394TIP3    H246598   4.242   4.224  12.803  0.7295  1.7934 -0.6196
 8395TIP3   OH246599   3.694   3.754   5.879  0.6464  0.2404  0.2405
 8395TIP3    H146600   3.675   3.810   5.954  2.2605 -0.9894  1.6686
 8395TIP3    H246601   3.789   3.759   5.868  0.6014 -0.6945 -0.8128
 8396TIP3   OH246602   0.794   6.517  14.330 -0.1744 -0.3492 -0.4165
 8396TIP3    H146603   0.825   6.587  14.272  0.7417  0.5986  1.1663
 8396TIP3    H246604   0.831   6.437  14.293  1.8494  0.4322 -0.1888
 8397TIP3   OH246605   6.323   2.927  14.205  0.0998  0.2342  0.1149
 8397TIP3    H146606   6.250   2.864  14.210  0.1015  0.2205 -0.0197
 8397TIP3    H246607   6.398   2.879  14.238  0.7182 -0.7765 -2.4851
 8398TIP3   OH246608   4.808   0.746   5.479 -0.1319 -0.3809 -0.2461
 8398TIP3    H146609   4.753   0.723   5.553  0.2899 -1.3028 -0.1987
 8398TIP3    H246610   4.813   0.665   5.427  0.1850  0.0366 -0.8813
 8399TIP3   OH246611   4.616   0.902  16.286 -0.2212  0.0812  0.5151
 8399TIP3    H146612   4.530   0.939  16.305 -0.6514 -0.9208  0.5928
 8399TIP3    H246613   4.598   0.811  16.262  0.8307 -0.1657  0.6159
 8400TIP3   OH246614   1.912   4.162  12.150 -0.5677  0.0112  0.3771
 8400TIP3    H146615   1.913   4.235  12.089  0.2946 -0.7423 -0.5514
 8400TIP3    H246616   1.822   4.158  12.182 -0.5684  1.6284  0.6642
 8401TIP3   OH246617   1.973   6.066   3.949  0.0132 -0.5983  0.4208
 8401TIP3    H146618   1.962   6.054   4.043  0.8160  3.0088  1.1641
 8401TIP3    H246619   1.884   6.071   3.914 -0.3268 -0.4543  1.2910
 8402TIP3   OH246620   1.267   6.211   0.704  0.5038  0.3507  0.3801
 8402TIP3    H146621   1.261   6.117   0.686  1.1007  0.5345 -0.8909
 8402TIP3    H246622   1.177   6.237   0.724 -0.1351 -0.0427 -1.7283
 8403TIP3   OH246623   5.885   2.834  15.824 -0.1194 -0.3070 -0.9137
 8403TIP3    H146624   5.884   2.861  15.732 -3.5350 -0.5739 -1.0494
 8403TIP3    H246625   5.846   2.747  15.824 -1.0189  0.0609  0.8720
 8404TIP3   OH246626   3.035   3.410  13.546  0.1141  0.2252 -0.4467
 8404TIP3    H146627   3.056   3.317  13.534  0.4458  0.2356  0.0247
 8404TIP3    H246628   2.950   3.410  13.590  0.7483  0.1089  0.8171
 8405TIP3   OH246629   2.980   1.396  11.449  0.5019  0.4549 -0.3779
 8405TIP3    H146630   2.949   1.373  11.361 -1.9231  1.2249  0.1797
 8405TIP3    H246631   2.943   1.328  11.506 -0.9278  1.8508  0.4289
 8406TIP3   OH246632   2.827   3.333  14.518 -0.1990  0.0180 -0.7739
 8406TIP3    H146633   2.816   3.267  14.587 -1.1387  1.1919  0.2502
 8406TIP3    H246634   2.755   3.316  14.457 -0.4760  0.1053 -0.4787
 8407TIP3   OH246635   1.789   5.072  15.152 -0.4036 -0.0130  0.0037
 8407TIP3    H146636   1.706   5.048  15.191 -0.8957  3.1602  1.1694
 8407TIP3    H246637   1.780   5.048  15.059 -1.1025 -3.0889  0.7684
 8408TIP3   OH246638   2.760   2.339   5.116 -0.3991  0.2015 -0.4444
 8408TIP3    H146639   2.814   2.357   5.193 -0.7176 -0.4671 -0.0515
 8408TIP3    H246640   2.822   2.326   5.045 -0.1328  1.9498 -0.5648
 8409TIP3   OH246641   6.644   0.137   1.391 -0.4799  0.0932  0.1270
 8409TIP3    H146642   6.679   0.066   1.338  0.9410  1.1234 -0.3711
 8409TIP3    H246643   6.581   0.094   1.450  0.5753 -1.6248  0.0727
 8410TIP3   OH246644   6.276   0.886   6.492 -0.1716 -0.3667  0.1613
 8410TIP3    H146645   6.347   0.827   6.467  0.5473  0.8977 -0.8735
 8410TIP3    H246646   6.320   0.966   6.521 -1.1588  0.6738 -1.1061
 8411TIP3   OH246647   3.928   1.347  13.584  0.2733  0.3571  0.1167
 8411TIP3    H146648   3.988   1.376  13.515  1.0185 -0.1814  0.5244
 8411TIP3    H246649   3.977   1.358  13.665 -0.1795 -0.0924  0.4596
 8412TIP3   OH246650   5.582   0.720   1.571 -0.6410 -0.3978 -0.1406
 8412TIP3    H146651   5.540   0.684   1.493 -0.3973 -0.3407 -0.3016
 8412TIP3    H246652   5.510   0.743   1.629 -0.8088 -4.7447  1.6896
 8413TIP3   OH246653   3.244   1.530   3.023  0.0884  0.0756  0.1979
 8413TIP3    H146654   3.189   1.463   2.982  1.3453 -0.6881 -0.2666
 8413TIP3    H246655   3.256   1.500   3.113  0.9468 -0.5213 -0.1095
 8414TIP3   OH246656   4.897   4.556   2.253  0.1021 -0.9314  0.6332
 8414TIP3    H146657   4.848   4.473   2.247 -0.6104 -0.4698 -0.0572
 8414TIP3    H246658   4.840   4.614   2.303 -0.6266 -0.0106 -1.1716
 8415TIP3   OH246659   1.684   5.577   3.216 -0.0767  0.0027  0.3221
 8415TIP3    H146660   1.667   5.543   3.304 -0.6549 -0.5391  0.0118
 8415TIP3    H246661   1.777   5.599   3.216 -0.2081  0.6470  1.2821
 8416TIP3   OH246662   2.671   4.644  14.711  0.0350 -0.2590 -0.0770
 8416TIP3    H146663   2.678   4.549  14.714  0.8780 -0.1906  0.9881
 8416TIP3    H246664   2.612   4.662  14.638  1.6190 -1.5017 -1.7357
 8417TIP3   OH246665   1.799   6.604  11.697 -0.4665 -0.1942  0.4540
 8417TIP3    H146666   1.851   6.678  11.664 -0.1151 -0.6146  0.0619
 8417TIP3    H246667   1.814   6.605  11.792 -0.9956  0.6472  0.5413
 8418TIP3   OH246668   0.328   0.476   1.001 -0.3902 -0.1483  0.4724
 8418TIP3    H146669   0.262   0.537   1.034  1.1124  1.5687  0.4809
 8418TIP3    H246670   0.409   0.503   1.044  0.8391 -0.4312 -1.5386
 8419TIP3   OH246671   1.049   6.772   0.606  0.3304  0.4487 -0.3509
 8419TIP3    H146672   1.050   6.687   0.563  0.0911  0.5252 -0.5162
 8419TIP3    H246673   1.092   6.758   0.690  0.5203  0.2246 -0.4856
 8420TIP3   OH246674   4.064   6.047  16.308  0.2320 -0.7444  0.0764
 8420TIP3    H146675   4.048   6.136  16.341 -0.5183 -0.3398 -1.3139
 8420TIP3    H246676   4.147   6.021  16.349  1.8430  1.6115 -1.4773
 8421TIP3   OH246677   4.051   5.321  10.939  0.1715  0.2275 -0.1404
 8421TIP3    H146678   4.128   5.338  10.994 -0.2082 -0.1692  0.5291
 8421TIP3    H246679   4.054   5.389  10.872  1.8168 -0.5297 -0.9116
 8422TIP3   OH246680   3.572   0.209  16.215 -0.4871 -0.4517  0.1210
 8422TIP3    H146681   3.576   0.121  16.178 -0.1708  0.5879 -2.5803
 8422TIP3    H246682   3.493   0.247  16.176  0.1578  0.9011  0.0746
 8423TIP3   OH246683   1.053   2.376   1.056 -0.6516 -0.1155 -0.4067
 8423TIP3    H146684   1.112   2.411   0.990 -1.0475  1.1884 -0.0963
 8423TIP3    H246685   1.104   2.378   1.137 -1.8759  3.8088  0.5129
 8424TIP3   OH246686   3.659   1.435  10.442  0.7100 -0.5849 -0.1052
 8424TIP3    H146687   3.745   1.439  10.484  2.2536 -4.7256 -2.2545
 8424TIP3    H246688   3.608   1.375  10.496 -0.3353  0.5484  0.2303
 8425TIP3   OH246689   5.827   2.688   1.092 -0.7087  0.1918  0.1320
 8425TIP3    H146690   5.763   2.696   1.021 -0.5207 -2.4094 -0.4291
 8425TIP3    H246691   5.787   2.626   1.153  2.1063 -3.4942 -1.4147
 8426TIP3   OH246692   5.198   2.478   5.071 -0.3404 -0.2484  0.4439
 8426TIP3    H146693   5.120   2.519   5.106  0.7285  1.1332  1.3297
 8426TIP3    H246694   5.232   2.424   5.143  0.5653  0.7129  0.7643
 8427TIP3   OH246695   0.364   5.134  16.495 -0.0318 -0.1425  0.0301
 8427TIP3    H146696   0.331   5.221  16.473  1.1431  0.7226  1.4982
 8427TIP3    H246697   0.337   5.120  16.586  1.3292 -0.5183  0.4110
 8428TIP3   OH246698   5.779   0.665  11.720  0.0414  0.1189 -0.4150
 8428TIP3    H146699   5.801   0.731  11.654  1.0629 -0.3143 -0.5304
 8428TIP3    H246700   5.688   0.641  11.702 -0.2013  1.1733 -0.6420
 8429TIP3   OH246701   1.208   0.630   3.620  0.5830 -0.2227 -0.1616
 8429TIP3    H146702   1.203   0.724   3.633 -0.1443 -0.1864 -0.5992
 8429TIP3    H246703   1.117   0.604   3.602  0.1806 -1.5155  3.1702
 8430TIP3   OH246704   1.904   0.865   1.894 -0.1059  0.7216  0.5689
 8430TIP3    H146705   1.874   0.780   1.925 -0.1623  0.7459  0.5812
 8430TIP3    H246706   1.943   0.847   1.809 -1.4743  0.9051 -0.1310
 8431TIP3   OH246707   3.608   5.272   3.142 -0.4435 -0.3878 -0.1615
 8431TIP3    H146708   3.521   5.234   3.146 -0.7764  0.2258 -1.1277
 8431TIP3    H246709   3.603   5.336   3.071  0.7429 -0.2151 -0.1155
 8432TIP3   OH246710   4.445   4.435   5.181 -0.5598 -0.2204 -0.3145
 8432TIP3    H146711   4.447   4.524   5.146 -1.6992 -0.0709 -0.0620
 8432TIP3    H246712   4.536   4.405   5.178 -0.1648  0.9460 -0.4085
 8433TIP3   OH246713   4.044   1.145   2.003 -0.0227 -0.0097 -0.7584
 8433TIP3    H146714   4.061   1.191   1.921  0.3777 -0.6423 -1.0298
 8433TIP3    H246715   3.971   1.194   2.042 -1.2390 -0.6083 -2.2112
 8434TIP3   OH246716   5.783   4.867  14.128 -0.3769 -0.3154 -0.2964
 8434TIP3    H146717   5.729   4.917  14.066  0.5189 -0.8032 -1.5217
 8434TIP3    H246718   5.727   4.795  14.156 -0.4726 -0.6944 -1.3941
 8435TIP3   OH246719   4.723   2.616  13.072 -0.1300  0.2215  0.0103
 8435TIP3    H146720   4.781   2.670  13.126 -0.1565  0.1813  0.0791
 8435TIP3    H246721   4.743   2.642  12.982 -0.5487  0.7578  0.0658
 8436TIP3   OH246722   4.782   3.051   5.519  0.1794  0.1166  0.0098
 8436TIP3    H146723   4.739   3.047   5.434  0.5535 -1.2582 -0.1215
 8436TIP3    H246724   4.713   3.082   5.579 -0.3971  0.0014 -0.5876
 8437TIP3   OH246725   5.160   2.071  14.497  0.1517 -0.0813  0.0969
 8437TIP3    H146726   5.138   1.986  14.535  0.3073  0.0978  0.5917
 8437TIP3    H246727   5.159   2.132  14.571  2.0417 -0.0117  0.1228
 8438TIP3   OH246728   4.392   5.250   0.634 -0.1015 -0.3278  0.5614
 8438TIP3    H146729   4.399   5.343   0.614  1.5977 -0.0474  2.1654
 8438TIP3    H246730   4.369   5.209   0.551  1.5478  1.2589 -0.7531
 8439TIP3   OH246731   4.560   6.490  10.591  0.3457  0.0508  0.4574
 8439TIP3    H146732   4.642   6.463  10.550 -0.1842  0.1490 -0.6913
 8439TIP3    H246733   4.526   6.411  10.632  1.5532  0.2465  1.9333
 8440TIP3   OH246734   4.244   3.014   5.521 -0.5726 -0.6164  0.0212
 8440TIP3    H146735   4.181   3.024   5.592 -2.7960 -0.4728 -1.8746
 8440TIP3    H246736   4.231   2.926   5.489 -2.7274  0.6385 -2.9183
 8441TIP3   OH246737   6.595   3.232  12.214 -0.0348  0.0987 -0.4515
 8441TIP3    H146738   6.502   3.245  12.234 -0.1503 -1.1216 -0.1228
 8441TIP3    H246739   6.597   3.148  12.167  1.0346 -0.4793  0.6081
 8442TIP3   OH246740   0.365   6.118   0.976  0.2169  0.2131 -0.4511
 8442TIP3    H146741   0.427   6.178   0.934  0.8817 -1.1442 -1.5156
 8442TIP3    H246742   0.389   6.032   0.941 -0.6313 -0.6879  1.0999
 8443TIP3   OH246743   2.882   3.314  10.705 -0.8705  0.2953  0.2542
 8443TIP3    H146744   2.841   3.400  10.713 -0.9306  0.4501 -1.2773
 8443TIP3    H246745   2.881   3.296  10.610  1.0726 -0.4271  0.3246
 8444TIP3   OH246746   2.474   2.594   5.552 -0.2600  0.2844 -0.5181
 8444TIP3    H146747   2.498   2.541   5.629 -0.2907 -0.5389 -1.0565
 8444TIP3    H246748   2.546   2.656   5.542  0.0940 -0.0754 -0.2368
 8445TIP3   OH246749   4.895   3.225  13.884  0.3538 -0.2311 -0.8697
 8445TIP3    H146750   4.812   3.272  13.881 -0.9095 -2.3381 -3.5409
 8445TIP3    H246751   4.946   3.261  13.812  1.0824 -0.1090 -0.3025
 8446TIP3   OH246752   0.867   0.647   2.918 -0.0468 -0.0919 -0.0330
 8446TIP3    H146753   0.868   0.575   2.855 -1.7877  0.0670 -0.2879
 8446TIP3    H246754   0.926   0.713   2.882  1.4451 -1.2985  0.1189
 8447TIP3   OH246755   0.356   6.681   6.012  0.2118 -0.0613  0.0020
 8447TIP3    H146756   0.303   6.666   5.933 -0.3716 -0.1109  0.4001
 8447TIP3    H246757   0.370   6.593   6.047  0.6253 -0.0546 -0.1413
 8448TIP3   OH246758   2.232   6.125   4.191  0.0797 -0.1147 -0.1385
 8448TIP3    H146759   2.288   6.196   4.221  0.3771 -1.0373  1.6106
 8448TIP3    H246760   2.208   6.150   4.101  1.7462  1.2093 -0.2684
 8449TIP3   OH246761   0.951   2.245  14.210  0.0690 -0.2798  0.0915
 8449TIP3    H146762   0.898   2.324  14.216 -1.5151 -1.2098 -0.9833
 8449TIP3    H246763   0.891   2.174  14.231  1.0213 -1.3455 -0.6895
 8450TIP3   OH246764   2.448   0.394  13.251  0.8362 -0.1153  0.0542
 8450TIP3    H146765   2.375   0.406  13.311  0.6291  0.7403 -0.3577
 8450TIP3    H246766   2.479   0.482  13.231  1.3404 -0.4147 -0.5573
 8451TIP3   OH246767   5.220   1.667   2.400  0.2480 -0.6991 -0.6683
 8451TIP3    H146768   5.312   1.682   2.383  0.2480  0.3308  0.1621
 8451TIP3    H246769   5.215   1.655   2.495 -0.7282  1.4256 -0.3937
 8452TIP3   OH246770   6.756   2.081  10.561 -0.4355 -0.1209  0.5209
 8452TIP3    H146771   6.726   1.996  10.527  0.8557  0.1447 -1.4624
 8452TIP3    H246772   6.805   2.059  10.640  0.6732 -1.3832 -0.4512
 8453TIP3   OH246773   5.234   5.091   2.587  0.5542  0.3383  0.0246
 8453TIP3    H146774   5.193   5.006   2.572 -0.9196  1.2367 -1.4379
 8453TIP3    H246775   5.303   5.097   2.521  0.1756  0.5392 -0.3642
 8454TIP3   OH246776   6.096   3.151  11.757 -0.1578 -0.5416 -0.4298
 8454TIP3    H146777   6.085   3.061  11.728 -0.4240 -0.8194  0.5155
 8454TIP3    H246778   6.007   3.188  11.756  0.0828  0.1074 -1.9982
 8455TIP3   OH246779   4.599   0.244  16.853 -0.0912  0.4832  0.2794
 8455TIP3    H146780   4.614   0.314  16.790 -1.6416  0.3798 -0.2531
 8455TIP3    H246781   4.686   0.207  16.869  0.7628  2.5103  0.5871
 8456TIP3   OH246782   3.066   5.808  15.192  0.0363  0.0415 -0.2955
 8456TIP3    H146783   3.124   5.858  15.134  0.5940 -1.5536 -1.1934
 8456TIP3    H246784   3.053   5.725  15.146 -2.0065 -0.1155  0.4697
 8457TIP3   OH246785   6.038   1.413  13.193  0.3210  0.5462 -0.1962
 8457TIP3    H146786   6.032   1.349  13.122  3.0947  2.5901 -2.4941
 8457TIP3    H246787   6.057   1.361  13.271 -0.6088 -1.6170 -1.3287
 8458TIP3   OH246788   2.748   5.637  12.013 -0.1192  0.1506  0.2776
 8458TIP3    H146789   2.840   5.617  12.029 -0.5059 -0.7297  1.6092
 8458TIP3    H246790   2.747   5.678  11.927  1.6286  1.0659  0.6462
 8459TIP3   OH246791   4.541   0.110   4.945  0.2005  0.0755 -0.8472
 8459TIP3    H146792   4.600   0.174   4.984 -1.7083  0.7745  1.1337
 8459TIP3    H246793   4.486   0.161   4.886  1.6387 -0.6166 -2.9034
 8460TIP3   OH246794   0.616   5.045  16.102  0.0044  0.1029  0.9125
 8460TIP3    H146795   0.676   5.117  16.084  0.7372 -0.6198  0.4200
 8460TIP3    H246796   0.533   5.073  16.063  0.4009  0.4751  0.3204
 8461TIP3   OH246797   0.332   1.696  14.353  0.1968  0.1748  0.8396
 8461TIP3    H146798   0.346   1.696  14.448  0.7659  1.0380  0.7718
 8461TIP3    H246799   0.416   1.669  14.316  0.3339  0.9554  0.5536
 8462TIP3   OH246800   2.884   5.833  14.441 -0.3419  0.9930  0.0460
 8462TIP3    H146801   2.805   5.858  14.488  0.9620 -0.7773  3.6306
 8462TIP3    H246802   2.951   5.895  14.471  0.4278  0.1135  0.2108
 8463TIP3   OH246803   4.680   0.360   0.162  0.2563 -0.8269 -0.2023
 8463TIP3    H146804   4.603   0.417   0.163 -0.3564 -1.6282  0.2839
 8463TIP3    H246805   4.662   0.298   0.091  0.8714 -0.4693 -0.6697
 8464TIP3   OH246806   2.973   1.119   4.719 -1.0379 -0.3128 -0.4659
 8464TIP3    H146807   2.941   1.187   4.778 -1.7138 -0.4518 -0.6651
 8464TIP3    H246808   3.011   1.053   4.777 -1.3282 -0.2585 -0.2126
 8465TIP3   OH246809   0.119   1.718  15.297  0.2569  1.0736  0.2527
 8465TIP3    H146810   0.034   1.745  15.263 -0.0789 -0.2116  0.0168
 8465TIP3    H246811   0.152   1.656  15.232  2.6154  3.4891 -1.0540
 8466TIP3   OH246812   2.105   5.586  11.630 -0.2884 -0.0988  0.1243
 8466TIP3    H146813   2.145   5.591  11.717 -1.1189 -0.9293  0.5706
 8466TIP3    H246814   2.011   5.581  11.648 -0.3911 -1.8830 -0.7417
 8467TIP3   OH246815   4.975   4.688   2.740 -0.0774  0.3377 -0.2503
 8467TIP3    H146816   4.951   4.596   2.730  0.1840  0.1424  0.7933
 8467TIP3    H246817   4.900   4.736   2.704  0.2315 -0.2584 -1.7779
 8468TIP3   OH246818   6.156   5.689  11.738  0.7058 -0.2876  0.1721
 8468TIP3    H146819   6.222   5.683  11.807 -1.8671 -0.1255  2.8282
 8468TIP3    H246820   6.122   5.600  11.730 -1.2262  0.2812  1.5221
 8469TIP3   OH246821   2.477   6.180   2.833  0.0055  0.1330 -0.6558
 8469TIP3    H146822   2.438   6.129   2.762  0.3730 -1.0190 -0.0458
 8469TIP3    H246823   2.552   6.129   2.863  0.5999  1.1953 -0.2449
 8470TIP3   OH246824   2.679   2.576  12.292 -0.0015  0.1691  0.9215
 8470TIP3    H146825   2.734   2.565  12.214  0.7020  2.0689  1.0919
 8470TIP3    H246826   2.740   2.566  12.365 -0.1248  1.0674  1.1490
 8471TIP3   OH246827   1.155   2.272   5.244 -0.5690 -0.3112  0.1735
 8471TIP3    H146828   1.185   2.222   5.319 -2.7778  1.0492  2.1104
 8471TIP3    H246829   1.060   2.276   5.254 -1.0908 -0.8308 -3.2400
 8472TIP3   OH246830   6.093   5.833   4.765  0.0925 -0.1474  0.2271
 8472TIP3    H146831   6.089   5.926   4.784 -0.9327 -0.3994  1.3209
 8472TIP3    H246832   6.040   5.822   4.686  0.5954  0.2517 -0.1716
 8473TIP3   OH246833   0.624   4.687  16.481 -0.4702 -0.2897  0.0851
 8473TIP3    H146834   0.626   4.773  16.438 -2.3546  0.3663  1.1712
 8473TIP3    H246835   0.641   4.624  16.411 -0.6218  0.8888 -1.0459
 8474TIP3   OH246836   2.775   6.670   2.187  0.1130 -0.0174 -0.4656
 8474TIP3    H146837   2.725   6.673   2.106  0.5677  0.6167 -0.7346
 8474TIP3    H246838   2.811   6.758   2.196 -0.2085  0.0154  0.6070
 8475TIP3   OH246839   5.989   4.582   3.281 -1.2448 -0.1514  0.6686
 8475TIP3    H146840   5.967   4.489   3.281 -2.2417  0.0615  0.1504
 8475TIP3    H246841   6.079   4.585   3.249 -1.4833 -0.8917 -0.1351
 8476TIP3   OH246842   1.338   1.187   0.232  0.7350  0.0662  0.0227
 8476TIP3    H146843   1.329   1.226   0.319 -0.1312 -0.6119  0.2583
 8476TIP3    H246844   1.401   1.116   0.244 -0.1689 -0.7080  0.3621
 8477TIP3   OH246845   1.783   6.266   4.392  0.2179 -0.2635  0.0783
 8477TIP3    H146846   1.767   6.257   4.298  0.6812  0.4644 -0.0728
 8477TIP3    H246847   1.725   6.201   4.431 -0.5664 -0.0464 -0.6658
 8478TIP3   OH246848   3.669   0.583   2.587 -0.1214  0.6188 -0.8880
 8478TIP3    H146849   3.612   0.660   2.596  0.5603  0.9258  1.1990
 8478TIP3    H246850   3.628   0.516   2.640 -0.3954 -0.3301 -2.2380
 8479TIP3   OH246851   5.336   3.189   4.254 -0.5628 -0.3404 -0.2020
 8479TIP3    H146852   5.332   3.145   4.169  2.5939 -1.2995  0.0064
 8479TIP3    H246853   5.426   3.175   4.284 -0.9603  1.7528  2.3693
 8480TIP3   OH246854   1.841   5.202  16.932 -0.1216  0.3755 -0.0332
 8480TIP3    H146855   1.844   5.262  16.858 -0.1028  1.3167  0.7106
 8480TIP3    H246856   1.877   5.252  17.005 -0.3329 -0.4595  0.6603
 8481TIP3   OH246857   5.496   1.319  12.330  0.4192 -0.2328 -0.6524
 8481TIP3    H146858   5.536   1.372  12.399  2.7833 -0.9807 -1.3556
 8481TIP3    H246859   5.556   1.246  12.318 -1.2708 -1.5156 -1.7332
 8482TIP3   OH246860   4.123   0.151  11.099  0.5433  0.1305 -0.3683
 8482TIP3    H146861   4.080   0.193  11.173  1.1505  1.7716 -0.9067
 8482TIP3    H246862   4.053   0.101  11.056 -0.0154 -0.0920  0.7611
 8483TIP3   OH246863   5.072   5.192  11.329 -0.1881 -0.0441  0.0312
 8483TIP3    H146864   5.005   5.177  11.262 -1.1455 -1.6757  1.2775
 8483TIP3    H246865   5.115   5.107  11.340 -0.0212  0.1893  1.4280
 8484TIP3   OH246866   2.540   2.861   0.180 -0.3857 -0.0827  0.2620
 8484TIP3    H146867   2.530   2.803   0.256  0.0396 -0.1480  0.2726
 8484TIP3    H246868   2.634   2.857   0.160 -0.6166 -0.6796 -0.7588
 8485TIP3   OH246869   0.670   5.443   3.834 -0.2700 -0.1921 -0.3991
 8485TIP3    H146870   0.648   5.532   3.808 -0.7316 -0.2347 -0.1631
 8485TIP3    H246871   0.595   5.414   3.886 -0.2288 -0.7999 -0.6670
 8486TIP3   OH246872   3.674   5.215  11.818  0.2974 -0.6394  0.4629
 8486TIP3    H146873   3.636   5.296  11.852 -0.5771 -1.3622  1.2763
 8486TIP3    H246874   3.630   5.201  11.734  0.6534 -0.1391  0.1871
 8487TIP3   OH246875   4.503   2.628  11.188 -0.5417 -0.0017 -0.0555
 8487TIP3    H146876   4.580   2.649  11.136 -2.3023  5.5396 -1.0606
 8487TIP3    H246877   4.519   2.669  11.273 -0.9894 -2.0254  1.0772
 8488TIP3   OH246878   2.773   1.636   1.126  0.0124  0.4076  0.1911
 8488TIP3    H146879   2.743   1.591   1.204 -1.6347  0.8653 -0.1450
 8488TIP3    H246880   2.784   1.727   1.153 -1.5858  0.7864 -0.3151
 8489TIP3   OH246881   4.986   4.224  11.747 -0.2526  0.6518 -0.7141
 8489TIP3    H146882   4.955   4.314  11.754 -0.9299  0.3416  3.7564
 8489TIP3    H246883   4.911   4.174  11.716 -1.7506  1.0452  1.9788
 8490TIP3   OH246884   0.184   0.665  12.671  0.2425  0.6159  0.1513
 8490TIP3    H146885   0.197   0.599  12.739  0.4325  1.9628  1.4612
 8490TIP3    H246886   0.090   0.677  12.666  0.1566 -0.2948 -0.6449
 8491TIP3   OH246887   0.604   1.923   4.459  1.0308 -0.2365 -0.5601
 8491TIP3    H146888   0.516   1.927   4.421  1.1597 -0.4051 -0.8834
 8491TIP3    H246889   0.653   1.866   4.399  1.4511  0.1294 -0.5681
 8492TIP3   OH246890   6.378   2.653   0.554 -0.2823  0.0670  0.1323
 8492TIP3    H146891   6.328   2.588   0.604  0.1988  0.3834  1.0371
 8492TIP3    H246892   6.425   2.602   0.488 -2.2391 -0.1895 -1.1540
 8493TIP3   OH246893   2.023   0.804   0.150 -0.1359  0.0688  0.0117
 8493TIP3    H146894   1.994   0.721   0.189  0.1956 -0.0096  0.0928
 8493TIP3    H246895   2.072   0.848   0.220 -0.9487  0.6735  0.2070
 8494TIP3   OH246896   6.027   6.294   5.520 -0.6508 -0.4372 -0.0963
 8494TIP3    H146897   6.116   6.284   5.553 -0.2167  0.8528 -0.7796
 8494TIP3    H246898   5.989   6.365   5.572 -1.4241 -1.2140  0.4339
 8495TIP3   OH246899   5.328   0.370  10.417 -0.5218 -0.2454 -0.0605
 8495TIP3    H146900   5.308   0.287  10.461 -1.3343  0.0238  0.0923
 8495TIP3    H246901   5.251   0.388  10.363 -0.8150  0.9132  0.6913
 8496TIP3   OH246902   3.301   2.035   6.201 -0.1131  0.4365 -0.3545
 8496TIP3    H146903   3.303   2.102   6.270  0.5150 -0.3535  0.4141
 8496TIP3    H246904   3.359   2.070   6.133  2.8275 -0.6715  1.3787
 8497TIP3   OH246905   5.428   4.959   5.706 -0.7635  0.3491  0.4648
 8497TIP3    H146906   5.522   4.941   5.703 -0.7992  0.2605 -0.4760
 8497TIP3    H246907   5.395   4.903   5.777 -0.2820 -0.4635  0.0687
 8498TIP3   OH246908   0.022   2.046   5.742  0.1894  0.2999 -0.2293
 8498TIP3    H146909  -0.011   1.962   5.713 -0.1602  0.6194 -0.7793
 8498TIP3    H246910  -0.031   2.068   5.819 -0.5407  0.5642 -0.7938
 8499TIP3   OH246911   0.826   6.704  13.242 -0.2889  0.0581  0.8656
 8499TIP3    H146912   0.893   6.768  13.217  0.1058 -0.5972  0.2177
 8499TIP3    H246913   0.747   6.733  13.195  0.5070 -1.3169 -1.5029
 8500TIP3   OH246914   3.216   5.002  11.011  0.7504  0.0404 -0.3434
 8500TIP3    H146915   3.212   4.937  10.941 -0.2922 -0.2101 -0.0615
 8500TIP3    H246916   3.188   4.955  11.090 -1.2395  1.1022 -0.3495
 8501TIP3   OH246917   4.466   0.376  12.030 -0.0256  0.5262  0.4646
 8501TIP3    H146918   4.464   0.471  12.021  0.0658  0.4379 -0.6733
 8501TIP3    H246919   4.529   0.347  11.964  1.7549 -0.1771  2.3743
 8502TIP3   OH246920   6.644   5.005  16.753 -0.1918  0.2656 -0.1392
 8502TIP3    H146921   6.661   4.914  16.725 -0.4161  0.7511 -2.0204
 8502TIP3    H246922   6.724   5.031  16.800 -0.0992 -0.8766  0.3685
 8503TIP3   OH246923   1.947   0.626   5.358 -0.3928 -0.1273  0.2089
 8503TIP3    H146924   1.942   0.579   5.442 -0.2184  0.4201  0.5321
 8503TIP3    H246925   1.921   0.562   5.293 -0.8146 -0.4823  0.7180
 8504TIP3   OH246926   4.599   4.496  14.743  0.3705  0.3956 -0.2881
 8504TIP3    H146927   4.668   4.524  14.683  1.1647  0.1150  0.4812
 8504TIP3    H246928   4.631   4.414  14.781 -1.9575 -1.7892 -2.6081
 8505TIP3   OH246929   4.289   5.333   1.900  0.1369 -0.0256 -0.2431
 8505TIP3    H146930   4.245   5.388   1.965  2.0675  0.3675  0.8344
 8505TIP3    H246931   4.218   5.290   1.853 -1.3796 -0.3007  2.1053
 8506TIP3   OH246932   0.544   0.688   6.175 -0.3712 -0.0282  0.0973
 8506TIP3    H146933   0.635   0.717   6.168 -0.8676  1.6837  0.2218
 8506TIP3    H246934   0.549   0.601   6.215  1.2188 -0.0885 -0.1809
 8507TIP3   OH246935   3.651   0.336  15.407 -1.0830 -0.4364  0.1708
 8507TIP3    H146936   3.685   0.321  15.320 -0.0063 -0.5412  0.6019
 8507TIP3    H246937   3.587   0.265  15.421 -0.1072 -1.3496  0.0737
 8508TIP3   OH246938   2.381   6.102  11.137 -0.3099 -0.5509 -0.6689
 8508TIP3    H146939   2.349   6.016  11.112 -0.5507 -0.2370 -1.4697
 8508TIP3    H246940   2.317   6.163  11.100 -0.3765 -0.0401  0.2418
 8509TIP3   OH246941   1.892   6.631  10.493  0.4283 -0.2383  0.0385
 8509TIP3    H146942   1.850   6.717  10.496 -0.1415 -0.5239  0.5017
 8509TIP3    H246943   1.819   6.569  10.488  0.8097 -0.7192  0.3412
 8510TIP3   OH246944   3.146   3.587  10.519  0.0162  0.4995 -0.4848
 8510TIP3    H146945   3.211   3.656  10.504  0.4281  0.1020 -0.5541
 8510TIP3    H246946   3.118   3.601  10.610 -0.1740  0.9793 -0.6118
 8511TIP3   OH246947   0.926   5.312   5.701 -0.1278  0.0339  0.0128
 8511TIP3    H146948   0.948   5.397   5.664 -0.8141  0.3861  0.4140
 8511TIP3    H246949   0.993   5.296   5.767  1.7927 -1.0961 -2.0495
 8512TIP3   OH246950   5.402   6.596  14.241  0.1221  0.6666  0.3724
 8512TIP3    H146951   5.366   6.585  14.328 -0.0041 -0.4049  0.1973
 8512TIP3    H246952   5.464   6.524  14.231 -0.6509  0.1223 -0.8119
 8513TIP3   OH246953   4.126   3.516  16.096 -0.0374  0.2130  0.0580
 8513TIP3    H146954   4.125   3.608  16.070 -0.0260  0.1851 -0.0410
 8513TIP3    H246955   4.034   3.493  16.111  0.0732  0.7338  1.8219
 8514TIP3   OH246956   0.677   5.212   4.777  0.4424  0.0780  0.4791
 8514TIP3    H146957   0.763   5.209   4.818  0.5913 -3.0305  0.2165
 8514TIP3    H246958   0.624   5.152   4.829 -1.1497  0.7901 -0.2516
 8515TIP3   OH246959   1.698   2.873  15.333 -0.2324 -0.3043 -0.1217
 8515TIP3    H146960   1.644   2.794  15.336  1.4073 -1.4928 -0.3808
 8515TIP3    H246961   1.760   2.857  15.262 -0.0743  1.3645 -0.3891
 8516TIP3   OH246962   4.905   3.500   4.818  0.2589 -0.3374  0.3590
 8516TIP3    H146963   4.917   3.549   4.899  1.0716  0.8111 -0.4017
 8516TIP3    H246964   4.919   3.566   4.749  0.7658 -1.5252 -0.7081
 8517TIP3   OH246965   1.075   2.346   5.548  0.2524 -0.0396 -0.4553
 8517TIP3    H146966   1.098   2.265   5.504  1.3928  0.2848 -0.4914
 8517TIP3    H246967   1.141   2.355   5.617  0.8774  1.4524 -1.2117
 8518TIP3   OH246968   4.763   1.606  15.488  0.2915 -0.4361 -0.1952
 8518TIP3    H146969   4.678   1.562  15.495  1.1791 -2.2545 -0.0594
 8518TIP3    H246970   4.773   1.624  15.395 -0.6236  0.6402 -0.1029
 8519TIP3   OH246971   1.457   3.025  14.762 -0.0486 -0.5225 -0.0969
 8519TIP3    H146972   1.501   2.950  14.801  0.5423 -0.2731 -0.2809
 8519TIP3    H246973   1.373   2.990  14.732  1.0325 -1.6026 -2.0161
 8520TIP3   OH246974   5.486   4.773   2.245  0.3859 -0.0363 -0.7869
 8520TIP3    H146975   5.481   4.829   2.323 -4.0812 -0.0710 -0.8134
 8520TIP3    H246976   5.500   4.834   2.173 -1.5322  0.7821 -0.5131
 8521TIP3   OH246977   2.044   1.815   3.565  0.5617 -0.1462  0.0668
 8521TIP3    H146978   2.072   1.833   3.475  0.1179  0.8883  0.1109
 8521TIP3    H246979   2.099   1.743   3.594  0.0373 -1.1793 -1.3702
 8522TIP3   OH246980   4.131   5.472   2.141  0.2866  0.5343  0.0650
 8522TIP3    H146981   4.059   5.411   2.132  0.8252  0.0321 -1.2011
 8522TIP3    H246982   4.184   5.438   2.213  0.4737 -0.3957 -0.4987
 8523TIP3   OH246983   4.379   4.329   3.780 -0.7076  0.8212 -0.3630
 8523TIP3    H146984   4.452   4.328   3.842  0.9164  0.2534 -2.1518
 8523TIP3    H246985   4.308   4.283   3.824  0.6872 -0.3526  0.7488
 8524TIP3   OH246986   4.135   0.325   2.256  0.5693 -0.3837 -0.0116
 8524TIP3    H146987   4.091   0.398   2.214 -0.1383 -0.0098  1.3088
 8524TIP3    H246988   4.167   0.360   2.339 -0.2937 -1.6846  0.9144
 8525TIP3   OH246989   1.578   6.634  12.150 -0.4003 -0.4631 -0.2979
 8525TIP3    H146990   1.494   6.589  12.143 -0.4145 -0.6537  0.9667
 8525TIP3    H246991   1.564   6.718  12.106 -1.9233  0.4178  1.7015
 8526TIP3   OH246992   3.941   2.995  13.133  0.4129  0.0800  0.4263
 8526TIP3    H146993   3.990   2.950  13.064  2.2333  0.3779  1.4661
 8526TIP3    H246994   4.000   2.996  13.208 -2.0437 -1.6403  2.5757
 8527TIP3   OH246995   5.655   5.322   5.014 -0.2091  0.1439 -1.2145
 8527TIP3    H146996   5.711   5.378   4.960  0.1893 -0.2294 -1.1993
 8527TIP3    H246997   5.603   5.382   5.066 -1.5711  0.5454 -2.9676
 8528TIP3   OH246998   3.144   1.149   5.059 -0.2944 -0.0911  0.2732
 8528TIP3    H146999   3.231   1.185   5.042  0.7628 -2.5608  0.0021
 8528TIP3    H247000   3.110   1.201   5.132  1.4179  0.9086  0.4080
 8529TIP3   OH247001   1.915   2.558  13.648  0.5711  0.2679 -0.0332
 8529TIP3    H147002   1.866   2.546  13.567  2.1850 -1.1952 -0.8741
 8529TIP3    H247003   1.902   2.650  13.671 -1.0992  0.3575 -1.1339
 8530TIP3   OH247004   2.993   6.548   0.562  0.2349  0.1021 -0.1959
 8530TIP3    H147005   2.935   6.621   0.540 -0.8005 -0.6623 -0.0959
 8530TIP3    H247006   3.079   6.575   0.531 -0.3910  0.7919 -1.4046
 8531TIP3   OH247007   4.379   4.652   5.605  0.3603 -0.7763  0.3401
 8531TIP3    H147008   4.422   4.578   5.563 -0.9263 -1.5951  0.4182
 8531TIP3    H247009   4.389   4.724   5.543  0.3516 -1.4098 -0.4024
 8532TIP3   OH247010   5.857   5.954   5.891 -0.6882  0.4222  0.3164
 8532TIP3    H147011   5.852   5.859   5.906  0.1216  0.3432  0.1218
 8532TIP3    H247012   5.838   5.993   5.976 -2.5593  0.1364  0.0760
 8533TIP3   OH247013   2.393   6.467   2.699  0.0700  0.4598 -0.2997
 8533TIP3    H147014   2.460   6.533   2.677 -0.8607  1.1114 -1.2924
 8533TIP3    H247015   2.314   6.498   2.655 -0.9061 -0.2857  0.8682
 8534TIP3   OH247016   0.417   6.320  11.736  0.7800  0.3237 -0.4795
 8534TIP3    H147017   0.482   6.257  11.765  0.6352 -0.0132 -0.8831
 8534TIP3    H247018   0.415   6.386  11.805 -0.1067 -0.8546  0.6587
 8535TIP3   OH247019   4.060   3.908   0.373  0.1299  0.0563 -0.2805
 8535TIP3    H147020   4.118   3.984   0.366 -0.0710  0.2787  0.4127
 8535TIP3    H247021   4.098   3.855   0.443 -1.0238  0.6790  0.8499
 8536TIP3   OH247022   0.175   4.989   5.432  0.4267  1.1110 -0.1671
 8536TIP3    H147023   0.079   4.993   5.432  0.4267  1.7648  1.2381
 8536TIP3    H247024   0.200   5.020   5.344 -0.6416  0.8811 -0.5688
 8537TIP3   OH247025   6.300   0.271   1.863  0.2239 -0.7544  0.2479
 8537TIP3    H147026   6.271   0.261   1.772  1.7534 -1.4514 -0.1885
 8537TIP3    H247027   6.293   0.365   1.880 -2.2988 -0.8600  0.2215
 8538TIP3   OH247028   2.980   2.410   6.016 -0.1186  0.4465 -0.1401
 8538TIP3    H147029   3.064   2.396   6.058 -0.2676  1.3008  0.4924
 8538TIP3    H247030   2.916   2.391   6.085 -0.3383  3.4256  0.6382
 8539TIP3   OH247031   0.885   6.697  14.157  0.6450 -0.1430  0.4319
 8539TIP3    H147032   0.977   6.671  14.157  0.0560 -2.4416 -0.0014
 8539TIP3    H247033   0.885   6.786  14.122  2.7257  0.0544  0.8265
 8540TIP3   OH247034   3.753   2.394   4.181 -0.1042 -0.4579  0.5742
 8540TIP3    H147035   3.820   2.459   4.159 -0.7273  0.0962  0.2794
 8540TIP3    H247036   3.792   2.310   4.156  0.6970 -0.2080  0.9232
 8541TIP3   OH247037   3.296   2.276  15.334  0.0753 -0.5842  0.5050
 8541TIP3    H147038   3.390   2.293  15.324  0.8404 -2.3089  3.4265
 8541TIP3    H247039   3.259   2.360  15.360  0.8326  0.0354 -0.3361
 8542TIP3   OH247040   4.805   1.243   4.330 -0.4091  0.4738  0.3106
 8542TIP3    H147041   4.718   1.254   4.368 -0.3331 -0.3915  0.7649
 8542TIP3    H247042   4.864   1.241   4.405 -0.0940  0.2257  0.0558
 8543TIP3   OH247043   6.321   1.408  16.054  0.2751  0.2671  0.0805
 8543TIP3    H147044   6.321   1.367  16.141  0.7229  0.8109  0.3410
 8543TIP3    H247045   6.354   1.496  16.069 -0.0695  0.5114 -0.5794
 8544TIP3   OH247046   2.214   2.065  16.968 -0.1368  0.3150 -0.2826
 8544TIP3    H147047   2.131   2.069  16.920 -0.7941 -1.3930  0.6413
 8544TIP3    H247048   2.190   2.075  17.060  0.7513  0.3787 -0.0473
 8545TIP3   OH247049   5.838   0.741   1.845 -0.2040  0.3323  0.4161
 8545TIP3    H147050   5.877   0.699   1.922 -0.2600  1.2701  0.9711
 8545TIP3    H247051   5.904   0.731   1.776  0.0254 -0.1333  0.6972
 8546TIP3   OH247052   3.059   4.754   1.566 -0.2266 -0.2109 -0.4466
 8546TIP3    H147053   2.986   4.799   1.522  0.0250  1.1376  0.4311
 8546TIP3    H247054   3.104   4.707   1.496 -0.6389  0.7670 -1.4037
 8547TIP3   OH247055   1.043   3.639  16.355 -0.3709 -0.3629 -0.3223
 8547TIP3    H147056   1.001   3.711  16.308 -1.4543 -0.7859 -0.0369
 8547TIP3    H247057   0.970   3.591  16.395  0.4832 -0.0021  1.8252
 8548TIP3   OH247058   4.588   5.191  15.631  0.3968  0.2710  0.4848
 8548TIP3    H147059   4.518   5.178  15.567 -0.9648  1.2746  1.7113
 8548TIP3    H247060   4.665   5.215  15.579 -0.1947 -0.6783 -0.8718
 8549TIP3   OH247061   3.236   4.306   4.086  0.2084 -0.3715  0.3987
 8549TIP3    H147062   3.155   4.256   4.081  1.2522 -2.3496  1.7620
 8549TIP3    H247063   3.240   4.337   4.176  2.1313 -2.5748  1.1823
 8550TIP3   OH247064   2.817   3.450  12.340 -0.7248 -0.3443 -0.1496
 8550TIP3    H147065   2.765   3.431  12.262  0.1525  0.2167 -0.8949
 8550TIP3    H247066   2.887   3.385  12.339  0.6083  1.0477 -1.1154
 8551TIP3   OH247067   2.123   4.894   5.674 -0.3069  0.3957  0.1180
 8551TIP3    H147068   2.176   4.887   5.753 -1.1634 -1.5679  0.5812
 8551TIP3    H247069   2.052   4.955   5.698 -1.1088 -0.9295  1.2283
 8552TIP3   OH247070   2.192   5.752  13.204 -0.2809 -0.6083 -0.7092
 8552TIP3    H147071   2.202   5.710  13.289 -2.5645 -1.4943 -0.8178
 8552TIP3    H247072   2.281   5.754  13.168  0.9608  0.8230  2.1081
 8553TIP3   OH247073   6.611   0.645  15.008 -0.7490  0.0596 -0.9824
 8553TIP3    H147074   6.666   0.648  14.930  1.1580 -1.9906  0.1810
 8553TIP3    H247075   6.550   0.573  14.992  0.9199 -1.6790  0.1172
 8554TIP3   OH247076   6.081   5.052  13.600  0.4442  0.1284  0.0148
 8554TIP3    H147077   5.997   5.013  13.576 -0.2456  2.1900 -1.1758
 8554TIP3    H247078   6.127   4.982  13.646 -1.8728 -1.1015  0.6408
 8555TIP3   OH247079   4.949   6.706   1.528  0.0991 -0.6031  0.8409
 8555TIP3    H147080   5.021   6.690   1.467  0.7932  2.2503  0.8033
 8555TIP3    H247081   4.870   6.695   1.475  0.6505  0.2042 -0.1835
 8556TIP3   OH247082   0.058   0.958  14.321  0.1565  0.1554 -0.0928
 8556TIP3    H147083  -0.009   1.026  14.321  0.5987  0.6008 -0.1575
 8556TIP3    H247084   0.141   1.006  14.326  0.5339 -0.3234 -1.3208
 8557TIP3   OH247085   5.183   6.602  16.467 -0.0637 -0.0414  0.0864
 8557TIP3    H147086   5.179   6.697  16.454  0.7561 -0.0699 -0.4631
 8557TIP3    H247087   5.108   6.582  16.522 -0.4017  0.8919 -0.0191
 8558TIP3   OH247088   4.255   5.165   5.746 -1.1024 -0.2794 -0.6435
 8558TIP3    H147089   4.272   5.113   5.824 -0.3579 -0.1310 -0.6981
 8558TIP3    H247090   4.228   5.250   5.779  0.5787  0.2410 -0.5082
 8559TIP3   OH247091   0.603   0.895   0.604 -0.6287 -0.4533 -0.0122
 8559TIP3    H147092   0.539   0.825   0.614 -0.9655 -0.3399 -1.2129
 8559TIP3    H247093   0.628   0.892   0.512 -0.4602  0.8330 -0.0315
 8560TIP3   OH247094   0.524   4.040   3.308 -0.2778  0.2178  0.0526
 8560TIP3    H147095   0.511   4.099   3.233 -0.1784  1.7709  1.2156
 8560TIP3    H247096   0.533   4.099   3.383  1.0905 -1.2492  1.0892
 8561TIP3   OH247097   3.076   5.577   6.523 -0.1694 -0.4496 -0.0867
 8561TIP3    H147098   2.998   5.616   6.485  0.7491  1.0588 -0.5229
 8561TIP3    H247099   3.052   5.557   6.614 -0.7747  0.9098  0.0723
 8562TIP3   OH247100   0.975   2.220  13.309 -0.3835 -0.3255  0.2024
 8562TIP3    H147101   0.995   2.217  13.402  1.6266  0.1441 -0.1782
 8562TIP3    H247102   1.029   2.151  13.270 -0.7561 -0.1281 -0.7055
 8563TIP3   OH247103   6.758   4.249   6.259  0.5936 -0.4332 -0.0795
 8563TIP3    H147104   6.845   4.262   6.296  1.6256  0.3656 -2.5525
 8563TIP3    H247105   6.743   4.328   6.206 -0.1399 -1.9986 -2.3820
 8564TIP3   OH247106   4.727   6.173  16.650  0.3031  0.2936 -0.2418
 8564TIP3    H147107   4.699   6.263  16.661 -1.2911 -0.0139 -1.4412
 8564TIP3    H247108   4.660   6.121  16.695 -0.8815 -0.4257 -2.6327
 8565TIP3   OH247109   3.558   1.286   5.463 -0.0423  0.2089  0.3599
 8565TIP3    H147110   3.543   1.308   5.555  0.1176 -1.4100  0.8069
 8565TIP3    H247111   3.484   1.326   5.417 -0.4430  0.5479  1.2720
 8566TIP3   OH247112   3.873   5.280  11.270 -0.3803 -0.1123  0.0986
 8566TIP3    H147113   3.935   5.352  11.274  0.1839 -0.6148  0.5384
 8566TIP3    H247114   3.806   5.309  11.208  1.0213 -0.1252 -1.5020
 8567TIP3   OH247115   0.336   3.039   2.000  0.3925  0.5865  0.2204
 8567TIP3    H147116   0.347   2.944   1.988  0.7497  0.6770 -0.1772
 8567TIP3    H247117   0.247   3.048   2.034  0.7589  0.0168  1.3919
 8568TIP3   OH247118   2.298   6.655  14.853 -0.0367  0.6046 -0.1983
 8568TIP3    H147119   2.252   6.621  14.777  1.3515 -0.6596 -0.5211
 8568TIP3    H247120   2.272   6.747  14.858 -4.2825 -0.4306  0.9688
 8569TIP3   OH247121   4.243   0.950   2.673  0.3794 -0.9030  0.6573
 8569TIP3    H147122   4.189   0.926   2.748  0.1080 -0.9151  0.4599
 8569TIP3    H247123   4.190   0.927   2.596  0.4745 -0.4942  0.4647
 8570TIP3   OH247124   6.694   5.233  14.019 -0.2851 -0.5010  0.2740
 8570TIP3    H147125   6.766   5.251  13.959 -0.0268 -1.8407  0.1570
 8570TIP3    H247126   6.616   5.261  13.972  0.0637  0.0091 -0.0116
 8571TIP3   OH247127   5.043   0.629  13.623 -0.2327 -0.1286 -0.5112
 8571TIP3    H147128   5.079   0.652  13.537  2.1891 -0.8451  0.2360
 8571TIP3    H247129   4.993   0.706  13.650  1.0732  1.0921 -1.4742
 8572TIP3   OH247130   0.552   1.955  16.869 -0.0474 -0.5441 -0.3827
 8572TIP3    H147131   0.586   1.944  16.780  0.5004  1.0058 -0.3918
 8572TIP3    H247132   0.559   2.049  16.886 -1.5257 -0.6110  0.7630
 8573TIP3   OH247133   3.743   4.192  11.097 -0.0283 -0.1845  0.2320
 8573TIP3    H147134   3.698   4.154  11.021 -0.0402  2.5648 -1.2651
 8573TIP3    H247135   3.675   4.199  11.164 -0.8817  0.3844 -0.6637
 8574TIP3   OH247136   4.515   0.926   1.830  0.0651  0.2441 -0.2214
 8574TIP3    H147137   4.446   0.969   1.880  1.0505  0.7976  0.7040
 8574TIP3    H247138   4.498   0.832   1.841 -2.0669  0.3174 -2.2120
 8575TIP3   OH247139   2.963   2.985  13.222 -0.0339 -0.7231 -0.4647
 8575TIP3    H147140   2.897   3.006  13.288 -1.0665  0.5041 -1.8144
 8575TIP3    H247141   3.027   3.056  13.230 -0.2863 -0.4389 -0.9224
 8576TIP3   OH247142   1.173   6.715  14.190 -0.1051 -0.4247  0.3584
 8576TIP3    H147143   1.245   6.777  14.176 -1.2720  0.8851 -0.0951
 8576TIP3    H247144   1.182   6.651  14.120 -0.5439  0.8917 -0.9455
 8577TIP3   OH247145   6.303   2.885  15.937  0.0389  0.1342  0.5359
 8577TIP3    H147146   6.235   2.857  15.875 -0.3881  0.5957  0.7887
 8577TIP3    H247147   6.373   2.918  15.881  0.4060 -1.0929  0.2425
 8578TIP3   OH247148   4.417   5.594   5.425 -0.4068  0.0591  0.6052
 8578TIP3    H147149   4.497   5.602   5.476 -1.1392 -1.7127  2.1361
 8578TIP3    H247150   4.352   5.646   5.473 -0.9362 -1.0990  1.1933
 8579TIP3   OH247151   2.048   2.880   4.128 -0.1024 -0.0399 -0.6849
 8579TIP3    H147152   2.135   2.841   4.116 -0.1597 -1.0615  1.6759
 8579TIP3    H247153   1.991   2.805   4.145 -1.5395  0.6044 -2.3951
 8580TIP3   OH247154   0.454   1.522   0.471 -0.3488 -0.2392  0.1000
 8580TIP3    H147155   0.507   1.473   0.407 -1.0098  1.4444 -1.8401
 8580TIP3    H247156   0.369   1.477   0.470 -0.4075 -0.1290 -0.3577
 8581TIP3   OH247157   0.974   5.466  12.332 -0.3622  0.4761  0.1712
 8581TIP3    H147158   1.017   5.383  12.351  0.1663  1.0703  1.6426
 8581TIP3    H247159   0.884   5.454  12.363 -0.7347 -0.0655 -1.0592
 8582TIP3   OH247160   1.089   1.168   0.494 -0.2440 -0.7608 -0.2576
 8582TIP3    H147161   1.133   1.251   0.478 -2.1333  0.5087  0.8677
 8582TIP3    H247162   1.041   1.150   0.413 -1.0429  0.0273  0.0366
 8583TIP3   OH247163   4.982   5.978  14.243  0.4758 -0.0211  0.0640
 8583TIP3    H147164   4.994   5.952  14.152  0.9650  2.2688 -0.5892
 8583TIP3    H247165   5.034   5.915  14.293  0.3847 -1.1742 -1.2293
 8584TIP3   OH247166   4.750   2.349   5.024  0.2845  0.2275  0.8474
 8584TIP3    H147167   4.677   2.322   4.967  1.1387 -0.8216  0.2031
 8584TIP3    H247168   4.829   2.325   4.974  1.0650 -1.0784  2.6188
 8585TIP3   OH247169   5.961   1.729   0.586  0.3603 -0.0921 -0.3568
 8585TIP3    H147170   6.009   1.648   0.567  1.3210  0.0757  1.2550
 8585TIP3    H247171   5.953   1.731   0.681  0.3080  1.6842 -0.3647
 8586TIP3   OH247172   4.744   5.255   2.288  0.2474 -0.0201  0.2216
 8586TIP3    H147173   4.702   5.330   2.246  1.1940  0.1708 -0.4218
 8586TIP3    H247174   4.836   5.261   2.261  0.8441 -0.0403  2.1431
 8587TIP3   OH247175   6.438   0.250   3.107  0.1819  0.3065  0.0467
 8587TIP3    H147176   6.347   0.279   3.107  0.7535  2.3267 -1.6647
 8587TIP3    H247177   6.471   0.274   3.194  0.1012  3.2534 -0.6380
 8588TIP3   OH247178   5.396   3.395  15.875  0.3146 -0.2591 -0.0133
 8588TIP3    H147179   5.341   3.353  15.941  0.1659 -0.2783 -0.1517
 8588TIP3    H247180   5.484   3.361  15.893  0.5321  0.7969  1.0842
 8589TIP3   OH247181   6.621   4.097  16.659 -0.0678  0.4361  0.2648
 8589TIP3    H147182   6.616   4.009  16.621  1.2876 -1.0037  3.0621
 8589TIP3    H247183   6.699   4.136  16.619 -0.1851  0.0236 -0.3771
 8590TIP3   OH247184   1.870   4.635   1.789  0.0045  0.4577  0.5711
 8590TIP3    H147185   1.835   4.552   1.756 -0.1100 -0.1159  2.0519
 8590TIP3    H247186   1.815   4.655   1.865 -1.2163  2.8979 -0.8246
 8591TIP3   OH247187   2.326   1.300   1.937 -0.0511 -0.3333  0.3219
 8591TIP3    H147188   2.308   1.210   1.913  1.1876 -0.9733  1.6797
 8591TIP3    H247189   2.242   1.345   1.925 -0.5837 -1.5394 -0.7795
 8592TIP3   OH247190   1.989   6.179   0.453 -0.2124  0.2416  0.2738
 8592TIP3    H147191   2.027   6.248   0.507 -0.8976  1.3331 -0.5875
 8592TIP3    H247192   1.966   6.223   0.371 -2.1349 -0.6471  0.2833
 8593TIP3   OH247193   5.084   1.604  14.140  0.4270  0.2063 -0.3732
 8593TIP3    H147194   5.074   1.653  14.058 -1.0115  0.0133 -0.3302
 8593TIP3    H247195   5.039   1.522  14.125  2.6400 -1.0936 -0.3643
 8594TIP3   OH247196   4.164   0.665   0.142  0.4831  0.0897  0.2452
 8594TIP3    H147197   4.179   0.571   0.156  0.0138  0.1298  1.0471
 8594TIP3    H247198   4.166   0.703   0.230 -1.1770  0.5575  0.1002
 8595TIP3   OH247199   3.576   4.004  11.441 -0.5016 -0.1034 -0.1439
 8595TIP3    H147200   3.551   4.046  11.523  1.0249  0.0100  0.2877
 8595TIP3    H247201   3.581   4.076  11.378 -0.6140 -0.0315 -0.0711
 8596TIP3   OH247202   2.772   6.099  13.846  0.2312  0.3310  1.1619
 8596TIP3    H147203   2.811   6.140  13.923 -0.7168  1.5789  1.0033
 8596TIP3    H247204   2.679   6.090  13.868  0.3124 -1.1872  0.9449
 8597TIP3   OH247205   3.971   3.538  13.260  0.0768 -0.2695 -0.2081
 8597TIP3    H147206   3.877   3.540  13.279 -0.2502  3.0003 -1.5276
 8597TIP3    H247207   4.011   3.584  13.334  0.5267 -0.6943 -0.1818
 8598TIP3   OH247208   2.743   0.092   0.953 -0.2932 -0.0959  0.3559
 8598TIP3    H147209   2.752   0.031   0.880  1.4852  1.2423 -0.6221
 8598TIP3    H247210   2.790   0.052   1.025  0.2784 -0.1937 -0.0700
 8599TIP3   OH247211   6.681   5.616  12.742  0.1285 -0.0917  0.6027
 8599TIP3    H147212   6.774   5.637  12.739  0.6317 -1.9695  1.4051
 8599TIP3    H247213   6.676   5.525  12.711 -1.5128  0.1620  0.0294
 8600TIP3   OH247214   0.800   0.509  15.486 -0.1105 -0.2032 -0.0287
 8600TIP3    H147215   0.856   0.581  15.456 -0.6818  0.4627  0.4751
 8600TIP3    H247216   0.856   0.431  15.479  0.2064  0.1340 -1.4931
 8601TIP3   OH247217   4.143   1.120  13.692  0.3533 -0.1326 -0.4191
 8601TIP3    H147218   4.183   1.044  13.650  1.1108  1.1356 -2.0691
 8601TIP3    H247219   4.208   1.189  13.683 -0.6197  0.9158  0.4124
 8602TIP3   OH247220   0.989   3.869   3.244  0.0562  0.2305 -0.2569
 8602TIP3    H147221   0.973   3.777   3.223  0.7762 -0.0564  0.4015
 8602TIP3    H247222   0.967   3.877   3.337  1.2149  0.4030  0.0231
 8603TIP3   OH247223   3.552   5.832  12.459 -0.0596  0.3458  0.1074
 8603TIP3    H147224   3.510   5.873  12.384 -0.5242  1.8411  1.1353
 8603TIP3    H247225   3.539   5.894  12.531  3.0448  0.4479  0.7167
 8604TIP3   OH247226   4.147   4.446  16.206  0.2482 -0.1774 -0.0479
 8604TIP3    H147227   4.218   4.502  16.176 -0.9437  0.5343 -1.7004
 8604TIP3    H247228   4.180   4.357  16.194  1.4201  0.1252  0.7376
 8605TIP3   OH247229   1.742   3.977   2.248  0.7598 -0.5121 -0.4294
 8605TIP3    H147230   1.669   3.930   2.288  0.4594 -0.8393 -1.3443
 8605TIP3    H247231   1.721   4.070   2.262  1.3084 -0.5950  1.2928
 8606TIP3   OH247232   0.587   0.107   0.285  0.2862 -0.3309  0.6225
 8606TIP3    H147233   0.503   0.147   0.260  0.4944  0.9134  1.7837
 8606TIP3    H247234   0.570   0.013   0.284 -0.4198 -0.2188 -1.5439
 8607TIP3   OH247235   3.542   6.630  12.760 -0.2754  0.3867  0.1355
 8607TIP3    H147236   3.516   6.685  12.834 -1.2848 -1.7994  1.5217
 8607TIP3    H247237   3.568   6.547  12.800 -0.7167 -0.8336 -1.9579
 8608TIP3   OH247238   6.706   5.417   4.105  0.2648 -0.1231  0.1830
 8608TIP3    H147239   6.782   5.427   4.046  1.9792 -0.8378  2.1475
 8608TIP3    H247240   6.744   5.418   4.193 -1.4973 -3.9644  1.2227
 8609TIP3   OH247241   1.180   0.789  11.798 -0.3160 -0.6140 -0.3128
 8609TIP3    H147242   1.217   0.855  11.856 -0.8228 -1.4064  0.9495
 8609TIP3    H247243   1.175   0.709  11.851 -1.0873 -1.2863 -1.3413
 8610TIP3   OH247244   3.267   0.367   1.318  0.0672 -0.3886  0.2818
 8610TIP3    H147245   3.234   0.374   1.408  0.7322 -0.0695  0.5122
 8610TIP3    H247246   3.338   0.303   1.324  2.1693  1.8404  0.6248
 8611TIP3   OH247247   1.855   2.113   3.892 -0.1035 -0.0552 -0.1875
 8611TIP3    H147248   1.837   2.153   3.807  0.4666  0.1211 -0.2291
 8611TIP3    H247249   1.947   2.089   3.889  0.8454  2.8609  1.5322
 8612TIP3   OH247250   0.585   4.949  15.465  0.0711  0.0059 -0.3195
 8612TIP3    H147251   0.559   4.999  15.387 -0.6499 -1.1050 -0.8157
 8612TIP3    H247252   0.574   5.011  15.538  0.4738  0.9716 -1.0601
 8613TIP3   OH247253   3.818   5.136   3.239 -0.0801  0.0388 -0.4217
 8613TIP3    H147254   3.753   5.204   3.222  0.0157  0.7156  1.6404
 8613TIP3    H247255   3.780   5.057   3.201 -1.4255  0.7215 -0.5561
 8614TIP3   OH247256   4.592   2.236  12.460 -0.4311 -0.2863 -0.0066
 8614TIP3    H147257   4.674   2.249  12.508  0.5184  2.7879 -2.1381
 8614TIP3    H247258   4.616   2.178  12.388 -0.4815 -0.4825  0.1337
 8615TIP3   OH247259   1.266   3.742   2.918  0.0260 -0.9329 -0.3147
 8615TIP3    H147260   1.290   3.775   2.831  2.3386  0.5781  0.8008
 8615TIP3    H247261   1.175   3.771   2.930  0.4501  0.9921 -1.2845
 8616TIP3   OH247262   0.599   1.653  14.336 -0.0168 -0.5648  1.1457
 8616TIP3    H147263   0.662   1.724  14.332 -0.5481 -0.0915  1.1066
 8616TIP3    H247264   0.604   1.611  14.250 -1.2071  0.7354  0.4199
 8617TIP3   OH247265   6.097   1.523   0.360 -0.4064 -0.2757  0.2933
 8617TIP3    H147266   6.044   1.590   0.317 -1.8910 -2.0085 -0.7406
 8617TIP3    H247267   6.075   1.442   0.314  0.2533 -1.7255  2.3855
 8618TIP3   OH247268   5.530   5.503  13.010 -0.0482 -0.3056 -0.1484
 8618TIP3    H147269   5.443   5.472  12.985  0.7389 -3.0432  0.1982
 8618TIP3    H247270   5.518   5.544  13.095 -0.8392 -1.8726  0.5402
 8619TIP3   OH247271   5.060   1.105   3.526 -0.4005 -0.0963 -0.2691
 8619TIP3    H147272   4.983   1.162   3.530 -0.9297 -0.7770 -0.5408
 8619TIP3    H247273   5.054   1.051   3.605 -1.0615 -1.2117 -1.0511
 8620TIP3   OH247274   2.308   1.419  13.116  0.4355 -0.0305  0.6109
 8620TIP3    H147275   2.363   1.381  13.047  0.6260  0.9787  0.1937
 8620TIP3    H247276   2.242   1.470  13.070 -1.1961 -1.5922  1.0887
 8621TIP3   OH247277   3.390   0.948  11.645 -0.1991 -0.3059 -0.6765
 8621TIP3    H147278   3.444   0.937  11.567 -2.4258  1.3094 -2.5768
 8621TIP3    H247279   3.384   1.043  11.657 -0.1974 -0.5105  1.3003
 8622TIP3   OH247280   0.172   4.392  11.975 -0.3637  0.0362  0.1602
 8622TIP3    H147281   0.141   4.302  11.982 -1.0730  0.4219  4.3352
 8622TIP3    H247282   0.122   4.440  12.041  2.5235  2.7058  0.6480
 8623TIP3   OH247283   1.064   3.175  16.205 -0.5876  0.2546  0.2558
 8623TIP3    H147284   1.119   3.253  16.199  0.3599 -0.1679  2.4478
 8623TIP3    H247285   0.980   3.208  16.236 -0.6502  0.5543 -0.2214
 8624TIP3   OH247286   5.536   6.093  16.192 -0.1967  0.3520  0.0824
 8624TIP3    H147287   5.589   6.103  16.272  3.3756 -2.3184 -1.6788
 8624TIP3    H247288   5.580   6.147  16.127 -1.0909 -0.0713 -0.9042
 8625TIP3   OH247289   4.153   6.406   5.430  0.1930  0.2561  0.2351
 8625TIP3    H147290   4.146   6.438   5.340  0.1299 -0.4664 -0.0273
 8625TIP3    H247291   4.247   6.399   5.446  0.2194  0.9621  0.4477
 8626TIP3   OH247292   4.023   6.185   5.313 -0.1699  0.1886  0.3322
 8626TIP3    H147293   4.080   6.247   5.359  2.1904 -1.0778 -0.7071
 8626TIP3    H247294   4.029   6.210   5.221 -2.9850  1.2423  0.3467
 8627TIP3   OH247295   4.403   4.403   4.609 -0.0292  0.0526 -0.6938
 8627TIP3    H147296   4.401   4.362   4.695  1.0171  1.6952  0.1698
 8627TIP3    H247297   4.427   4.333   4.549 -0.0434 -0.9617  0.4616
 8628TIP3   OH247298   0.587   0.433   1.178 -0.1186 -0.3559 -0.0293
 8628TIP3    H147299   0.604   0.367   1.110 -0.7147 -2.3867  1.6659
 8628TIP3    H247300   0.540   0.384   1.246 -0.4534  1.8370  1.3896
 8629TIP3   OH247301   2.273   1.661  11.242  0.1839 -0.1269  0.0130
 8629TIP3    H147302   2.235   1.679  11.156  0.8590 -0.2085 -0.3015
 8629TIP3    H247303   2.249   1.737  11.295  0.5861  0.3746 -0.5154
 8630TIP3   OH247304   4.212   3.432  11.314 -0.8148 -0.4096  0.3086
 8630TIP3    H147305   4.242   3.473  11.233 -3.1231  0.2008 -0.3219
 8630TIP3    H247306   4.217   3.338  11.298  1.2574 -0.3618  0.4832
 8631TIP3   OH247307   1.871   4.838   1.634 -0.4516 -0.3463  0.0566
 8631TIP3    H147308   1.896   4.899   1.704 -1.2325 -0.5551  0.5219
 8631TIP3    H247309   1.878   4.751   1.673  0.2855 -0.5440 -0.4939
 8632TIP3   OH247310   1.664   6.602   2.531  0.0818 -0.4501 -0.0107
 8632TIP3    H147311   1.678   6.639   2.444 -2.6397  0.3192 -0.2265
 8632TIP3    H247312   1.703   6.666   2.591 -1.3883  1.0422 -0.5624
 8633TIP3   OH247313   3.509   5.448   1.443 -0.8703  0.2529 -0.2313
 8633TIP3    H147314   3.482   5.375   1.386 -0.4562  0.1715 -0.3285
 8633TIP3    H247315   3.489   5.526   1.392 -0.0660  0.1711 -0.7003
 8634TIP3   OH247316   1.818   2.263  16.005  0.8925 -0.1257 -0.3669
 8634TIP3    H147317   1.762   2.209  15.950  2.2878 -0.7622 -1.2151
 8634TIP3    H247318   1.835   2.342  15.953 -2.6645  2.2041  1.5760
 8635TIP3   OH247319   1.497   0.452   5.028  0.1961 -0.1086  0.5565
 8635TIP3    H147320   1.453   0.395   5.092  0.4105  0.3852  1.1502
 8635TIP3    H247321   1.576   0.404   5.004 -1.7373 -2.1546 -2.3422
 8636TIP3   OH247322   1.772   4.835  14.966 -0.0427  0.0995 -0.2614
 8636TIP3    H147323   1.785   4.809  15.057  3.4531 -2.0360 -1.1561
 8636TIP3    H247324   1.713   4.769  14.931 -0.4182  0.1988  0.1803
 8637TIP3   OH247325   1.569   0.604  16.769 -0.1285  0.2219  0.1253
 8637TIP3    H147326   1.662   0.579  16.774  0.1539  0.8890 -1.3139
 8637TIP3    H247327   1.545   0.590  16.678 -1.5320 -0.1620  0.5331
 8638TIP3   OH247328   1.804   5.307   3.810  0.2135 -0.7405  0.2777
 8638TIP3    H147329   1.768   5.333   3.895 -0.2059  0.7339 -0.3162
 8638TIP3    H247330   1.852   5.227   3.828  0.3926 -0.2906  1.9687
 8639TIP3   OH247331   3.013   3.803   0.921  0.2396 -0.2767 -0.2667
 8639TIP3    H147332   3.030   3.804   0.827 -2.7101  1.9640 -0.9374
 8639TIP3    H247333   2.920   3.779   0.928  0.1494  0.5388  2.0023
 8640TIP3   OH247334   2.416   3.578  14.029 -0.0645 -0.3077 -0.3389
 8640TIP3    H147335   2.460   3.579  13.944  0.6425  0.0275  0.0113
 8640TIP3    H247336   2.410   3.671  14.054 -0.8820 -0.3580 -0.3279
 8641TIP3   OH247337   4.378   0.959   3.916  0.5795  0.1499 -0.2154
 8641TIP3    H147338   4.464   0.929   3.946 -0.4210 -2.2025  0.5349
 8641TIP3    H247339   4.337   0.995   3.995  0.7964  1.1116 -0.5344
 8642TIP3   OH247340   4.533   2.446   3.263  0.2595  0.4658 -0.4514
 8642TIP3    H147341   4.460   2.472   3.207  0.2437  0.4603 -0.4337
 8642TIP3    H247342   4.599   2.513   3.251 -0.1800  1.0715  0.3637
 8643TIP3   OH247343   1.177   3.003   4.173 -0.0250 -0.5063 -0.4905
 8643TIP3    H147344   1.095   2.961   4.202  0.3810 -1.6327 -0.9160
 8643TIP3    H247345   1.148   3.077   4.121 -0.8472 -1.9416 -2.1960
 8644TIP3   OH247346   1.056   3.376   5.178 -0.3453 -0.2761 -0.2967
 8644TIP3    H147347   1.082   3.468   5.163 -1.2428  0.0421  0.0492
 8644TIP3    H247348   1.037   3.343   5.090  2.1800 -0.8485 -0.7126
 8645TIP3   OH247349   2.238   2.784   5.263  0.4967 -0.2617 -0.7611
 8645TIP3    H147350   2.328   2.813   5.281 -0.1734  0.6326  1.6027
 8645TIP3    H247351   2.217   2.725   5.335 -0.5000 -1.2409 -1.8186
 8646TIP3   OH247352   1.586   6.362   6.415 -0.3232  0.1694 -0.3887
 8646TIP3    H147353   1.617   6.341   6.503 -1.1736 -1.3072 -0.4182
 8646TIP3    H247354   1.492   6.374   6.425 -0.4876 -0.4385 -1.1718
 8647TIP3   OH247355   4.679   5.350   3.844  1.1742 -0.4522 -0.0937
 8647TIP3    H147356   4.612   5.348   3.776  0.4186 -1.5290  0.6546
 8647TIP3    H247357   4.710   5.260   3.850  0.9840 -0.4472  1.2092
 8648TIP3   OH247358   1.982   3.499  11.994  0.1781 -0.4753  0.3045
 8648TIP3    H147359   2.055   3.520  11.935 -0.5834 -0.0741 -0.5216
 8648TIP3    H247360   1.979   3.573  12.055  0.9523 -0.8775  0.8404
 8649TIP3   OH247361   1.511   3.712  16.427  1.0540 -0.0567  0.3940
 8649TIP3    H147362   1.586   3.678  16.476  1.9336 -0.5867 -1.2383
 8649TIP3    H247363   1.439   3.654  16.451  1.5219 -0.4665  0.8433
 8650TIP3   OH247364   1.704   3.599   4.890  0.3989  0.2595 -0.0376
 8650TIP3    H147365   1.627   3.558   4.930  0.8450  0.2809  0.8825
 8650TIP3    H247366   1.675   3.687   4.866 -0.4711 -0.4364 -1.7193
 8651TIP3   OH247367   0.009   0.315  12.567  0.2100  0.0106  0.7174
 8651TIP3    H147368   0.057   0.232  12.569  1.0699  0.3924 -1.4922
 8651TIP3    H247369  -0.082   0.290  12.583  0.5140 -1.3192  0.4934
 8652TIP3   OH247370   5.763   1.421   1.634 -0.2665  0.4302 -0.6966
 8652TIP3    H147371   5.781   1.377   1.717 -3.2619  0.3070 -0.0022
 8652TIP3    H247372   5.752   1.350   1.571  1.3008  0.5040 -1.1069
 8653TIP3   OH247373   1.372   4.713  14.846  0.2821 -0.1302  0.4123
 8653TIP3    H147374   1.287   4.701  14.887 -0.0997 -0.3204 -0.4042
 8653TIP3    H247375   1.430   4.651  14.890 -0.1434 -0.4188  0.5586
 8654TIP3   OH247376   4.803   4.314   0.901 -0.3592  0.0207 -0.4772
 8654TIP3    H147377   4.847   4.236   0.867  0.7456 -0.4213  1.7311
 8654TIP3    H247378   4.859   4.387   0.874 -0.8254 -0.0278 -1.6391
 8655TIP3   OH247379   1.362   0.740  11.608 -0.0441  0.1000  0.1906
 8655TIP3    H147380   1.301   0.737  11.681 -1.0058  0.6450 -0.5667
 8655TIP3    H247381   1.404   0.826  11.615 -0.1592  0.1646  0.0762
 8656TIP3   OH247382   2.295   3.460   5.337  0.1166  1.2705  0.5207
 8656TIP3    H147383   2.287   3.524   5.266  2.4288  3.1095  1.7619
 8656TIP3    H247384   2.209   3.459   5.379 -1.5153 -0.3442 -2.5400
 8657TIP3   OH247385   5.636   6.315   0.344  0.3155 -0.8459  0.5752
 8657TIP3    H147386   5.669   6.359   0.266 -0.4911  1.1459  1.2819
 8657TIP3    H247387   5.703   6.250   0.365  1.7455  0.2393 -0.3994
 8658TIP3   OH247388   3.414   0.199  10.985 -0.3799 -0.3619  0.0280
 8658TIP3    H147389   3.412   0.132  10.917 -1.2363  0.8105 -1.1337
 8658TIP3    H247390   3.357   0.164  11.054 -1.5912 -0.4169 -0.9726
 8659TIP3   OH247391   3.266   4.460  16.402  0.3227  0.3568  0.2073
 8659TIP3    H147392   3.274   4.551  16.374  0.7064 -0.2091 -1.6364
 8659TIP3    H247393   3.347   4.418  16.373  0.8004 -0.3146  2.2642
 8660TIP3   OH247394   3.568   5.532  15.121 -0.4437 -0.1219 -0.3809
 8660TIP3    H147395   3.553   5.625  15.101  1.4003  0.0679 -1.0842
 8660TIP3    H247396   3.494   5.507  15.176 -0.8663  1.8289  0.0111
 8661TIP3   OH247397   2.411   1.961   1.367  0.0609 -0.4809  0.2123
 8661TIP3    H147398   2.382   1.958   1.276  1.7815 -0.1413 -0.3913
 8661TIP3    H247399   2.385   2.048   1.397 -0.2326 -0.4714 -0.0632
 8662TIP3   OH247400   0.213   5.746  12.105 -0.0675  0.2332  0.5273
 8662TIP3    H147401   0.227   5.799  12.183  1.2018 -2.1219  2.0111
 8662TIP3    H247402   0.300   5.734  12.068 -0.4434 -0.1459 -0.2765
 8663TIP3   OH247403   5.732   1.148  15.100 -0.5426  0.2346  0.5918
 8663TIP3    H147404   5.734   1.078  15.166  4.6917  0.7835  1.4064
 8663TIP3    H247405   5.700   1.224  15.148 -0.5110 -0.2417  1.3981
 8664TIP3   OH247406   3.530   0.262   4.080  0.2140 -0.5035  0.5597
 8664TIP3    H147407   3.473   0.252   4.004 -0.9228 -1.6888  1.5332
 8664TIP3    H247408   3.520   0.181   4.129  2.0886 -0.3850  1.2281
 8665TIP3   OH247409   5.668   0.484  13.587  0.0830 -0.5724  0.1321
 8665TIP3    H147410   5.664   0.559  13.646  1.7393 -0.4880  0.1698
 8665TIP3    H247411   5.722   0.513  13.514  0.5957 -1.6506  0.0550
 8666TIP3   OH247412   3.062   1.003  11.868 -0.1940 -1.1822 -0.1918
 8666TIP3    H147413   3.053   0.994  11.773 -0.3860 -1.4660 -0.1496
 8666TIP3    H247414   3.149   0.967  11.887  1.0273  1.3246 -0.5722
 8667TIP3   OH247415   0.263   1.608   3.527  0.5479 -0.7114  0.6493
 8667TIP3    H147416   0.310   1.692   3.528  0.4934 -0.6648 -0.0893
 8667TIP3    H247417   0.226   1.602   3.439  1.6918 -2.1296  0.2069
 8668TIP3   OH247418   5.750   4.668  11.101 -0.4960 -0.1621  0.4173
 8668TIP3    H147419   5.780   4.622  11.023  0.9737  0.0746  0.8047
 8668TIP3    H247420   5.695   4.739  11.068  1.7214  1.1990 -0.5961
 8669TIP3   OH247421   6.000   2.587   2.534 -0.4655 -0.2898 -0.4878
 8669TIP3    H147422   6.049   2.534   2.471 -0.3607  0.0523 -0.6996
 8669TIP3    H247423   5.987   2.529   2.609 -1.7267 -1.1525 -1.3354
 8670TIP3   OH247424   2.402   4.080   1.164 -0.0684 -0.3236  0.1031
 8670TIP3    H147425   2.461   4.095   1.238 -1.5492  0.5909  1.1311
 8670TIP3    H247426   2.328   4.033   1.202  0.1604 -1.8666 -1.2609
 8671TIP3   OH247427   4.951   4.229   5.357 -0.2621  0.0360 -0.6420
 8671TIP3    H147428   4.991   4.163   5.413  0.8975 -0.0550 -1.5382
 8671TIP3    H247429   4.938   4.186   5.273 -1.1085  0.4447 -0.7332
 8672TIP3   OH247430   2.248   1.874  15.951 -0.4781  0.2743 -0.0013
 8672TIP3    H147431   2.331   1.828  15.946 -1.0616 -0.6965 -2.2356
 8672TIP3    H247432   2.271   1.967  15.941  0.5434  0.3729  2.6507
 8673TIP3   OH247433   2.760   6.331  12.620  0.4061 -0.7434  0.4789
 8673TIP3    H147434   2.856   6.328  12.618  0.4228 -0.4125 -1.5430
 8673TIP3    H247435   2.733   6.240  12.609  0.5167 -0.6971 -0.2392
 8674TIP3   OH247436   2.622   4.585   3.194  0.0009  0.6451  0.4078
 8674TIP3    H147437   2.528   4.577   3.206 -0.0779  1.3468  0.2467
 8674TIP3    H247438   2.650   4.498   3.165 -0.8012  0.8083 -0.9417
 8675TIP3   OH247439   5.532   0.673   3.355  0.1708  0.5771  0.1577
 8675TIP3    H147440   5.527   0.763   3.324 -2.0357  0.4327 -0.0164
 8675TIP3    H247441   5.513   0.679   3.449  1.0265  0.3688  0.3586
 8676TIP3   OH247442   6.398   1.326  12.107 -0.6526  0.0993 -0.3321
 8676TIP3    H147443   6.443   1.253  12.149 -0.5956  0.2435 -0.1360
 8676TIP3    H247444   6.381   1.388  12.179 -1.8111 -0.2700 -0.2719
 8677TIP3   OH247445   0.778   4.384   2.312  0.2115  0.0376  0.0496
 8677TIP3    H147446   0.721   4.416   2.382  0.0565  0.7799 -0.4023
 8677TIP3    H247447   0.770   4.449   2.242  2.6461  0.9314  0.4882
 8678TIP3   OH247448   3.115   2.623   0.270 -0.2744  0.2306 -0.2094
 8678TIP3    H147449   3.039   2.619   0.211 -0.8759 -2.7382  0.6075
 8678TIP3    H247450   3.177   2.681   0.226 -1.2602 -0.7254 -3.0545
 8679TIP3   OH247451   3.138   4.088  15.302 -0.0354 -0.7006 -0.1838
 8679TIP3    H147452   3.214   4.146  15.304 -0.5882  0.0654  1.9864
 8679TIP3    H247453   3.172   4.005  15.268  1.3507  0.1435 -0.9494
 8680TIP3   OH247454   0.630   0.033   3.019 -0.2739  0.9518  0.0968
 8680TIP3    H147455   0.558   0.027   3.081  0.3300  0.9531  0.8148
 8680TIP3    H247456   0.657  -0.057   3.004  0.7735  1.0379  1.2874
 8681TIP3   OH247457   1.346   2.209  16.515 -0.3240 -0.2290  0.0995
 8681TIP3    H147458   1.334   2.303  16.503 -0.9015 -0.2565  0.4482
 8681TIP3    H247459   1.290   2.169  16.448 -1.7176 -0.3444  1.2690
 8682TIP3   OH247460   4.741   3.772   0.244  0.5130 -0.4347  0.4175
 8682TIP3    H147461   4.831   3.777   0.211 -0.6291 -0.4866 -3.1174
 8682TIP3    H247462   4.716   3.863   0.260  0.4719 -0.1890 -0.9393
 8683TIP3   OH247463   5.560   6.429   5.393  0.2761 -0.2213  0.3323
 8683TIP3    H147464   5.523   6.438   5.481 -0.0528  0.5249  0.1252
 8683TIP3    H247465   5.549   6.515   5.354  1.9739 -0.0701  0.1562
 8684TIP3   OH247466   4.388   1.066  11.163  0.1987  0.7614 -0.4640
 8684TIP3    H147467   4.362   1.081  11.072 -1.7594  1.2805  0.1262
 8684TIP3    H247468   4.312   1.024  11.203  0.8902  0.8628  1.0166
 8685TIP3   OH247469   3.935   1.908   1.484 -0.0249 -0.0341  0.0465
 8685TIP3    H147470   3.993   1.961   1.428  0.6092 -1.3105 -0.5373
 8685TIP3    H247471   3.898   1.971   1.546  3.7675  0.5670  1.9915
 8686TIP3   OH247472   4.547   3.040  16.022  0.9847  0.0649 -0.1325
 8686TIP3    H147473   4.554   2.946  16.003 -2.4697 -0.5027  0.6804
 8686TIP3    H247474   4.586   3.083  15.946 -1.2489 -2.1123 -2.7572
 8687TIP3   OH247475   3.847   3.068   5.411 -0.6574  0.0137  0.2757
 8687TIP3    H147476   3.828   3.058   5.317  2.9919 -1.2666 -0.4597
 8687TIP3    H247477   3.901   2.993   5.432 -0.1124  1.1024  3.0812
 8688TIP3   OH247478   5.516   5.301   0.721  0.1234 -0.2441 -0.2385
 8688TIP3    H147479   5.576   5.271   0.652  0.1031 -0.5045 -0.1449
 8688TIP3    H247480   5.482   5.220   0.760 -0.4356 -0.1018 -0.4180
 8689TIP3   OH247481   3.465   0.906  16.672 -0.4282  0.2648 -0.0761
 8689TIP3    H147482   3.416   0.844  16.725 -0.2503 -0.8431 -1.1720
 8689TIP3    H247483   3.492   0.974  16.734 -3.2154  0.8715  0.5891
 8690TIP3   OH247484   0.279   6.695   1.633 -0.1228  0.1415 -0.3401
 8690TIP3    H147485   0.214   6.632   1.664 -0.5279  1.0702  0.7725
 8690TIP3    H247486   0.263   6.702   1.539 -0.6631 -0.7285 -0.3206
 8691TIP3   OH247487   6.115   5.269  13.777  0.1656 -0.6396  0.0087
 8691TIP3    H147488   6.021   5.264  13.796  0.4918  0.0283  2.1302
 8691TIP3    H247489   6.130   5.200  13.713 -1.7965 -0.6259 -0.5531
 8692TIP3   OH247490   0.355   1.472   4.007 -0.2698 -0.9369 -0.8199
 8692TIP3    H147491   0.351   1.434   4.094 -1.7269  0.0379 -0.4186
 8692TIP3    H247492   0.438   1.441   3.970  0.3195 -1.4361  0.8652
 8693TIP3   OH247493   5.692   4.856   5.342  0.7261 -0.0657 -0.4662
 8693TIP3    H147494   5.786   4.862   5.361  0.2852 -0.0205  1.9621
 8693TIP3    H247495   5.664   4.947   5.332  0.6406  0.0289  0.5538
 8694TIP3   OH247496   5.188   3.154  12.662 -0.0786 -0.0180  0.3813
 8694TIP3    H147497   5.150   3.127  12.578 -0.3938 -0.4734  0.6603
 8694TIP3    H247498   5.139   3.103  12.727  0.4837 -0.0218  0.8052
 8695TIP3   OH247499   5.733   5.656  15.970  0.3339  0.4035 -0.3365
 8695TIP3    H147500   5.709   5.671  16.061 -0.0050 -1.3510 -0.1060
 8695TIP3    H247501   5.657   5.685  15.920 -0.0171  0.1007  0.0221
 8696TIP3   OH247502   3.674   2.544  16.449  0.0916 -0.0223  0.5434
 8696TIP3    H147503   3.641   2.633  16.461  0.2813  0.1236  0.0256
 8696TIP3    H247504   3.661   2.501  16.534  0.1811  0.5589  0.8541
 8697TIP3   OH247505   5.820   6.041   0.327 -0.6537  0.9306 -0.3921
 8697TIP3    H147506   5.784   5.995   0.251 -0.2472 -0.1562  0.0629
 8697TIP3    H247507   5.874   5.977   0.372 -0.0178  1.8724  0.2367
 8698TIP3   OH247508   1.365   0.791   2.386  0.2921 -0.1924  0.3005
 8698TIP3    H147509   1.290   0.807   2.328 -2.6464 -1.1938  3.4385
 8698TIP3    H247510   1.390   0.878   2.416  1.0213  0.2277 -1.4178
 8699TIP3   OH247511   3.945   4.196   4.193  0.1425 -0.3294  0.2557
 8699TIP3    H147512   4.016   4.246   4.233 -0.8159  0.3078  1.2209
 8699TIP3    H247513   3.928   4.239   4.110 -0.5171  0.8630  0.9766
 8700TIP3   OH247514   3.121   5.987  16.595 -0.3130 -0.1786  0.0713
 8700TIP3    H147515   3.110   6.073  16.635 -2.0007 -0.2401 -0.1983
 8700TIP3    H247516   3.216   5.976  16.588  0.0064  0.6427  2.2688
 8701TIP3   OH247517   5.271   3.748  13.407  0.4510 -0.4138 -0.2745
 8701TIP3    H147518   5.322   3.808  13.353  1.0130  0.5066  1.2374
 8701TIP3    H247519   5.181   3.781  13.400  0.3209 -0.9620 -1.4919
 8702TIP3   OH247520   6.318   1.103  13.497  0.2247  0.2707  0.1550
 8702TIP3    H147521   6.278   1.023  13.531 -0.9533  1.3540  1.4346
 8702TIP3    H247522   6.333   1.158  13.574  4.6249 -0.1435 -0.1681
 8703TIP3   OH247523   1.230   1.557  16.701 -0.0886  0.5212 -0.7878
 8703TIP3    H147524   1.290   1.499  16.746 -2.0541 -1.0606 -0.0424
 8703TIP3    H247525   1.196   1.615  16.770 -1.7243 -0.6962 -0.5001
 8704TIP3   OH247526   2.492   1.495  13.309  0.1328  0.7942  0.9333
 8704TIP3    H147527   2.474   1.441  13.232  0.1273  2.5550 -0.3849
 8704TIP3    H247528   2.431   1.568  13.301  1.2072  1.8227  1.7498
 8705TIP3   OH247529   0.063   1.451   6.103 -1.1465 -0.9362 -0.5445
 8705TIP3    H147530   0.064   1.356   6.100  2.2874 -1.0220 -0.4556
 8705TIP3    H247531   0.133   1.478   6.043 -0.8858  1.4416  0.6958
 8706TIP3   OH247532   3.549   6.161   5.292  0.1836  0.3225 -0.2312
 8706TIP3    H147533   3.466   6.129   5.327  0.1003 -0.0485 -0.7535
 8706TIP3    H247534   3.598   6.190   5.369 -1.0555  2.0942 -0.0457
 8707TIP3   OH247535   1.323   3.145  11.734  0.7841 -0.0552 -0.2239
 8707TIP3    H147536   1.343   3.055  11.707  0.9621  0.2266 -1.0714
 8707TIP3    H247537   1.323   3.195  11.652 -0.4178  0.5207  0.1053
 8708TIP3   OH247538   5.796   1.266  12.481  0.0428  1.0877  0.4080
 8708TIP3    H147539   5.718   1.321  12.489 -0.5377  0.3734 -0.1129
 8708TIP3    H247540   5.780   1.215  12.401  1.2289  1.2126  0.0845
 8709TIP3   OH247541   3.721   5.745   2.581  0.5253  0.4270  0.1524
 8709TIP3    H147542   3.733   5.823   2.527  2.1906 -0.3708 -0.7026
 8709TIP3    H247543   3.632   5.716   2.561 -0.6460  2.7695  1.4704
 8710TIP3   OH247544   2.018   5.080  11.433  0.1015 -0.6142 -0.5657
 8710TIP3    H147545   1.964   5.031  11.495  0.6079 -1.1038 -0.5008
 8710TIP3    H247546   2.075   5.134  11.488 -0.1933 -0.2319 -0.6301
 8711TIP3   OH247547   2.571   6.371   4.624 -0.0984 -0.7350 -0.0256
 8711TIP3    H147548   2.509   6.323   4.678 -0.7674 -0.0160 -0.1322
 8711TIP3    H247549   2.641   6.397   4.685 -1.5767  1.3729  0.9003
 8712TIP3   OH247550   0.682   0.969  14.861 -0.3282  0.2236 -0.6235
 8712TIP3    H147551   0.636   0.987  14.779  0.3264 -0.5700 -1.1792
 8712TIP3    H247552   0.698   0.874  14.859  0.0069  0.2526  0.2546
 8713TIP3   OH247553   6.297   4.081  12.556  0.3549 -0.5955 -0.3392
 8713TIP3    H147554   6.268   3.991  12.545 -0.1818 -0.5856  0.8168
 8713TIP3    H247555   6.388   4.074  12.586  0.9748 -0.6794 -2.1582
 8714TIP3   OH247556   0.432   2.192   4.145 -0.3351  0.1676 -0.3538
 8714TIP3    H147557   0.348   2.230   4.172  0.1750  2.6600 -1.9231
 8714TIP3    H247558   0.445   2.118   4.204 -1.2184  2.6833  3.4066
 8715TIP3   OH247559   5.216   6.576  15.121 -0.0164  0.0146 -0.3784
 8715TIP3    H147560   5.146   6.534  15.072 -0.7615  1.5473 -0.6536
 8715TIP3    H247561   5.174   6.609  15.200  0.5382  0.3679 -0.2234
 8716TIP3   OH247562   5.827   6.625  12.099  0.7397 -0.8250 -0.3919
 8716TIP3    H147563   5.733   6.610  12.101  0.9280 -2.4627 -1.4263
 8716TIP3    H247564   5.865   6.537  12.092  2.3815 -0.2611  0.7724
 8717TIP3   OH247565   2.278   2.770   3.338  0.5530 -0.2175  0.1057
 8717TIP3    H147566   2.297   2.724   3.256  0.6248 -0.2327  0.1304
 8717TIP3    H247567   2.303   2.708   3.406  2.4494  0.5482  0.1622
 8718TIP3   OH247568   3.099   1.588   5.789 -0.3818 -0.8838 -0.1685
 8718TIP3    H147569   3.129   1.662   5.738 -2.6301 -0.3755 -0.8812
 8718TIP3    H247570   3.141   1.512   5.749  2.6217 -0.0441  1.1007
 8719TIP3   OH247571   3.907   2.877   3.292 -0.3065 -0.0904  0.1092
 8719TIP3    H147572   3.882   2.958   3.336 -1.2956 -0.2320 -0.1652
 8719TIP3    H247573   3.923   2.815   3.363 -0.5346  0.0679  0.3024
 8720TIP3   OH247574   2.429   2.604  14.506 -0.9611  0.0778  0.0321
 8720TIP3    H147575   2.425   2.684  14.559  1.5784  1.7506 -2.0721
 8720TIP3    H247576   2.408   2.633  14.417  1.8444 -1.1170 -1.1240
 8721TIP3   OH247577   2.877   6.330  12.966  0.0626 -0.4283 -0.3636
 8721TIP3    H147578   2.970   6.326  12.988  0.1473 -0.8140 -0.7735
 8721TIP3    H247579   2.871   6.397  12.898 -0.1464  0.4908  0.5201
 8722TIP3   OH247580   4.928   5.139  14.611  0.1097  0.3511 -0.1331
 8722TIP3    H147581   4.996   5.074  14.629  0.8290  1.3684  0.9639
 8722TIP3    H247582   4.941   5.162  14.519  3.0223  2.3956  0.6513
 8723TIP3   OH247583   2.103   2.407   6.443 -0.4696 -0.5839 -0.6323
 8723TIP3    H147584   2.116   2.495   6.407 -0.1770 -0.1230  0.5500
 8723TIP3    H247585   2.142   2.411   6.530 -0.1702 -1.9920 -0.6816
 8724TIP3   OH247586   2.171   6.149  16.701 -0.4476 -0.2718 -0.1299
 8724TIP3    H147587   2.190   6.184  16.615  0.3404  1.6109  0.7604
 8724TIP3    H247588   2.256   6.118  16.733 -0.6403 -0.4860  0.1833
 8725TIP3   OH247589   6.631   5.038   5.526  0.4197  0.3206 -0.0996
 8725TIP3    H147590   6.564   5.052   5.592  0.0616 -2.6335  0.2930
 8725TIP3    H247591   6.583   5.040   5.443  0.2180  0.3883  0.0174
 8726TIP3   OH247592   6.320   2.721  16.373 -0.1056  0.2973  0.3795
 8726TIP3    H147593   6.363   2.806  16.380  0.6868 -0.0111 -0.5678
 8726TIP3    H247594   6.308   2.708  16.279 -1.4907 -0.0292  0.5691
 8727TIP3   OH247595   3.804   0.947   5.494  0.0560  0.6940  0.1265
 8727TIP3    H147596   3.815   0.908   5.580 -0.6267  2.5658  1.1164
 8727TIP3    H247597   3.857   0.893   5.436  1.4274  0.0451  1.9133
 8728TIP3   OH247598   3.365   0.065   1.429  0.3345  0.1139  0.4487
 8728TIP3    H147599   3.395  -0.005   1.488  0.6984  0.5876  0.8377
 8728TIP3    H247600   3.316   0.125   1.486  1.2850  0.9439  0.4169
 8729TIP3   OH247601   4.756   2.676   3.684 -0.1881  0.2474  0.4817
 8729TIP3    H147602   4.720   2.589   3.665 -0.1763  0.4210 -0.3563
 8729TIP3    H247603   4.830   2.659   3.743  2.1989 -0.7133 -2.5354
 8730TIP3   OH247604   2.915   3.421   2.247  0.4271 -0.3999 -0.3727
 8730TIP3    H147605   2.841   3.397   2.191  0.1797 -0.0346 -0.2103
 8730TIP3    H247606   2.916   3.354   2.315 -1.0767  0.7216  0.8319
 8731TIP3   OH247607   6.486   4.215   5.874  0.1025 -0.2076 -0.3515
 8731TIP3    H147608   6.498   4.286   5.938 -0.6998  1.1065 -1.6057
 8731TIP3    H247609   6.575   4.184   5.856  0.4453  0.2830  0.4297
 8732TIP3   OH247610   6.533   4.989   5.957  0.7027  0.0082  0.0952
 8732TIP3    H147611   6.496   5.024   5.875 -2.6170 -0.1693  1.3790
 8732TIP3    H247612   6.570   5.065   6.000 -1.4629  1.0247  0.3200
 8733TIP3   OH247613   3.559   1.774   0.173  0.1389  0.1053 -0.2705
 8733TIP3    H147614   3.566   1.679   0.161  1.2615  0.1550 -0.1044
 8733TIP3    H247615   3.647   1.802   0.198 -0.0074  1.2834 -0.9639
 8734TIP3   OH247616   0.584   5.677  16.729  0.2209  0.1151  0.3059
 8734TIP3    H147617   0.667   5.630  16.741  0.3005  0.5040  1.3581
 8734TIP3    H247618   0.569   5.675  16.634  0.4088 -1.7179  0.2681
 8735TIP3   OH247619   5.768   1.602  17.017  0.0470 -0.4426  0.6191
 8735TIP3    H147620   5.711   1.598  17.094 -2.0578  1.1490 -0.7805
 8735TIP3    H247621   5.855   1.621  17.053 -0.7308 -0.5052  2.6486
 8736TIP3   OH247622   1.318   6.472  13.317 -0.5645 -0.1184 -0.1361
 8736TIP3    H147623   1.399   6.477  13.265 -1.4679 -0.2051 -1.6033
 8736TIP3    H247624   1.344   6.501  13.404  0.7874  1.0607 -0.8907
 8737TIP3   OH247625   3.228   4.518   6.149  0.0875  0.0280  0.0251
 8737TIP3    H147626   3.240   4.539   6.241  0.6172 -0.6472  0.1184
 8737TIP3    H247627   3.276   4.587   6.102 -0.3018  0.4521  0.2429
 8738TIP3   OH247628   6.066   4.564   0.609 -0.7431  0.4846  0.1858
 8738TIP3    H147629   6.138   4.611   0.652  0.1956  0.5893 -1.4190
 8738TIP3    H247630   6.103   4.478   0.589  0.0521  1.4728 -3.2720
 8739TIP3   OH247631   5.309   6.653   1.650 -0.3369  0.6021  0.3267
 8739TIP3    H147632   5.366   6.730   1.648 -0.9904  1.0784 -0.8316
 8739TIP3    H247633   5.305   6.623   1.559 -3.0380  1.4416  0.0796
 8740TIP3   OH247634   1.662   2.376  11.504  0.0363 -0.1263  0.4766
 8740TIP3    H147635   1.665   2.297  11.558 -0.8265 -1.2085 -0.9561
 8740TIP3    H247636   1.751   2.385  11.470  0.3955  0.1312  1.4601
 8741TIP3   OH247637   6.226   1.335  16.577 -0.4061 -0.5076  0.4088
 8741TIP3    H147638   6.207   1.247  16.544 -0.8759 -1.0681  2.0998
 8741TIP3    H247639   6.246   1.322  16.669  0.7676  1.0310  0.3950
 8742TIP3   OH247640   3.548   2.338  16.963 -0.1191  0.5841 -0.1966
 8742TIP3    H147641   3.537   2.405  17.030  2.5758  0.5363  0.4286
 8742TIP3    H247642   3.575   2.259  17.011 -1.5522 -0.5023 -1.0715
 8743TIP3   OH247643   1.435   0.485   6.617  0.5213  0.2170 -0.0119
 8743TIP3    H147644   1.407   0.571   6.586 -0.0327  0.1429  0.2608
 8743TIP3    H247645   1.518   0.501   6.662 -0.4222  0.9121  1.5718
 8744TIP3   OH247646   1.573   5.099  16.952 -0.5746  0.1794  0.9513
 8744TIP3    H147647   1.554   5.029  17.015 -1.2953 -2.8121 -2.2558
 8744TIP3    H247648   1.668   5.097  16.941 -0.6940 -1.4127 -0.1391
 8745TIP3   OH247649   0.023   0.159   3.435 -0.6623  0.0797 -0.2530
 8745TIP3    H147650   0.057   0.141   3.523  1.1795 -1.6446 -1.2218
 8745TIP3    H247651  -0.023   0.079   3.410 -1.1742  0.5514 -0.8682
 8746TIP3   OH247652   0.798   3.920  12.480 -0.0720  0.0766 -0.2678
 8746TIP3    H147653   0.770   3.918  12.389  0.5943 -1.7512 -0.4575
 8746TIP3    H247654   0.744   3.989  12.520 -3.6900 -2.0822 -0.9835
 8747TIP3   OH247655   3.165   6.121  12.458  0.1487  0.0186  0.2772
 8747TIP3    H147656   3.183   6.029  12.480  3.1525  0.6459  0.8588
 8747TIP3    H247657   3.202   6.132  12.371 -0.1558  0.6810  0.2330
 8748TIP3   OH247658   5.338   2.772  14.454  0.2157  0.0690 -0.4882
 8748TIP3    H147659   5.279   2.709  14.494  1.5153 -2.2252 -1.9567
 8748TIP3    H247660   5.396   2.799  14.525  0.7604 -1.8085 -0.1656
 8749TIP3   OH247661   5.252   5.001   1.743 -0.4310 -0.1879 -0.5227
 8749TIP3    H147662   5.227   4.989   1.834 -1.9968 -1.2815 -1.0579
 8749TIP3    H247663   5.185   5.060   1.707  0.6849  0.9804 -0.7735
 8750TIP3   OH247664   5.401   0.133  12.167 -0.8860  0.1774 -0.0255
 8750TIP3    H147665   5.418   0.202  12.232  0.7291  0.1846 -0.4151
 8750TIP3    H247666   5.432   0.170  12.085 -1.1405 -0.5650 -0.4642
 8751TIP3   OH247667   4.442   1.212  15.068  0.2653  0.1412 -0.0359
 8751TIP3    H147668   4.448   1.301  15.033  1.0117  0.1007 -0.0331
 8751TIP3    H247669   4.438   1.224  15.163 -2.0001  0.2627 -0.0847
 8752TIP3   OH247670   5.187   2.888  12.070  0.2049  0.5179 -0.5885
 8752TIP3    H147671   5.165   2.815  12.011  2.3550 -1.9766  1.4627
 8752TIP3    H247672   5.187   2.849  12.157  2.3659  2.7520  0.5089
 8753TIP3   OH247673   4.832   3.310  14.838  0.3972 -0.2169 -0.3039
 8753TIP3    H147674   4.865   3.290  14.926  1.0433  1.1619 -0.2003
 8753TIP3    H247675   4.762   3.374  14.853 -0.2775 -0.8376 -0.7356
 8754TIP3   OH247676   2.014   3.210  14.629  0.4327 -0.3928  0.1653
 8754TIP3    H147677   1.999   3.285  14.572  1.7229 -0.2881 -0.0598
 8754TIP3    H247678   2.030   3.247  14.715  0.9350 -0.4146  0.0825
 8755TIP3   OH247679   5.569   5.354   4.502  0.2133  0.2998  0.0430
 8755TIP3    H147680   5.644   5.374   4.557 -0.9420  2.3563  0.9585
 8755TIP3    H247681   5.520   5.288   4.552  0.1780  0.7178  0.5675
 8756TIP3   OH247682   2.626   3.055  13.267  0.5203 -0.1457  0.2037
 8756TIP3    H147683   2.605   2.977  13.319 -1.3360 -0.2861 -0.6957
 8756TIP3    H247684   2.543   3.082  13.228  1.3661  1.5316 -0.5629
 8757TIP3   OH247685   3.582   2.907  13.352 -0.2360 -0.2961  0.0303
 8757TIP3    H147686   3.550   2.817  13.366  0.7956 -0.4787  1.3022
 8757TIP3    H247687   3.600   2.910  13.258 -1.6773 -0.9373 -0.3085
 8758TIP3   OH247688   0.621   1.832  15.036  0.8164  0.1000 -0.5216
 8758TIP3    H147689   0.649   1.774  15.107  0.5855  2.2715  1.4878
 8758TIP3    H247690   0.703   1.868  15.001  1.0837 -2.3853 -2.8285
 8759TIP3   OH247691   1.042   0.616   1.021 -0.3224 -0.0324  0.0908
 8759TIP3    H147692   0.972   0.594   1.082  1.0888  0.5129  1.9777
 8759TIP3    H247693   1.117   0.639   1.076  1.1403  0.1433 -1.8435
 8760TIP3   OH247694   5.501   4.777  12.716  0.0880  0.6351 -0.3403
 8760TIP3    H147695   5.511   4.787  12.621  2.3228 -0.3854 -0.2820
 8760TIP3    H247696   5.453   4.695  12.727  0.5282  0.3416 -0.5857
 8761TIP3   OH247697   0.430   6.427   1.109 -0.1385  0.2891 -0.7392
 8761TIP3    H147698   0.351   6.441   1.057 -1.7927 -0.2151  1.4963
 8761TIP3    H247699   0.456   6.337   1.090 -1.1341 -0.1226 -0.2128
 8762TIP3   OH247700   3.325   2.954   1.723 -0.3013  0.2117 -0.3772
 8762TIP3    H147701   3.404   2.966   1.775 -0.8469  1.9546  0.1199
 8762TIP3    H247702   3.262   3.017   1.760 -2.0544 -1.3699 -0.4983
 8763TIP3   OH247703   1.076   4.758   4.776 -0.0081  0.4919  0.4052
 8763TIP3    H147704   1.013   4.812   4.728  1.5313  0.5605 -1.6931
 8763TIP3    H247705   1.146   4.819   4.799  1.0586 -0.2565 -0.6949
 8764TIP3   OH247706   5.756   5.671   5.173 -0.4168 -0.0600  0.1921
 8764TIP3    H147707   5.698   5.704   5.104 -0.4835  2.0313  1.1730
 8764TIP3    H247708   5.841   5.710   5.154  0.8094 -3.0267 -1.1813
 8765TIP3   OH247709   1.967   3.585   1.524 -0.4432 -0.1370  0.1475
 8765TIP3    H147710   1.898   3.602   1.589 -1.5940  0.7681 -1.2532
 8765TIP3    H247711   2.033   3.652   1.541 -1.3525  0.9309 -0.4067
 8766TIP3   OH247712   3.852   6.511   4.346  0.4277  0.1926  0.2566
 8766TIP3    H147713   3.781   6.456   4.313  0.1767  1.4378 -1.4209
 8766TIP3    H247714   3.883   6.559   4.269  1.4211  1.5077  1.4184
 8767TIP3   OH247715   1.285   2.839  16.597  0.1504  0.4065  0.7923
 8767TIP3    H147716   1.199   2.835  16.639 -0.9194 -0.9617 -1.3895
 8767TIP3    H247717   1.271   2.892  16.519  1.1546 -0.2973  0.1179
 8768TIP3   OH247718   2.551   0.519  12.511 -0.0355  0.0922  0.2120
 8768TIP3    H147719   2.595   0.592  12.553  1.7911  0.4574 -2.1292
 8768TIP3    H247720   2.538   0.547  12.420 -1.0136 -1.7744 -0.2920
 8769TIP3   OH247721   6.599   0.096  11.744 -0.3312 -0.1631  0.0455
 8769TIP3    H147722   6.622   0.033  11.676 -1.4975 -0.3814 -0.1659
 8769TIP3    H247723   6.672   0.158  11.745 -1.1910  1.0820 -2.8947
 8770TIP3   OH247724   5.835   5.389   3.511 -0.1422  0.0897 -0.2754
 8770TIP3    H147725   5.797   5.313   3.555 -0.4271  0.7468  0.6621
 8770TIP3    H247726   5.827   5.460   3.576 -0.8686  1.1829 -1.5114
 8771TIP3   OH247727   5.794   4.284   1.217 -0.2855 -0.6706  0.1790
 8771TIP3    H147728   5.825   4.372   1.198  1.5258 -1.4851 -0.8733
 8771TIP3    H247729   5.701   4.295   1.239 -0.3031  1.3769 -0.7419
 8772TIP3   OH247730   4.431   5.797  11.625  0.0637  0.0248 -0.4184
 8772TIP3    H147731   4.380   5.876  11.606  1.7164  1.4306  0.6236
 8772TIP3    H247732   4.509   5.806  11.570  0.2901 -0.8694 -0.2474
 8773TIP3   OH247733   0.872   6.684   3.552 -0.2955  0.1119  0.2819
 8773TIP3    H147734   0.943   6.702   3.490 -1.1959  1.8095 -0.3055
 8773TIP3    H247735   0.908   6.711   3.637 -0.4752  1.7610 -0.1271
 8774TIP3   OH247736   1.830   0.247  11.448  0.0080 -0.3711 -0.2075
 8774TIP3    H147737   1.775   0.302  11.392 -1.0128 -0.8470  0.3075
 8774TIP3    H247738   1.920   0.272  11.425 -0.4254  1.2796 -0.1934
 8775TIP3   OH247739   1.783   2.071  12.809  0.3270 -0.0699 -0.4806
 8775TIP3    H147740   1.729   2.064  12.888 -0.1697 -2.3501 -0.9445
 8775TIP3    H247741   1.854   2.008  12.823  1.7346  1.4021 -0.7622
 8776TIP3   OH247742   5.382   4.973   5.240 -0.2660 -0.3015  0.5255
 8776TIP3    H147743   5.347   4.955   5.327 -3.0005 -0.3479 -0.4914
 8776TIP3    H247744   5.386   4.888   5.197 -0.2187 -0.1211  0.1662
 8777TIP3   OH247745   2.168   1.589   0.066  0.1711  0.1060 -0.0049
 8777TIP3    H147746   2.201   1.672   0.099  0.4754  0.4464 -1.1226
 8777TIP3    H247747   2.097   1.613   0.006  0.7472 -0.3812 -0.9100
 8778TIP3   OH247748   5.565   0.983   3.347  0.5809  0.0376 -0.1874
 8778TIP3    H147749   5.487   1.010   3.300  0.2768 -0.1019  0.2340
 8778TIP3    H247750   5.624   1.058   3.342  0.1822  0.3679  0.0119
 8779TIP3   OH247751   5.498   2.317   1.845  0.1442 -0.3442 -0.6700
 8779TIP3    H147752   5.568   2.291   1.905  1.1981 -0.0567 -1.7405
 8779TIP3    H247753   5.420   2.326   1.901  0.6728 -1.8296  0.3521
 8780TIP3   OH247754   6.272   4.724   4.885 -0.0903 -0.1363 -0.1846
 8780TIP3    H147755   6.210   4.788   4.850  1.7153  1.7758 -0.0525
 8780TIP3    H247756   6.231   4.694   4.966 -1.5541 -0.1345 -0.8922
 8781TIP3   OH247757   3.874   5.139  14.018 -0.0087  0.1410  0.5901
 8781TIP3    H147758   3.949   5.089  14.050 -0.1788 -1.1390 -0.9114
 8781TIP3    H247759   3.851   5.197  14.090  0.8389 -1.2293  2.0031
 8782TIP3   OH247760   2.650   1.034   2.028 -0.2919  0.2938 -0.4920
 8782TIP3    H147761   2.671   0.941   2.034 -0.9855  0.2031  0.8730
 8782TIP3    H247762   2.733   1.079   2.041  0.2009 -0.1227 -2.0042
 8783TIP3   OH247763   5.091   2.100   4.613 -0.1316  0.6380 -0.8486
 8783TIP3    H147764   5.039   2.046   4.672 -1.1220  0.3414 -1.9323
 8783TIP3    H247765   5.119   2.039   4.544  0.5765  1.0658 -0.9459
 8784TIP3   OH247766   5.177   4.835  13.045  0.3447  0.3310  0.0149
 8784TIP3    H147767   5.105   4.894  13.020  0.4283 -0.4317 -2.1798
 8784TIP3    H247768   5.153   4.751  13.007  1.3342 -0.5251  1.2127
 8785TIP3   OH247769   2.628   0.701   1.474 -0.0824  0.0233 -0.1457
 8785TIP3    H147770   2.632   0.621   1.422  0.4131 -0.0591  0.0186
 8785TIP3    H247771   2.640   0.772   1.410 -1.3699  0.0242 -0.4251
 8786TIP3   OH247772   0.551   5.608   0.632 -0.0090  0.6718  0.5573
 8786TIP3    H147773   0.590   5.670   0.695  0.7318 -0.4436  1.2311
 8786TIP3    H247774   0.555   5.524   0.677 -0.7176  0.0794 -0.4749
 8787TIP3   OH247775   4.663   5.483  12.438  0.0289 -0.0472 -0.2134
 8787TIP3    H147776   4.595   5.447  12.382 -0.1777  0.5812 -0.3680
 8787TIP3    H247777   4.708   5.406  12.474 -1.4465 -0.4921  0.7396
 8788TIP3   OH247778   2.892   5.189  13.863  0.9695 -0.4971  0.3856
 8788TIP3    H147779   2.832   5.135  13.812  1.5585 -0.9283  0.1430
 8788TIP3    H247780   2.889   5.275  13.819  0.9171 -0.6584  0.0693
 8789TIP3   OH247781   2.513   5.654  14.017 -0.2670 -0.6389  0.5361
 8789TIP3    H147782   2.540   5.695  14.099 -0.5562 -0.5145  0.5705
 8789TIP3    H247783   2.448   5.589  14.043  0.3004 -1.2258  0.4980
 8790TIP3   OH247784   2.250   5.304   5.258  0.1794  0.4508  0.0868
 8790TIP3    H147785   2.282   5.214   5.267 -0.3036  0.4865  3.4478
 8790TIP3    H247786   2.184   5.313   5.327  0.2902  3.4173 -0.0614
 8791TIP3   OH247787   6.705   2.504   5.680 -1.1509 -0.2419 -0.5148
 8791TIP3    H147788   6.638   2.531   5.743 -0.6629 -2.4219  1.0396
 8791TIP3    H247789   6.678   2.417   5.652 -1.5069  0.7199 -3.6593
 8792TIP3   OH247790   3.418   2.539  15.999  0.1686 -0.5957  0.5768
 8792TIP3    H147791   3.380   2.604  16.057 -3.1525  0.0836 -2.1035
 8792TIP3    H247792   3.497   2.581  15.964 -0.4757  0.9024  0.8656
 8793TIP3   OH247793   3.836   3.130   6.510 -0.0760  0.3402  0.0419
 8793TIP3    H147794   3.815   3.221   6.491  0.9846  0.1329 -2.4524
 8793TIP3    H247795   3.927   3.133   6.540 -0.3398  0.1680  0.8959
 8794TIP3   OH247796   1.690   4.209  14.151  0.3304  0.1592 -0.0191
 8794TIP3    H147797   1.604   4.179  14.123  0.0177  1.2179 -0.2010
 8794TIP3    H247798   1.689   4.199  14.247 -0.8891  2.3959  0.2615
 8795TIP3   OH247799   6.208   6.653   3.068 -0.1833  0.2122  0.5223
 8795TIP3    H147800   6.221   6.564   3.035  0.6929 -0.9967  3.7391
 8795TIP3    H247801   6.296   6.687   3.081 -0.4919  2.0198 -1.5366
 8796TIP3   OH247802   2.850   3.288   2.481 -0.5635 -0.1904  0.0739
 8796TIP3    H147803   2.875   3.198   2.502 -0.9176  0.0327  1.5236
 8796TIP3    H247804   2.775   3.306   2.537 -2.1051  0.1925 -2.0010
 8797TIP3   OH247805   5.774   2.366   6.023 -0.0044 -0.5269  0.1459
 8797TIP3    H147806   5.718   2.414   5.961  0.4285  0.1561  0.2717
 8797TIP3    H247807   5.727   2.284   6.039 -0.1029 -0.7443 -1.1345
 8798TIP3   OH247808   6.696   5.785  13.332 -0.1540 -0.1502 -0.8161
 8798TIP3    H147809   6.610   5.747  13.347  0.2561 -0.5695  0.6325
 8798TIP3    H247810   6.752   5.744  13.397  0.9098  0.9393 -1.0031
 8799TIP3   OH247811   6.800   2.028  12.079  0.4570 -0.0905  0.3613
 8799TIP3    H147812   6.844   2.106  12.113  0.2905 -0.4267  1.3765
 8799TIP3    H247813   6.856   1.998  12.007  0.3083  1.1892 -0.3234
 8800TIP3   OH247814   0.410   2.645  14.223 -0.0169  0.1121  0.0286
 8800TIP3    H147815   0.450   2.655  14.136  0.5203  1.0905  0.3750
 8800TIP3    H247816   0.416   2.732  14.262 -0.7609 -0.1887  0.8383
 8801TIP3   OH247817   2.480   1.392   6.860  0.5371 -0.1673 -0.1455
 8801TIP3    H147818   2.443   1.458   6.802  0.7803 -0.2257 -0.3657
 8801TIP3    H247819   2.416   1.385   6.931  0.2124 -0.1327 -0.4303
 8802TIP3   OH247820   2.860   3.852  12.709 -0.1829 -0.0517  0.1556
 8802TIP3    H147821   2.797   3.781  12.723  0.3757  0.0046  3.7045
 8802TIP3    H247822   2.814   3.913  12.651 -1.8247 -1.8606 -0.5719
 8803TIP3   OH247823   4.536   4.927   2.545 -0.1961 -0.2594  0.4120
 8803TIP3    H147824   4.484   5.000   2.580  0.1301 -0.0642  0.4956
 8803TIP3    H247825   4.550   4.950   2.453 -2.1495 -1.3894 -0.2283
 8804TIP3   OH247826   5.863   6.382  13.221  0.1369  0.2037  0.2457
 8804TIP3    H147827   5.864   6.363  13.127 -1.0714 -1.4101  0.5022
 8804TIP3    H247828   5.810   6.461  13.229  2.2025  1.7547 -0.5859
 8805TIP3   OH247829   1.900   6.176   0.744  0.2757 -0.3932  0.6235
 8805TIP3    H147830   1.932   6.168   0.654  0.9628 -2.5298  0.9910
 8805TIP3    H247831   1.842   6.101   0.756 -0.4643  0.3181  1.7200
 8806TIP3   OH247832   6.698   1.815  13.477  0.2823  0.0119  0.2350
 8806TIP3    H147833   6.623   1.773  13.520  0.8883 -1.1340  0.2130
 8806TIP3    H247834   6.672   1.906  13.468 -0.8149 -0.2115  0.8987
 8807TIP3   OH247835   3.206   0.241   3.747  0.4494 -0.7348 -0.6117
 8807TIP3    H147836   3.217   0.180   3.675 -0.6293 -0.0647 -1.3762
 8807TIP3    H247837   3.199   0.327   3.705  1.5943 -0.0975  0.4135
 8808TIP3   OH247838   5.596   3.390  15.102  0.4095  1.0233 -0.6285
 8808TIP3    H147839   5.558   3.450  15.037  0.1293  1.5667  0.0278
 8808TIP3    H247840   5.665   3.440  15.144 -0.6291  1.3311  0.7796
 8809TIP3   OH247841   5.107   5.502  14.399 -0.1009 -0.3858 -0.9328
 8809TIP3    H147842   5.159   5.461  14.468 -3.6846 -0.1231  2.2639
 8809TIP3    H247843   5.049   5.432  14.368 -0.5525  0.2485 -1.5642
 8810TIP3   OH247844   2.686   4.966   3.581  0.3110  0.6435  0.2548
 8810TIP3    H147845   2.646   4.889   3.623  2.1185 -0.3900  0.1885
 8810TIP3    H247846   2.621   4.994   3.516  0.0100 -1.4971 -0.4642
 8811TIP3   OH247847   5.625   3.844  16.075  0.0573 -0.3103 -0.3472
 8811TIP3    H147848   5.634   3.789  15.997 -2.0503 -0.5129 -0.5142
 8811TIP3    H247849   5.693   3.911  16.065 -0.0938 -0.3841 -2.3156
 8812TIP3   OH247850   0.176   4.294  14.546  0.0737 -0.5779 -0.5555
 8812TIP3    H147851   0.221   4.320  14.466 -0.7954  1.6976 -0.3714
 8812TIP3    H247852   0.244   4.293  14.613  0.2825  0.4702 -0.7446
 8813TIP3   OH247853   4.931   1.661  14.836  0.2660  0.2011 -0.2914
 8813TIP3    H147854   4.855   1.660  14.894  1.2698 -1.2780  1.0945
 8813TIP3    H247855   4.906   1.605  14.762 -0.2778  0.3887 -0.2489
 8814TIP3   OH247856   5.407   3.233  14.119 -0.2233  0.2631  0.3014
 8814TIP3    H147857   5.315   3.235  14.091 -0.4915  0.9500  1.2154
 8814TIP3    H247858   5.410   3.285  14.199  1.2388  1.4523 -0.4850
 8815TIP3   OH247859   5.959   5.638  11.549  0.0773  0.7531 -0.0588
 8815TIP3    H147860   5.945   5.660  11.458  0.5847  3.0338  0.3606
 8815TIP3    H247861   6.045   5.674  11.570  1.2997 -2.2246  0.6262
 8816TIP3   OH247862   6.658   3.152  16.772  0.0543  0.1165 -0.3586
 8816TIP3    H147863   6.644   3.244  16.752  0.9557  0.4740  0.6178
 8816TIP3    H247864   6.572   3.111  16.757 -0.0443  0.8522 -2.0687
 8817TIP3   OH247865   3.657   4.449  13.368  0.7152 -0.3415 -0.3882
 8817TIP3    H147866   3.694   4.474  13.284  2.4149 -1.1757  0.0630
 8817TIP3    H247867   3.689   4.360  13.383 -0.4436 -0.6167  0.6543
 8818TIP3   OH247868   4.025   2.558  15.078  0.5535  0.0117 -0.2926
 8818TIP3    H147869   3.992   2.511  15.001  3.3046 -2.3339 -0.2233
 8818TIP3    H247870   4.019   2.495  15.149 -0.5344  1.6489  1.1499
 8819TIP3   OH247871   6.684   1.450   2.075  0.2348 -0.0293  0.2457
 8819TIP3    H147872   6.698   1.392   2.000  0.1752  1.4322 -0.9374
 8819TIP3    H247873   6.690   1.392   2.151  0.7470 -1.4824 -0.8489
 8820TIP3   OH247874   5.690   6.422  10.828 -0.6188  0.5749 -0.2487
 8820TIP3    H147875   5.692   6.328  10.847  2.5120  0.0305 -2.4907
 8820TIP3    H247876   5.727   6.464  10.905 -2.9533  0.1804  1.1904
 8821TIP3   OH247877   3.562   4.476  15.176  0.3442  0.2568 -1.5355
 8821TIP3    H147878   3.611   4.395  15.191  1.8199  1.3802  0.0783
 8821TIP3    H247879   3.530   4.501  15.262 -0.1741  1.3583 -2.0272
 8822TIP3   OH247880   4.814   5.553   3.966 -0.3750  0.0082  0.2713
 8822TIP3    H147881   4.758   5.512   3.900 -0.5133  0.4175  0.1252
 8822TIP3    H247882   4.789   5.646   3.963  0.2104  0.1699  0.3045
 8823TIP3   OH247883   0.558   3.299  16.621  0.6745 -0.0101 -0.5636
 8823TIP3    H147884   0.474   3.344  16.629  0.6229 -0.1644 -0.2381
 8823TIP3    H247885   0.609   3.353  16.560  0.5230  0.3451 -0.3737
 8824TIP3   OH247886   4.247   0.818  14.758  0.6331  0.0059 -0.3158
 8824TIP3    H147887   4.230   0.905  14.720  1.8159 -0.2155 -1.4080
 8824TIP3    H247888   4.342   0.811  14.761  0.6016 -0.2934  2.1144
 8825TIP3   OH247889   2.818   6.226  16.730 -0.3892  0.0102  0.3444
 8825TIP3    H147890   2.781   6.267  16.808 -3.4136  1.3092 -1.5645
 8825TIP3    H247891   2.895   6.278  16.708  0.5838 -0.4630  2.4469
 8826TIP3   OH247892   5.621   1.171  11.012 -0.0766  0.1152  0.0190
 8826TIP3    H147893   5.633   1.181  11.106 -1.1356 -0.4630  0.2321
 8826TIP3    H247894   5.678   1.097  10.988  1.9151  1.6516 -0.2245
 8827TIP3   OH247895   5.987   4.853  13.806  0.1388  0.2507 -0.2229
 8827TIP3    H147896   6.063   4.841  13.862 -0.5640 -0.1981  0.6662
 8827TIP3    H247897   5.955   4.941  13.827  1.4001  1.1746 -1.8821
 8828TIP3   OH247898   0.324   3.798  15.461  0.2089  0.9334 -0.2924
 8828TIP3    H147899   0.255   3.860  15.441  0.5280  1.3531 -0.1098
 8828TIP3    H247900   0.404   3.840  15.430  0.4519  0.7065  0.0212
 8829TIP3   OH247901   3.806   6.202   5.515  0.1030 -0.2900  0.4505
 8829TIP3    H147902   3.861   6.276   5.487  0.4397 -0.8048 -0.2865
 8829TIP3    H247903   3.860   6.125   5.497 -0.7720 -0.7892 -0.0470
 8830TIP3   OH247904   3.893   1.608  15.873  0.4213  0.0578 -0.0923
 8830TIP3    H147905   3.967   1.638  15.820  1.1576 -0.4295  0.6243
 8830TIP3    H247906   3.881   1.517  15.847 -0.4336  0.3491 -0.7519
 8831TIP3   OH247907   6.444   6.560   0.937 -0.4058  0.5374  0.3437
 8831TIP3    H147908   6.401   6.615   0.872  1.5179  0.0226 -1.4698
 8831TIP3    H247909   6.534   6.593   0.941 -0.0624 -0.4612  1.5707
 8832TIP3   OH247910   5.698   6.586  13.710 -0.0822  0.8952  0.3003
 8832TIP3    H147911   5.664   6.505  13.748 -1.6889  0.7790 -1.2594
 8832TIP3    H247912   5.790   6.588  13.737 -0.4299 -0.5816  1.7545
 8833TIP3   OH247913   3.391   6.629  14.836  0.0867 -0.7753  0.0155
 8833TIP3    H147914   3.423   6.546  14.871  1.8125  0.8398  2.6716
 8833TIP3    H247915   3.337   6.666  14.906  2.1113  1.7614  0.4029
 8834TIP3   OH247916   3.007   1.546  12.898 -0.1080  0.1390 -0.3008
 8834TIP3    H147917   3.087   1.594  12.876  0.8015 -0.1836  1.9926
 8834TIP3    H247918   3.025   1.507  12.983 -2.8545  0.3771  0.5068
 8835TIP3   OH247919   5.478   3.458   5.520  0.6639 -0.3737  1.0635
 8835TIP3    H147920   5.446   3.431   5.606  1.7628 -1.5678  1.1395
 8835TIP3    H247921   5.465   3.381   5.465  2.6049 -0.6651  0.9221
 8836TIP3   OH247922   2.620   6.640  13.234 -0.3438  0.9618 -0.3082
 8836TIP3    H147923   2.540   6.662  13.282 -0.7612  0.2657 -0.6779
 8836TIP3    H247924   2.689   6.646  13.300 -0.7039  1.5244  0.0242
 8837TIP3   OH247925   0.814   3.465   4.537  0.4971  0.3460  0.5831
 8837TIP3    H147926   0.862   3.536   4.495 -1.3955 -0.3456 -3.2101
 8837TIP3    H247927   0.737   3.508   4.576  1.5278  0.8083  2.2202
 8838TIP3   OH247928   3.443   4.750   4.808 -0.0921 -0.1266  0.2644
 8838TIP3    H147929   3.504   4.823   4.795  0.3701 -0.8687 -2.0967
 8838TIP3    H247930   3.375   4.787   4.865 -0.1808  2.3805 -1.2900
 8839TIP3   OH247931   4.102   1.156   3.897  0.1036  0.1078 -0.5174
 8839TIP3    H147932   4.010   1.170   3.917  0.4201  0.5331  0.7752
 8839TIP3    H247933   4.105   1.143   3.803 -0.9777  2.7753 -1.0176
 8840TIP3   OH247934   2.124   3.062  16.381  0.2935  0.3854  0.4649
 8840TIP3    H147935   2.197   3.078  16.322 -1.7226  1.6879 -1.8505
 8840TIP3    H247936   2.111   2.967  16.377  0.2007  0.4301 -1.2969
 8841TIP3   OH247937   5.372   2.575  11.609  0.0085  0.2285 -0.2478
 8841TIP3    H147938   5.418   2.634  11.550 -0.6061  0.2284 -0.7372
 8841TIP3    H247939   5.281   2.606  11.609 -0.0517  0.0829  0.5121
 8842TIP3   OH247940   4.420   2.877  15.328 -0.4604  0.1722 -0.0500
 8842TIP3    H147941   4.499   2.825  15.323  1.4836  3.0106 -1.8182
 8842TIP3    H247942   4.356   2.830  15.273  0.4439 -1.4056  0.1991
 8843TIP3   OH247943   5.298   2.662   3.531  0.0524 -0.1826  0.1678
 8843TIP3    H147944   5.368   2.648   3.468  0.0312  1.3426 -0.2270
 8843TIP3    H247945   5.218   2.638   3.484 -0.1448  2.5348 -1.0347
 8844TIP3   OH247946   0.139   4.778  12.958  1.0164 -0.0329 -0.1534
 8844TIP3    H147947   0.232   4.780  12.978  0.9859 -1.1266  0.1935
 8844TIP3    H247948   0.129   4.704  12.898  0.1282 -1.2137  1.3611
 8845TIP3   OH247949   4.277   0.771  12.495  0.7620 -0.3414  0.4247
 8845TIP3    H147950   4.365   0.775  12.534  1.9712 -1.4900 -1.9631
 8845TIP3    H247951   4.247   0.682  12.513 -1.4447  0.9342  4.0401
 8846TIP3   OH247952   4.747   5.225  14.814  0.0126 -0.4204  0.1561
 8846TIP3    H147953   4.811   5.197  14.749  0.1385  0.3723 -0.0648
 8846TIP3    H247954   4.664   5.226  14.767  0.2952  1.4036 -0.3682
 8847TIP3   OH247955   2.313   2.604  12.565 -0.1821  0.2522  0.2547
 8847TIP3    H147956   2.263   2.678  12.531 -0.2171  0.3836  0.5876
 8847TIP3    H247957   2.403   2.637  12.574 -0.5680  0.8957  2.2955
 8848TIP3   OH247958   2.779   4.637   2.009 -0.0182 -0.0600  0.0043
 8848TIP3    H147959   2.686   4.658   2.013  0.5752  3.5937 -1.4424
 8848TIP3    H247960   2.797   4.628   1.915  1.1947 -0.1770  0.2341
 8849TIP3   OH247961   2.440   3.930   3.061  0.6139  0.4406  0.4760
 8849TIP3    H147962   2.457   3.849   3.012 -0.4919  0.1939  0.4902
 8849TIP3    H247963   2.351   3.920   3.094  0.5826  1.5349  0.7484
 8850TIP3   OH247964   5.579   5.543   0.617 -0.3767  0.3551  0.0623
 8850TIP3    H147965   5.659   5.527   0.568  0.5512 -1.8703  2.1093
 8850TIP3    H247966   5.558   5.459   0.658 -2.5872  1.4020  1.2905
 8851TIP3   OH247967   1.397   0.224   5.970  0.0430 -0.1133 -0.4599
 8851TIP3    H147968   1.391   0.225   5.875  2.0894  0.6487 -0.6372
 8851TIP3    H247969   1.489   0.205   5.988  0.3260  2.3577  1.2700
 8852TIP3   OH247970   6.500   1.900  16.733  0.7812 -0.3219  0.0093
 8852TIP3    H147971   6.448   1.826  16.765  0.8892 -0.2327  0.3922
 8852TIP3    H247972   6.506   1.960  16.807  1.0888 -0.1414 -0.1564
 8853TIP3   OH247973   3.479   1.603   2.692  0.2948  0.5156 -0.7848
 8853TIP3    H147974   3.442   1.520   2.665  2.1135 -0.6517  0.0864
 8853TIP3    H247975   3.422   1.669   2.653 -3.5935 -1.0315  1.7158
 8854TIP3   OH247976   4.316   2.802   1.655  0.1142 -0.2629 -0.3646
 8854TIP3    H147977   4.405   2.768   1.660 -1.2913 -4.4364  0.4083
 8854TIP3    H247978   4.299   2.814   1.562  1.3501  0.1420 -0.5413
 8855TIP3   OH247979   4.755   3.316   3.498  0.3257 -0.1511 -0.3851
 8855TIP3    H147980   4.848   3.296   3.501  1.3813  3.4087 -2.3669
 8855TIP3    H247981   4.741   3.377   3.570  0.0745  0.8777 -1.2678
 8856TIP3   OH247982   3.044   4.003   5.063 -0.3333  0.4740 -0.5613
 8856TIP3    H147983   2.968   4.023   5.118  1.1905  1.4633  1.3038
 8856TIP3    H247984   3.062   3.910   5.080 -0.8018  0.3647 -0.6316
 8857TIP3   OH247985   0.543   6.580   2.178  0.1734  0.0709 -0.0306
 8857TIP3    H147986   0.543   6.583   2.082 -0.4381 -0.2383 -0.0427
 8857TIP3    H247987   0.454   6.554   2.202  1.0120 -2.7093  0.4968
 8858TIP3   OH247988   0.979   5.771  16.374 -0.5429 -0.0296 -0.1402
 8858TIP3    H147989   0.931   5.779  16.292 -0.6380 -0.0614 -0.0874
 8858TIP3    H247990   1.055   5.828  16.363 -0.3912 -0.2782 -0.3678
 8859TIP3   OH247991   5.808   6.056  14.246 -0.4214 -0.4645 -0.6056
 8859TIP3    H147992   5.898   6.090  14.245 -0.8738  0.9610  1.4174
 8859TIP3    H247993   5.772   6.080  14.160  0.3486  1.2484 -0.4809
 8860TIP3   OH247994   4.830   3.924  13.635  0.4172 -0.3557 -0.4686
 8860TIP3    H147995   4.869   4.000  13.678  1.6926 -0.3777 -1.5323
 8860TIP3    H247996   4.740   3.951  13.616 -0.0648 -0.1984  1.7670
 8861TIP3   OH247997   0.131   1.402  10.576  0.7623  0.1181 -0.2236
 8861TIP3    H147998   0.043   1.371  10.554  0.3636  2.3841 -2.2608
 8861TIP3    H247999   0.184   1.381  10.499  1.0391  2.1512 -0.6440
 8862TIP3   OH248000   5.232   1.528  11.111  0.8809 -0.0829  0.4575
 8862TIP3    H148001   5.234   1.488  11.024  1.2881  1.8723 -0.4718
 8862TIP3    H248002   5.174   1.604  11.101 -0.0611 -0.5136  2.2239
 8863TIP3   OH248003   1.145   5.949  11.547 -0.1614  0.6119 -0.4929
 8863TIP3    H148004   1.187   6.026  11.509 -1.3287  2.2595  1.3732
 8863TIP3    H248005   1.207   5.918  11.613  0.4025 -0.2229 -1.3904
 8864TIP3   OH248006   4.148   0.570   2.538  0.3589  0.0220  0.0925
 8864TIP3    H148007   4.063   0.538   2.568 -0.5213 -0.3374 -2.5617
 8864TIP3    H248008   4.211   0.527   2.596 -1.1400 -1.3928  0.7611
 8865TIP3   OH248009   5.038   1.809  10.213  0.0314  0.0530 -0.1763
 8865TIP3    H148010   4.960   1.795  10.160  1.5387 -2.1931 -1.9626
 8865TIP3    H248011   5.047   1.730  10.265  2.8762 -1.3447 -2.5170
 8866TIP3   OH248012   4.650   3.048   3.546  0.9856 -0.1683  0.1956
 8866TIP3    H148013   4.671   3.140   3.530  2.2073 -0.4900 -0.1640
 8866TIP3    H248014   4.588   3.025   3.476  1.0485  0.2566 -0.0048
 8867TIP3   OH248015   1.599   1.959  13.766  0.0217 -0.0580  0.5105
 8867TIP3    H148016   1.555   1.928  13.845  0.7263 -0.7690  0.6326
 8867TIP3    H248017   1.598   1.884  13.707  1.8751 -0.4101  0.8634
 8868TIP3   OH248018   1.250   4.364  11.294  0.3738  0.7676  0.1221
 8868TIP3    H148019   1.274   4.345  11.203  0.1419  0.2222  0.1699
 8868TIP3    H248020   1.190   4.438  11.288  0.5964  0.9322 -0.1424
 8869TIP3   OH248021   4.225   5.350   4.188 -0.4683 -0.2112  0.0785
 8869TIP3    H148022   4.281   5.356   4.111 -0.9026  2.2967 -0.1124
 8869TIP3    H248023   4.213   5.256   4.201  1.9587 -0.7705 -1.1559
 8870TIP3   OH248024   0.698   2.779   5.005 -0.7536  0.1938 -0.2628
 8870TIP3    H148025   0.661   2.832   5.076  0.4427 -0.2828  0.7585
 8870TIP3    H248026   0.634   2.709   4.991 -0.3951 -0.5044  1.3351
 8871TIP3   OH248027   0.861   5.082   2.555  0.3796 -0.1412 -0.2687
 8871TIP3    H148028   0.820   5.000   2.526  1.1130 -0.4955 -0.3168
 8871TIP3    H248029   0.955   5.063   2.557  0.5043  0.4849  0.3971
 8872TIP3   OH248030   4.804   0.909  11.327  0.4274 -0.1883  0.3365
 8872TIP3    H148031   4.809   0.813  11.328  1.5343 -0.1545 -0.2501
 8872TIP3    H248032   4.880   0.936  11.277 -1.5287  0.9006 -2.2883
 8873TIP3   OH248033   5.705   5.923   5.306 -0.4768 -0.4210  0.4036
 8873TIP3    H148034   5.780   5.982   5.310 -1.4094  0.8280  0.0228
 8873TIP3    H248035   5.740   5.841   5.271  0.5891  0.3341 -0.3434
 8874TIP3   OH248036   3.608   0.877   0.382  0.0241  0.0423  0.0218
 8874TIP3    H148037   3.621   0.971   0.398  1.9706 -0.4444  1.7424
 8874TIP3    H248038   3.543   0.851   0.447 -1.7184  0.4268 -1.4815
 8875TIP3   OH248039   6.633   1.030   4.011  0.4365 -0.5047 -0.5136
 8875TIP3    H148040   6.701   1.095   3.998  0.4145 -0.8005 -2.3591
 8875TIP3    H248041   6.559   1.078   4.048  0.3613  0.5790 -1.9969
 8876TIP3   OH248042   5.810   4.277   4.131 -0.3626 -0.8605 -0.1657
 8876TIP3    H148043   5.837   4.283   4.223 -1.0435 -1.6284  0.1001
 8876TIP3    H248044   5.784   4.366   4.108  0.4117 -0.5350  0.1913
 8877TIP3   OH248045   0.783   5.996  14.141 -0.6407 -0.1400  0.0686
 8877TIP3    H148046   0.707   5.938  14.134  0.0743 -1.1140  0.0464
 8877TIP3    H248047   0.813   5.985  14.232 -2.2631  2.5401  1.0339
 8878TIP3   OH248048   2.296   6.040   3.466  0.1207 -0.0263 -0.8900
 8878TIP3    H148049   2.388   6.058   3.485 -0.0198 -1.1589  1.0758
 8878TIP3    H248050   2.259   6.125   3.445  0.8330  1.0780  1.9207
 8879TIP3   OH248051   3.643   5.956   2.101 -0.4011  0.5290  0.6204
 8879TIP3    H148052   3.692   6.038   2.112 -0.0109  0.5107 -0.8188
 8879TIP3    H248053   3.708   5.887   2.116 -0.7157  0.4491  1.7685
 8880TIP3   OH248054   2.979   5.143  14.592  0.1444  0.2154  0.3066
 8880TIP3    H148055   2.962   5.063  14.643 -0.5826 -0.5559 -1.0922
 8880TIP3    H248056   2.979   5.114  14.501  3.0173  1.2901 -0.1223
 8881TIP3   OH248057   3.801   1.044  16.806 -0.1353 -0.4592 -0.0403
 8881TIP3    H148058   3.845   0.989  16.870  0.9835  0.1594 -0.2548
 8881TIP3    H248059   3.718   1.068  16.848  1.1722  1.1087  1.8081
 8882TIP3   OH248060   3.286   3.928   2.842  0.3815 -0.1232  0.2770
 8882TIP3    H148061   3.218   3.964   2.784  0.7606  1.5239  0.7946
 8882TIP3    H248062   3.332   3.864   2.788  0.4528  1.0592 -1.1429
 8883TIP3   OH248063   3.486   1.739  11.911  0.3318 -0.6951  0.2604
 8883TIP3    H148064   3.476   1.647  11.934  0.0828 -1.6138 -2.9943
 8883TIP3    H248065   3.406   1.761  11.864  0.7033  0.9840  0.3279
 8884TIP3   OH248066   5.557   1.841   3.695 -0.4686  0.4049  0.0958
 8884TIP3    H148067   5.644   1.868   3.666 -0.1807  0.7053  1.2024
 8884TIP3    H248068   5.499   1.909   3.661 -0.2816  0.1809 -0.6809
 8885TIP3   OH248069   0.920   2.124  11.248 -0.2796 -0.4261 -0.9130
 8885TIP3    H148070   0.871   2.161  11.322 -0.2374  0.5443 -1.3595
 8885TIP3    H248071   0.858   2.122  11.176 -0.1702 -0.9018 -1.0023
 8886TIP3   OH248072   6.712   4.793   3.361  0.4179  0.2264 -0.3273
 8886TIP3    H148073   6.649   4.860   3.334 -1.4931 -0.5822  1.8320
 8886TIP3    H248074   6.734   4.815   3.452  0.2325 -1.6745  0.2211
 8887TIP3   OH248075   0.789   4.029   0.983  0.2280 -0.0448 -0.2059
 8887TIP3    H148076   0.714   3.970   0.991 -0.0182  0.3557  0.5031
 8887TIP3    H248077   0.756   4.114   1.010  0.6666  0.3621 -0.9188
 8888TIP3   OH248078   0.663   6.233  14.606  0.1960  0.0753 -0.1159
 8888TIP3    H148079   0.637   6.304  14.666  1.3299  0.1999  0.2583
 8888TIP3    H248080   0.581   6.199  14.572 -0.4967 -0.0369  1.5663
 8889TIP3   OH248081   3.794   0.591  13.379  0.4482 -0.5719 -0.5968
 8889TIP3    H148082   3.726   0.591  13.312 -1.7233 -1.2869  1.4794
 8889TIP3    H248083   3.820   0.683  13.386 -0.3426 -0.2767 -1.3859
 8890TIP3   OH248084   1.850   5.794   3.598  0.5887 -0.0446 -0.3990
 8890TIP3    H148085   1.934   5.837   3.610 -0.3032  1.2784  1.6843
 8890TIP3    H248086   1.864   5.705   3.630  1.3117  0.0127 -0.5450
 8891TIP3   OH248087   4.876   3.605  15.250  0.6991  0.3558 -0.8234
 8891TIP3    H148088   4.817   3.628  15.321 -0.3452 -2.8487 -0.5215
 8891TIP3    H248089   4.837   3.645  15.172 -2.0596 -1.7291 -0.6448
 8892TIP3   OH248090   5.189   1.126   4.414 -0.1973 -0.0453 -0.3241
 8892TIP3    H148091   5.225   1.085   4.336  0.7570 -0.0708  0.1210
 8892TIP3    H248092   5.203   1.220   4.401  1.6293 -0.1464  0.5936
 8893TIP3   OH248093   3.690   6.403  12.816 -0.0969  0.6985  0.0164
 8893TIP3    H148094   3.707   6.386  12.909  0.5212  0.7400 -0.0864
 8893TIP3    H248095   3.749   6.476  12.794  0.4505  0.0672 -0.6490
 8894TIP3   OH248096   6.109   6.697  16.140  0.2661 -0.2768 -0.7789
 8894TIP3    H148097   6.023   6.676  16.177  0.1166 -1.5661 -1.7993
 8894TIP3    H248098   6.144   6.764  16.199 -1.8401  1.0293 -0.8939
 8895TIP3   OH248099   6.498   3.369  11.841 -0.5693  0.2163 -0.2880
 8895TIP3    H148100   6.420   3.346  11.790 -1.1459  0.1613  0.5824
 8895TIP3    H248101   6.463   3.417  11.917  0.3234  0.9959 -0.3483
 8896TIP3   OH248102   3.252   4.340  14.343 -0.9064 -0.0028 -0.7806
 8896TIP3    H148103   3.276   4.285  14.269  1.0335  2.3995 -2.0897
 8896TIP3    H248104   3.238   4.278  14.415  0.1330 -2.2537 -2.3751
 8897TIP3   OH248105   6.481   2.820  15.186  0.2234  0.5311  0.0077
 8897TIP3    H148106   6.475   2.735  15.142  2.6106  0.5858 -0.5270
 8897TIP3    H248107   6.415   2.874  15.141 -0.8171 -0.7886 -0.1391
 8898TIP3   OH248108   5.834   4.138   5.205 -0.2967  0.3753 -0.0677
 8898TIP3    H148109   5.761   4.088   5.241  1.4784 -1.1437  1.6388
 8898TIP3    H248110   5.901   4.134   5.273  0.5900  3.6974 -0.5676
 8899TIP3   OH248111   2.043   5.203   0.420  0.2220  0.6481  0.7813
 8899TIP3    H148112   2.122   5.192   0.473  1.1068 -1.6168 -0.8848
 8899TIP3    H248113   2.075   5.212   0.330 -1.3753  0.0264  0.1093
 8900TIP3   OH248114   5.020   4.852  16.972 -0.1380  0.8834  0.6202
 8900TIP3    H148115   4.963   4.796  17.024  2.6144 -2.8054  0.0770
 8900TIP3    H248116   5.100   4.860  17.024  2.4561 -2.3672 -2.3421
 8901TIP3   OH248117   4.068   3.287   0.687  0.2364  0.3388  0.3402
 8901TIP3    H148118   4.035   3.218   0.744 -0.3442 -0.6029 -1.0789
 8901TIP3    H248119   4.151   3.252   0.652  0.2260  0.5927  0.0543
 8902TIP3   OH248120   2.989   0.365   3.483 -0.0897  0.0202 -0.1158
 8902TIP3    H148121   3.057   0.348   3.418 -0.5904  0.3689 -0.7483
 8902TIP3    H248122   2.935   0.286   3.483  1.2956 -1.0214  1.6884
 8903TIP3   OH248123   1.417   0.979   3.104  0.3176  0.2238 -0.3819
 8903TIP3    H148124   1.416   1.006   3.196 -0.7992 -1.1113  0.0581
 8903TIP3    H248125   1.495   1.019   3.067  0.1746  1.7326  0.8539
 8904TIP3   OH248126   0.264   2.640  16.780 -0.3540 -0.2069 -0.4261
 8904TIP3    H148127   0.184   2.684  16.751  0.5819 -0.2566 -3.4108
 8904TIP3    H248128   0.255   2.550  16.749 -0.0913 -0.8470  1.2505
 8905TIP3   OH248129   5.516   3.115   0.757 -0.1260 -0.4885  0.0331
 8905TIP3    H148130   5.577   3.042   0.750  0.5291  0.2169 -2.9950
 8905TIP3    H248131   5.572   3.192   0.764 -0.7001 -0.0033 -0.5385
 8906TIP3   OH248132   5.509   0.741  13.578 -0.3604  0.3533 -0.5578
 8906TIP3    H148133   5.486   0.693  13.657 -0.0930  1.0702 -0.0259
 8906TIP3    H248134   5.515   0.675  13.509 -3.0348  0.0026 -0.5346
 8907TIP3   OH248135   3.915   1.842   4.646  0.1202  0.4183 -0.1422
 8907TIP3    H148136   3.950   1.815   4.561 -2.1907  1.0750 -1.4087
 8907TIP3    H248137   3.833   1.794   4.654  1.4873 -1.7188  3.0847
 8908TIP3   OH248138   3.679   1.462  12.567 -0.1472  0.2491  0.4354
 8908TIP3    H148139   3.633   1.448  12.649 -1.3243 -0.5833 -0.3462
 8908TIP3    H248140   3.683   1.557  12.557 -1.8555  0.3509  0.4562
 8909TIP3   OH248141   3.196   4.843  10.567 -0.0136  0.3986 -0.1060
 8909TIP3    H148142   3.105   4.863  10.542 -0.2979 -0.2931  0.3412
 8909TIP3    H248143   3.191   4.828  10.662  0.3435 -0.8476 -0.2723
 8910TIP3   OH248144   5.307   2.057   5.371  0.6637 -0.2385 -0.2389
 8910TIP3    H148145   5.330   2.148   5.353  2.1783 -0.1870  1.6281
 8910TIP3    H248146   5.226   2.043   5.322 -0.3019  2.4756  0.3778
 8911TIP3   OH248147   2.735   4.989   2.942 -0.0567 -0.0036 -0.0908
 8911TIP3    H148148   2.645   4.970   2.917 -0.8220  2.0148  0.9180
 8911TIP3    H248149   2.787   4.964   2.865 -1.6443  0.2093 -1.2713
 8912TIP3   OH248150   3.342   5.921   3.340 -0.6869  0.4561 -0.4091
 8912TIP3    H148151   3.286   5.850   3.372 -1.0880 -0.0203 -2.0716
 8912TIP3    H248152   3.414   5.925   3.403 -1.3831 -0.4915  0.4807
 8913TIP3   OH248153   0.387   5.894   2.606  0.5736  0.0502 -0.0760
 8913TIP3    H148154   0.373   5.916   2.514  0.5900 -0.5322 -0.2230
 8913TIP3    H248155   0.316   5.834   2.628  0.2936  0.5693  0.4293
 8914TIP3   OH248156   4.981   5.480   6.167 -0.8665  0.2761  0.1316
 8914TIP3    H148157   4.994   5.425   6.244 -1.0058 -1.4019 -1.0035
 8914TIP3    H248158   5.055   5.541   6.168 -0.0114 -0.7481  0.7587
 8915TIP3   OH248159   6.470   4.770  15.577 -0.5510 -0.0751 -0.1479
 8915TIP3    H148160   6.391   4.753  15.629 -1.2777  1.1049 -0.8393
 8915TIP3    H248161   6.437   4.790  15.489  0.3386  2.5738  0.0515
 8916TIP3   OH248162   6.663   0.282  14.104 -0.1804 -0.2043 -0.1295
 8916TIP3    H148163   6.664   0.187  14.099 -0.2443 -0.1792 -0.6510
 8916TIP3    H248164   6.574   0.304  14.132 -0.3086 -0.2800 -0.4705
 8917TIP3   OH248165   4.430   5.064   0.836  0.5936 -0.2297  0.4392
 8917TIP3    H148166   4.394   5.107   0.759 -0.7805  0.3197  1.3537
 8917TIP3    H248167   4.508   5.116   0.858  0.7853 -0.1713 -0.3413
 8918TIP3   OH248168   0.643   0.450  16.743  0.3969 -0.2744  0.2129
 8918TIP3    H148169   0.568   0.405  16.704  1.2752 -1.8113  0.1929
 8918TIP3    H248170   0.678   0.503  16.672  0.6208 -1.2736 -0.4567
 8919TIP3   OH248171   0.446   3.556   5.632 -0.4201  0.1272  0.0333
 8919TIP3    H148172   0.380   3.577   5.567  0.0702  1.2381 -0.1212
 8919TIP3    H248173   0.406   3.580   5.716 -0.2373  0.7759 -0.0584
 8920TIP3   OH248174   2.618   1.378  11.059  0.3355 -0.6205 -0.5092
 8920TIP3    H148175   2.671   1.301  11.038 -0.5553 -1.2562 -0.4990
 8920TIP3    H248176   2.628   1.435  10.983 -0.8436 -1.7928 -1.6195
 8921TIP3   OH248177   2.414   4.814  14.559  0.3965  0.4579 -0.0064
 8921TIP3    H148178   2.413   4.883  14.493  1.5700  0.5917  0.0995
 8921TIP3    H248179   2.422   4.860  14.642  1.8498  0.2097  0.0285
 8922TIP3   OH248180   3.138   4.431   6.420  0.2419 -1.1226  0.2616
 8922TIP3    H148181   3.223   4.472   6.403 -0.9360  1.4124  0.1064
 8922TIP3    H248182   3.126   4.441   6.515 -0.6001  0.1160  0.0472
 8923TIP3   OH248183   3.451   0.843  15.350 -0.8834  0.1565 -1.1874
 8923TIP3    H148184   3.511   0.844  15.275  0.3685  0.1287 -0.2296
 8923TIP3    H248185   3.478   0.919  15.402 -1.8390  0.2661 -0.8455
 8924TIP3   OH248186   0.927   0.767   2.679  0.2700 -0.0746 -0.0275
 8924TIP3    H148187   0.974   0.830   2.734  0.9327  1.4178 -2.1717
 8924TIP3    H248188   0.995   0.723   2.628 -0.2727 -1.8831  0.7320
 8925TIP3   OH248189   0.241   6.011   4.274  0.1314  0.1890  0.7564
 8925TIP3    H148190   0.218   5.935   4.221  0.8393  1.2369 -1.1433
 8925TIP3    H248191   0.162   6.066   4.273  0.2010  0.2872  0.6537
 8926TIP3   OH248192   4.382   6.349  12.253 -0.2046 -0.3189 -0.1229
 8926TIP3    H148193   4.473   6.378  12.246 -0.9098  2.3541  0.6963
 8926TIP3    H248194   4.372   6.323  12.344 -0.0040 -1.8506 -0.4951
 8927TIP3   OH248195   1.482   6.036   1.224 -0.4751  0.3624 -0.5439
 8927TIP3    H148196   1.447   6.124   1.237 -0.2623  0.3868 -0.1312
 8927TIP3    H248197   1.498   6.030   1.129  0.4223  1.1185 -0.4523
 8928TIP3   OH248198   5.901   2.971  13.643 -0.5000 -0.2125 -0.4555
 8928TIP3    H148199   5.896   2.896  13.584 -1.5815 -1.4679  1.1438
 8928TIP3    H248200   5.834   2.955  13.709 -0.1311  1.7131  0.4713
 8929TIP3   OH248201   4.632   2.168  11.413 -0.4976 -0.2756 -0.0974
 8929TIP3    H148202   4.594   2.132  11.494 -0.5860  1.4642  0.6937
 8929TIP3    H248203   4.601   2.110  11.344 -1.2593 -1.2367  1.0058
 8930TIP3   OH248204   5.459   1.497   2.658 -0.1926  0.1043  0.4346
 8930TIP3    H148205   5.466   1.542   2.574 -2.0434 -1.3917 -0.5942
 8930TIP3    H248206   5.519   1.423   2.652 -0.7302 -0.3212  0.1803
 8931TIP3   OH248207   6.673   0.625  16.896  0.4228  0.1256 -0.0451
 8931TIP3    H148208   6.732   0.552  16.877 -0.0317 -0.2627  0.0148
 8931TIP3    H248209   6.729   0.690  16.937  0.9243 -0.0072 -0.5080
 8932TIP3   OH248210   2.803   1.923   0.398  0.1099  0.1733 -0.4131
 8932TIP3    H148211   2.764   1.979   0.465  1.4715 -1.3834  1.8149
 8932TIP3    H248212   2.875   1.879   0.443  0.6705 -1.4697 -2.7563
 8933TIP3   OH248213   1.304   0.201   3.461  0.3464  0.3974 -0.8366
 8933TIP3    H148214   1.222   0.251   3.466 -0.3792 -0.7656 -0.6646
 8933TIP3    H248215   1.363   0.246   3.521 -0.8978 -0.0098  0.7732
 8934TIP3   OH248216   1.718   3.708   4.525  0.5845  0.1106  0.0686
 8934TIP3    H148217   1.659   3.732   4.596  1.6493  0.2427  0.9432
 8934TIP3    H248218   1.785   3.654   4.567 -0.2408 -2.1692 -1.3529
 8935TIP3   OH248219   3.415   2.783   6.023  0.3639  0.1781 -0.2505
 8935TIP3    H148220   3.463   2.703   6.042  0.7938  0.6185  0.5847
 8935TIP3    H248221   3.461   2.851   6.072 -1.2036  0.5913  0.7113
 8936TIP3   OH248222   5.704   2.857  12.298  0.4379 -0.0769  0.0383
 8936TIP3    H148223   5.779   2.857  12.358 -0.7202  0.9682  1.5750
 8936TIP3    H248224   5.660   2.774  12.314  1.7903 -1.1632 -1.6234
 8937TIP3   OH248225   1.420   5.611   0.673  0.3547 -0.0288  0.6504
 8937TIP3    H148226   1.398   5.586   0.762  0.4480 -0.2101  0.6242
 8937TIP3    H248227   1.344   5.586   0.621  0.7966 -1.1029  0.4845
 8938TIP3   OH248228   3.047   0.715   5.080  0.3899  0.5692  0.0685
 8938TIP3    H148229   3.097   0.669   5.012 -1.2514  0.6704 -1.2833
 8938TIP3    H248230   2.956   0.690   5.063 -0.3157  2.5193  0.7373
 8939TIP3   OH248231   0.832   1.564   0.370  0.1645  0.7481  1.1806
 8939TIP3    H148232   0.757   1.619   0.349  0.0598  0.0621 -0.4505
 8939TIP3    H248233   0.808   1.520   0.451 -2.4078 -1.4227 -0.5762
 8940TIP3   OH248234   1.531   1.143  12.318 -1.3879  0.6399 -0.2599
 8940TIP3    H148235   1.563   1.150  12.408 -2.7750 -0.0339  0.3161
 8940TIP3    H248236   1.525   1.233  12.288 -1.0390  0.8822  0.3742
 8941TIP3   OH248237   5.183   5.589  16.588  0.6169  0.1679 -0.1814
 8941TIP3    H148238   5.231   5.669  16.608  0.5211 -0.0146  0.8079
 8941TIP3    H248239   5.122   5.579  16.660 -1.4250  0.7668 -1.7479
 8942TIP3   OH248240   2.816   2.317   3.050 -0.2698  0.2916 -0.1306
 8942TIP3    H148241   2.900   2.301   3.007  0.4306  0.8425  0.9800
 8942TIP3    H248242   2.840   2.346   3.138 -1.5872  1.7029 -0.2020
 8943TIP3   OH248243   0.912   4.772   1.183 -0.0243  0.0163 -0.4393
 8943TIP3    H148244   0.871   4.705   1.129 -0.1612  0.3448 -0.7433
 8943TIP3    H248245   1.000   4.781   1.147  0.4829 -0.9951  0.4803
 8944TIP3   OH248246   2.349   4.947   3.607  0.2679 -0.0409 -0.1796
 8944TIP3    H148247   2.363   5.004   3.532 -1.4741 -0.6263 -1.0105
 8944TIP3    H248248   2.377   4.860   3.577  0.4371 -0.1123  0.1717
 8945TIP3   OH248249   4.099   2.815  14.999 -0.0964 -0.0547  0.1766
 8945TIP3    H148250   4.077   2.724  15.021  0.0122 -0.2075 -0.3371
 8945TIP3    H248251   4.024   2.866  15.029 -0.6160 -0.4335 -0.4494
 8946TIP3   OH248252   0.719   0.806   2.492 -0.7864  0.2389 -0.0467
 8946TIP3    H148253   0.792   0.806   2.553 -1.1928  0.5065  0.4436
 8946TIP3    H248254   0.644   0.836   2.543 -0.9333  1.4227 -0.8973
 8947TIP3   OH248255   4.721   2.186   2.607  0.4028 -0.1431 -0.2465
 8947TIP3    H148256   4.726   2.091   2.593  1.5749 -0.0534 -0.4976
 8947TIP3    H248257   4.791   2.205   2.669 -0.3575  0.4594  0.4465
 8948TIP3   OH248258   3.955   4.201  14.141 -0.0849  0.5991 -0.0739
 8948TIP3    H148259   3.906   4.216  14.059 -0.9111  1.2273  0.5197
 8948TIP3    H248260   3.968   4.289  14.177 -0.1054  0.2956  0.6791
 8949TIP3   OH248261   6.411   1.870  14.564 -0.0124  0.2394  0.0088
 8949TIP3    H148262   6.403   1.904  14.653 -0.1657  2.1160 -0.6887
 8949TIP3    H248263   6.429   1.776  14.576 -0.6407  0.3242  1.9887
 8950TIP3   OH248264   6.271   3.794  13.122 -0.0113  0.8354 -0.5344
 8950TIP3    H148265   6.263   3.841  13.038 -0.8030 -0.2443 -1.0889
 8950TIP3    H248266   6.186   3.804  13.163  0.4964  1.6892  0.3421
 8951TIP3   OH248267   3.843   1.593  12.135 -0.5084  0.2421  0.1089
 8951TIP3    H148268   3.850   1.615  12.228  1.0957  0.8137 -0.1226
 8951TIP3    H248269   3.805   1.505  12.135 -0.3884  0.1633  1.3016
 8952TIP3   OH248270   5.372   0.365   3.058  0.4191  0.2855 -0.1285
 8952TIP3    H148271   5.380   0.457   3.034  1.0468  0.6700  1.4372
 8952TIP3    H248272   5.297   0.362   3.118 -0.2964 -0.4180 -1.0355
 8953TIP3   OH248273   3.731   3.477  12.853 -0.2049  0.2533  0.1035
 8953TIP3    H148274   3.658   3.442  12.904  1.2027  1.2971  3.0616
 8953TIP3    H248275   3.691   3.544  12.798 -1.7122 -0.3386  0.4076
 8954TIP3   OH248276   6.627   0.857   1.867 -0.4054 -0.1963  0.0632
 8954TIP3    H148277   6.534   0.851   1.847 -0.2392  0.6787 -1.0938
 8954TIP3    H248278   6.631   0.869   1.961 -1.4625 -0.1902  0.1156
 8955TIP3   OH248279   0.297   3.570   4.955  0.5828 -0.3172  0.2743
 8955TIP3    H148280   0.290   3.568   5.051 -1.2612  0.0747  0.1897
 8955TIP3    H248281   0.225   3.514   4.925  1.4404 -0.8235 -0.8963
 8956TIP3   OH248282   0.744   0.417  13.564 -0.6358 -0.0668 -0.6765
 8956TIP3    H148283   0.671   0.403  13.503 -2.2569  2.9770  0.3282
 8956TIP3    H248284   0.716   0.373  13.644 -0.7559 -0.0396 -0.7022
 8957TIP3   OH248285   4.086   2.247  13.416  0.0226  0.1845  0.2022
 8957TIP3    H148286   4.024   2.187  13.374  0.4709 -0.0861 -0.0862
 8957TIP3    H248287   4.088   2.323  13.358 -1.3150  0.9480  1.0881
 8958TIP3   OH248288   6.380   2.448  14.738  0.0855  0.3389  0.9281
 8958TIP3    H148289   6.447   2.514  14.757 -1.0167  1.0983  2.3678
 8958TIP3    H248290   6.369   2.452  14.643  0.0983  2.2199  0.9606
 8959TIP3   OH248291   4.075   3.390   0.347  0.0562 -0.1899  0.4631
 8959TIP3    H148292   4.007   3.423   0.406  0.1172 -1.7541  1.4653
 8959TIP3    H248293   4.150   3.449   0.362  0.5062 -1.2581  2.9624
 8960TIP3   OH248294   1.870   1.022  10.645  0.8283  0.0588 -0.4896
 8960TIP3    H148295   1.819   1.040  10.724  1.5303 -1.5420  0.3830
 8960TIP3    H248296   1.805   1.021  10.574  0.0495  0.5937  0.2044
 8961TIP3   OH248297   6.365   3.674  12.721  0.1355  0.2369  0.5508
 8961TIP3    H148298   6.325   3.622  12.791  0.3977  1.2219  1.4654
 8961TIP3    H248299   6.404   3.609  12.662 -1.8738 -0.7024  0.1838
 8962TIP3   OH248300   4.658   3.552   1.949 -0.3125 -0.0868  0.3148
 8962TIP3    H148301   4.706   3.502   1.883  0.8377  0.7737  0.4803
 8962TIP3    H248302   4.583   3.588   1.901  0.7233  0.8536 -0.6532
 8963TIP3   OH248303   1.392   3.310   4.128 -0.0354 -0.0307  0.3886
 8963TIP3    H148304   1.448   3.369   4.077  1.1646 -0.1001  1.5612
 8963TIP3    H248305   1.443   3.229   4.134 -1.4467 -1.0810 -0.7844
 8964TIP3   OH248306   1.664   5.856  14.343 -0.1483  0.5377 -0.0202
 8964TIP3    H148307   1.731   5.921  14.363 -0.4302  0.9457 -0.3540
 8964TIP3    H248308   1.693   5.816  14.261 -0.4574  0.9318 -0.3295
 8965TIP3   OH248309   3.297   2.776  10.785 -0.2097 -0.5468 -0.0347
 8965TIP3    H148310   3.257   2.843  10.730  2.3792  1.2186  0.0734
 8965TIP3    H248311   3.371   2.743  10.734  0.2474 -1.2733  1.0555
 8966TIP3   OH248312   1.513   4.259  16.409  0.1459 -0.2249  0.1471
 8966TIP3    H148313   1.462   4.180  16.390 -0.3257  0.2833 -0.8100
 8966TIP3    H248314   1.486   4.285  16.497  2.8056 -2.9946  1.9537
 8967TIP3   OH248315   2.557   5.911  12.552 -0.1922 -0.0149  0.2459
 8967TIP3    H148316   2.593   5.964  12.481 -0.2443  0.5502  0.6396
 8967TIP3    H248317   2.598   5.946  12.631 -0.4993 -0.3267  0.5464
 8968TIP3   OH248318   4.487   6.385  13.596  0.6183  0.0761  0.3516
 8968TIP3    H148319   4.420   6.348  13.540  0.5429 -0.1666  0.5990
 8968TIP3    H248320   4.487   6.330  13.674  1.0611  0.1106  0.3829
 8969TIP3   OH248321   6.804   4.822   1.976 -0.1039  0.2430 -0.2707
 8969TIP3    H148322   6.747   4.776   1.914  0.9201 -0.5620 -0.6494
 8969TIP3    H248323   6.846   4.752   2.026  1.9321  0.6978 -1.2517
 8970TIP3   OH248324   6.426   0.688  13.838  0.0778  0.3127  0.0074
 8970TIP3    H148325   6.355   0.742  13.803  1.6400  0.7804 -2.8583
 8970TIP3    H248326   6.385   0.606  13.863 -1.4218  0.2223 -2.4092
 8971TIP3   OH248327   1.367   5.751  12.129 -0.3663  0.0114  0.1261
 8971TIP3    H148328   1.348   5.745  12.222 -0.0507  0.4654  0.2200
 8971TIP3    H248329   1.290   5.711  12.087 -0.6391  0.0616  0.5685
 8972TIP3   OH248330   0.017   3.888  16.608  0.1954 -0.0565 -0.1559
 8972TIP3    H148331   0.071   3.967  16.619  1.0910 -0.6524 -0.0951
 8972TIP3    H248332   0.008   3.878  16.514 -2.3257  1.6654 -0.1849
 8973TIP3   OH248333   6.443   0.512  11.486 -0.2858  0.2969 -1.1484
 8973TIP3    H148334   6.473   0.599  11.514 -0.2150 -0.0027 -0.2783
 8973TIP3    H248335   6.482   0.500  11.399 -0.0213  0.9938 -1.1320
 8974TIP3   OH248336   3.747   6.135  11.916 -0.5659  0.0539  0.2289
 8974TIP3    H148337   3.737   6.143  12.011  0.3456 -1.0056  0.4259
 8974TIP3    H248338   3.833   6.096  11.904 -0.7458  0.0177 -1.0344
 8975TIP3   OH248339   1.129   2.279  13.536  0.3897  0.1754 -0.1020
 8975TIP3    H148340   1.105   2.187  13.548  0.6235  0.0939 -0.2336
 8975TIP3    H248341   1.165   2.305  13.621 -0.0698  0.2682  0.0623
 8976TIP3   OH248342   1.047   0.709   1.476  0.1849 -0.4685  0.3175
 8976TIP3    H148343   1.132   0.680   1.443  0.3381  1.2086 -0.9034
 8976TIP3    H248344   1.046   0.681   1.568  1.2929 -2.0524 -0.1156
 8977TIP3   OH248345   3.413   1.314   0.211  0.2854  0.3713 -0.4120
 8977TIP3    H148346   3.386   1.280   0.126  0.5615 -0.9189  0.0008
 8977TIP3    H248347   3.374   1.254   0.275  0.1072  1.2997  0.3875
 8978TIP3   OH248348   5.436   6.303  10.557  0.4842  0.4669 -0.1250
 8978TIP3    H148349   5.457   6.396  10.551  0.5426  0.4729  0.1512
 8978TIP3    H248350   5.518   6.258  10.535  0.0817  0.4636 -1.6839
 8979TIP3   OH248351   6.810   4.745  11.100 -0.0259 -0.6575  0.1776
 8979TIP3    H148352   6.840   4.654  11.102  0.4554 -0.5347 -0.8687
 8979TIP3    H248353   6.817   4.775  11.191 -1.3849 -2.0358  0.7986
 8980TIP3   OH248354   2.725   1.612  11.191  0.0522  0.3877  0.2759
 8980TIP3    H148355   2.682   1.673  11.131  1.9859  1.1009 -0.4630
 8980TIP3    H248356   2.713   1.526  11.150 -2.1287  0.2994  0.9926
 8981TIP3   OH248357   1.070   1.630  15.228 -0.5938  0.2491  0.5116
 8981TIP3    H148358   1.013   1.582  15.167 -0.6406 -0.8702  1.3909
 8981TIP3    H248359   1.141   1.569  15.246  0.3801  1.2611  0.1969
 8982TIP3   OH248360   3.130   4.266   0.809 -0.3078 -1.3087 -0.5485
 8982TIP3    H148361   3.138   4.199   0.876 -0.7905 -1.7585 -0.9228
 8982TIP3    H248362   3.125   4.217   0.727 -1.2762 -0.8592 -0.7790
 8983TIP3   OH248363   5.798   5.162   3.681 -0.0667  0.3565 -0.2595
 8983TIP3    H148364   5.735   5.097   3.708 -0.6747  0.4947 -1.2783
 8983TIP3    H248365   5.873   5.111   3.649 -1.0084  0.0832 -2.1709
 8984TIP3   OH248366   0.061   3.605   4.609 -0.0227 -0.1269  0.2240
 8984TIP3    H148367   0.114   3.665   4.662  1.4036 -1.6153  0.5287
 8984TIP3    H248368   0.018   3.662   4.545  2.1838  1.0909 -0.2508
 8985TIP3   OH248369   4.341   5.633   3.288 -0.2943  0.1328  0.7594
 8985TIP3    H148370   4.340   5.563   3.223 -2.0596 -0.4302  1.3199
 8985TIP3    H248371   4.399   5.699   3.252 -0.4434 -0.6010 -0.9008
 8986TIP3   OH248372   2.642   4.387   5.537  0.0799 -0.2201  0.0460
 8986TIP3    H148373   2.578   4.458   5.541 -0.3087 -0.5818  0.3013
 8986TIP3    H248374   2.615   4.327   5.606  0.4012 -0.6212 -0.1774
 8987TIP3   OH248375   5.559   2.934   5.600 -0.3594  0.2149 -0.0479
 8987TIP3    H148376   5.477   2.981   5.582 -0.1414  1.4764  1.9462
 8987TIP3    H248377   5.550   2.852   5.551 -1.6449  1.4244 -2.0156
 8988TIP3   OH248378   1.078   5.584  13.853  0.3675 -0.5222  0.1536
 8988TIP3    H148379   1.096   5.518  13.786  1.0742  0.7771 -0.9976
 8988TIP3    H248380   1.120   5.550  13.932  0.6073 -1.5100 -0.3825
 8989TIP3   OH248381   4.522   2.396  12.264 -0.0759  0.3472  0.3807
 8989TIP3    H148382   4.547   2.354  12.346  0.4809  0.8489  0.4756
 8989TIP3    H248383   4.579   2.473  12.258  1.1665 -0.6600 -1.3655
 8990TIP3   OH248384   4.769   2.026   1.399  0.1970  0.1804 -0.0277
 8990TIP3    H148385   4.824   2.096   1.435 -0.5467 -0.5136  2.6406
 8990TIP3    H248386   4.680   2.053   1.418 -0.0911 -1.9755  2.2770
 8991TIP3   OH248387   2.027   5.910   5.355 -1.0136 -0.0016  0.1943
 8991TIP3    H148388   2.100   5.958   5.395 -0.0586  0.4349 -1.9366
 8991TIP3    H248389   2.048   5.818   5.370 -0.4305  0.1406  0.2661
 8992TIP3   OH248390   4.900   0.785  10.602 -0.3256 -0.4083  0.0285
 8992TIP3    H148391   4.846   0.712  10.633 -1.1702  0.0755 -0.2850
 8992TIP3    H248392   4.989   0.750  10.603 -0.6785 -1.3409  0.2059
 8993TIP3   OH248393   1.963   3.774  11.464  0.2926 -0.1414 -0.1386
 8993TIP3    H148394   1.871   3.789  11.487  0.5689  0.2879  0.7082
 8993TIP3    H248395   1.984   3.844  11.402 -0.2533 -0.8875 -1.1944
 8994TIP3   OH248396   1.027   6.342   0.788  0.0773 -0.3720  0.0252
 8994TIP3    H148397   0.976   6.423   0.788  1.5664  0.6536  1.8520
 8994TIP3    H248398   0.962   6.272   0.775 -1.7838  0.8806  1.8988
 8995TIP3   OH248399   5.371   4.665   0.976 -0.6967  0.1831 -0.3185
 8995TIP3    H148400   5.382   4.705   0.890 -1.5263 -0.5423 -0.7879
 8995TIP3    H248401   5.337   4.736   1.031 -1.5622  0.2993 -0.9749
 8996TIP3   OH248402   0.864   5.266   4.962 -0.0110 -0.1569 -0.3805
 8996TIP3    H148403   0.918   5.329   5.011 -1.2729  1.6327 -1.1794
 8996TIP3    H248404   0.927   5.204   4.925  1.2223  0.2239  0.9813
 8997TIP3   OH248405   2.377   4.596   2.872 -0.6911 -0.5735 -0.1444
 8997TIP3    H148406   2.338   4.657   2.934  0.3066 -0.8777  0.8157
 8997TIP3    H248407   2.312   4.588   2.802 -1.6375  0.1383  0.6222
 8998TIP3   OH248408   1.945   6.510   0.771 -0.3726  0.0752  0.3442
 8998TIP3    H148409   1.915   6.504   0.680  2.1986 -2.0050 -0.5028
 8998TIP3    H248410   1.888   6.451   0.819 -0.5806 -0.2789 -0.3161
 8999TIP3   OH248411   2.797   3.908   1.561 -0.0769  0.6717 -0.1121
 8999TIP3    H148412   2.890   3.930   1.564 -0.1085  0.6998  0.7450
 8999TIP3    H248413   2.768   3.913   1.652 -0.4269 -1.4677 -0.0601
 9000TIP3   OH248414   3.989   4.043   2.333  0.2027 -0.3325 -0.2985
 9000TIP3    H148415   4.005   4.132   2.300  0.4665  0.2818  1.3736
 9000TIP3    H248416   4.065   4.025   2.389 -0.8190 -0.7897  0.9924
 9001TIP3   OH248417   2.140   4.092   1.768  0.1613 -0.3830 -0.4894
 9001TIP3    H148418   2.050   4.069   1.791 -0.1128  0.2665 -0.8683
 9001TIP3    H248419   2.131   4.144   1.688  0.7884  0.5788  0.0428
 9002TIP3   OH248420   0.397   1.836  12.241  0.5172  0.1405  0.0485
 9002TIP3    H148421   0.484   1.836  12.282 -0.1211 -0.7150  1.4756
 9002TIP3    H248422   0.392   1.752  12.196 -0.1083 -0.4776  1.2287
 9003TIP3   OH248423   2.097   6.562   3.412 -0.3190 -0.0787  0.7594
 9003TIP3    H148424   2.193   6.557   3.417 -0.3426 -0.9407  0.5844
 9003TIP3    H248425   2.080   6.630   3.347  0.2006 -0.4892  0.1715
 9004TIP3   OH248426   3.677   1.609   5.412 -0.2795  0.1794 -0.0236
 9004TIP3    H148427   3.662   1.689   5.362 -0.1136  0.3645  0.2207
 9004TIP3    H248428   3.636   1.626   5.497 -0.7854 -0.2299 -0.1808
 9005TIP3   OH248429   3.877   2.637   0.994 -0.4708 -0.4235  0.1037
 9005TIP3    H148430   3.958   2.684   1.014 -1.4141  1.7522 -0.8693
 9005TIP3    H248431   3.847   2.604   1.079 -0.1712  1.4729  1.0007
 9006TIP3   OH248432   6.501   3.110  15.467  0.1067  0.3681 -0.4500
 9006TIP3    H148433   6.424   3.136  15.417 -0.2986 -0.3587 -0.2041
 9006TIP3    H248434   6.559   3.187  15.463  0.9245 -0.2665 -3.6218
 9007TIP3   OH248435   0.582   3.963   4.712 -0.0257  0.6149 -0.1690
 9007TIP3    H148436   0.537   3.936   4.792  0.5444 -1.1839 -0.3967
 9007TIP3    H248437   0.522   3.939   4.642  0.7548 -0.7479 -0.4103
 9008TIP3   OH248438   0.601   5.550   0.949 -0.0469  0.7630 -0.4426
 9008TIP3    H148439   0.637   5.618   0.892 -0.7407 -0.3916 -2.3455
 9008TIP3    H248440   0.516   5.530   0.910  0.6359 -2.0180 -0.6799
 9009TIP3   OH248441   0.797   3.029  10.981  0.0369  0.5883  0.1018
 9009TIP3    H148442   0.806   3.118  10.948  0.5045  0.2283 -0.7828
 9009TIP3    H248443   0.769   2.978  10.905 -0.7180  0.0656  0.7164
 9010TIP3   OH248444   1.873   2.258   4.273  0.1854 -0.0216  0.1772
 9010TIP3    H148445   1.855   2.165   4.275  0.0346  0.0194  1.8772
 9010TIP3    H248446   1.788   2.300   4.285  0.4662  0.2743  1.3151
 9011TIP3   OH248447   5.322   4.857  15.775 -0.0930 -0.4538 -0.3522
 9011TIP3    H148448   5.318   4.938  15.724 -0.5727 -1.1650 -1.4865
 9011TIP3    H248449   5.236   4.817  15.762  0.6559 -1.8905 -1.0961
 9012TIP3   OH248450   6.652   5.794  11.713 -1.1398 -0.0604  0.2901
 9012TIP3    H148451   6.595   5.832  11.780  1.2301  2.8540  0.8981
 9012TIP3    H248452   6.725   5.757  11.762 -0.4233  0.1318 -0.6036
 9013TIP3   OH248453   4.064   6.733  15.013  0.6233  0.5142  0.2790
 9013TIP3    H148454   4.137   6.671  15.006 -0.2085 -0.4212 -0.3808
 9013TIP3    H248455   3.991   6.688  14.970 -0.3543  1.4122  0.9808
 9014TIP3   OH248456   0.116   5.402   3.931 -0.2838  0.2051 -0.4327
 9014TIP3    H148457   0.163   5.448   3.862 -0.3916  1.5804  0.3826
 9014TIP3    H248458   0.175   5.330   3.955 -0.2614 -0.3145 -1.9463
 9015TIP3   OH248459   1.917   0.884  17.026 -0.3112 -0.3148 -0.0686
 9015TIP3    H148460   1.955   0.829  17.094 -2.0474 -0.7535  0.6065
 9015TIP3    H248461   1.991   0.907  16.969  1.4800  1.1965  2.6494
 9016TIP3   OH248462   5.805   4.021  14.870 -0.3065 -0.2975 -0.7424
 9016TIP3    H148463   5.845   3.995  14.953 -2.0781  0.5910  0.4506
 9016TIP3    H248464   5.729   3.964  14.860 -0.8913  0.5092 -1.0492
 9017TIP3   OH248465   3.430   4.857  14.669  0.6884 -0.1073 -0.1660
 9017TIP3    H148466   3.463   4.783  14.617  1.8036 -0.8804  1.5417
 9017TIP3    H248467   3.462   4.934  14.622  1.4258 -0.7603 -0.7901
 9018TIP3   OH248468   0.126   6.507  16.544  0.1016  0.4178  0.6672
 9018TIP3    H148469   0.212   6.476  16.518  0.0989  1.5234 -0.7826
 9018TIP3    H248470   0.066   6.469  16.480 -0.1249  1.8460  0.0011
 9019TIP3   OH248471   4.273   2.272  16.396  0.0705  0.4186  0.5991
 9019TIP3    H148472   4.249   2.273  16.303  0.5918 -1.8141  0.3785
 9019TIP3    H248473   4.209   2.212  16.436  2.2902 -1.9313  0.8606
 9020TIP3   OH248474   3.541   3.544   4.325 -0.2047 -0.0464  0.1468
 9020TIP3    H148475   3.551   3.637   4.346 -2.0546  0.1461  0.3151
 9020TIP3    H248476   3.628   3.507   4.339  0.6016  1.6757 -0.0538
 9021TIP3   OH248477   3.084   2.595   1.169  0.1782  0.1200  0.3228
 9021TIP3    H148478   3.022   2.630   1.105  0.3758  0.4692  0.3235
 9021TIP3    H248479   3.066   2.501   1.170 -1.0915  0.3528  1.1288
 9022TIP3   OH248480   0.069   6.579   3.237  0.2707 -0.3255  0.2040
 9022TIP3    H148481   0.088   6.498   3.190  1.1921 -0.6205  1.0499
 9022TIP3    H248482   0.131   6.580   3.309 -0.0004  0.9443  0.4448
 9023TIP3   OH248483   3.615   6.610  16.777 -0.1910 -1.0335 -0.7769
 9023TIP3    H148484   3.574   6.695  16.796  0.0095 -0.6334 -2.0139
 9023TIP3    H248485   3.546   6.546  16.794 -0.8300 -0.4992 -1.2716
 9024TIP3   OH248486   5.004   6.805  12.818 -0.6300  0.1036  0.2767
 9024TIP3    H148487   5.082   6.859  12.829 -0.1728 -0.5509  0.3230
 9024TIP3    H248488   4.964   6.836  12.737  0.0993 -0.0675 -0.1523
 9025TIP3   OH248489   6.512   5.081   4.501  0.3239 -0.0084  0.5193
 9025TIP3    H148490   6.484   5.165   4.537  0.5717 -0.3917  1.6481
 9025TIP3    H248491   6.597   5.100   4.461 -0.0760  0.4794 -0.1234
 9026TIP3   OH248492   1.378   4.933  14.437  0.4590  0.2619  0.3284
 9026TIP3    H148493   1.433   4.950  14.514  0.3776  1.1243  0.1994
 9026TIP3    H248494   1.369   4.838  14.435 -1.5926  0.3278  2.8068
 9027TIP3   OH248495   6.460   5.298   3.255 -0.0854  0.3967  0.6790
 9027TIP3    H148496   6.398   5.275   3.324 -0.4219  2.7327  1.2567
 9027TIP3    H248497   6.411   5.358   3.198  1.2105  1.2110  0.3629
 9028TIP3   OH248498   6.439   1.477  14.356  0.3505  0.5178  0.1263
 9028TIP3    H148499   6.457   1.410  14.423  0.4577  3.2604  3.0665
 9028TIP3    H248500   6.346   1.497  14.365  0.4012  1.0640 -0.4461
 9029TIP3   OH248501   5.881   2.283  11.253 -0.5039 -0.5769 -0.2097
 9029TIP3    H148502   5.839   2.215  11.200 -1.5581 -0.6688  0.6998
 9029TIP3    H248503   5.940   2.235  11.312 -0.3215 -0.5923 -0.4049
 9030TIP3   OH248504   4.103   3.396  16.510 -0.0851 -0.0005 -0.0274
 9030TIP3    H148505   4.180   3.339  16.519 -0.2211 -0.0419  1.0658
 9030TIP3    H248506   4.078   3.415  16.600 -0.2276  1.5520 -0.3737
 9031TIP3   OH248507   4.019   2.010  10.903 -0.1210 -0.2743 -0.1563
 9031TIP3    H148508   3.981   2.047  10.823 -0.9954  0.3507  0.5238
 9031TIP3    H248509   4.113   2.026  10.895 -0.0191 -1.3413 -1.6229
 9032TIP3   OH248510   1.458   1.583   0.863  0.0971 -0.0558  0.2958
 9032TIP3    H148511   1.411   1.579   0.780 -0.9331 -0.5061  0.8907
 9032TIP3    H248512   1.480   1.676   0.873  0.3292 -0.0103 -0.5150
 9033TIP3   OH248513   4.861   0.865  11.763  0.1411  0.5601  0.3594
 9033TIP3    H148514   4.879   0.921  11.687 -0.8713  1.4593  0.7683
 9033TIP3    H248515   4.919   0.897  11.831  0.3950  0.3450  0.2468
 9034TIP3   OH248516   1.503   4.763  12.004 -0.1391 -0.2746  0.0134
 9034TIP3    H148517   1.568   4.694  12.020 -0.4067 -0.3853  0.6784
 9034TIP3    H248518   1.532   4.837  12.057  0.1751  0.1585 -0.7411
 9035TIP3   OH248519   1.918   0.318  10.559 -0.1496 -0.1569 -0.1893
 9035TIP3    H148520   1.886   0.408  10.561  0.4170  0.0465  1.9303
 9035TIP3    H248521   1.999   0.322  10.509 -0.1235  0.5180 -0.0972
 9036TIP3   OH248522   0.351   4.037   3.633 -0.3732 -0.4851  0.6755
 9036TIP3    H148523   0.256   4.037   3.628 -0.6758 -2.1791  3.8681
 9036TIP3    H248524   0.371   4.058   3.724  2.3170 -0.3319  0.1491
 9037TIP3   OH248525   4.590   1.120   3.383  0.0148 -0.3047 -0.1064
 9037TIP3    H148526   4.562   1.167   3.462  0.3464 -0.9175  0.3860
 9037TIP3    H248527   4.508   1.088   3.345 -0.1513  0.0183 -0.0291
 9038TIP3   OH248528   3.943   0.632  13.021 -0.0617 -0.7405  0.1829
 9038TIP3    H148529   3.972   0.572  12.952  0.9707  0.5357 -0.5161
 9038TIP3    H248530   3.972   0.590  13.102  2.3012 -0.3470 -0.3864
 9039TIP3   OH248531   3.870   3.300  12.259  0.0623  0.1321 -0.1847
 9039TIP3    H148532   3.867   3.385  12.304 -0.2600  0.3589 -0.6290
 9039TIP3    H248533   3.785   3.293  12.216 -0.7370 -1.3302  1.5018
 9040TIP3   OH248534   3.494   2.953  14.693 -0.1570 -0.4448 -0.5815
 9040TIP3    H148535   3.488   3.045  14.668  2.4007 -0.0755 -0.1007
 9040TIP3    H248536   3.427   2.942  14.760 -1.2421  0.7555 -1.4192
 9041TIP3   OH248537   6.105   4.810   6.352  0.5379  0.5132  0.3464
 9041TIP3    H148538   6.045   4.738   6.332 -0.5915  0.6394  2.8734
 9041TIP3    H248539   6.049   4.880   6.384  1.6944  2.3018 -1.3115
 9042TIP3   OH248540   6.591   2.355   2.016 -0.1745 -0.1445  0.0751
 9042TIP3    H148541   6.519   2.320   1.963 -0.9747 -1.2734  1.7887
 9042TIP3    H248542   6.585   2.450   2.004  0.0789 -0.3579 -2.2695
 9043TIP3   OH248543   4.090   5.805   5.775  0.2691 -0.2447  0.6173
 9043TIP3    H148544   4.045   5.887   5.799  2.3660  1.0880  0.2390
 9043TIP3    H248545   4.153   5.792   5.845  1.6228 -0.1735 -0.5554
 9044TIP3   OH248546   0.473   4.468   4.763 -0.1133  0.7071 -0.7080
 9044TIP3    H148547   0.464   4.392   4.705  3.7305  0.2031 -0.9514
 9044TIP3    H248548   0.544   4.443   4.823 -0.3023  3.2596  0.7128
 9045TIP3   OH248549   6.816   3.199  13.869 -0.3856 -0.0798  0.2009
 9045TIP3    H148550   6.848   3.243  13.948 -0.1759 -0.9068  0.5893
 9045TIP3    H248551   6.871   3.120  13.862 -2.0045 -1.2967  0.6153
 9046TIP3   OH248552   2.868   1.263  11.238 -0.2211  0.4782 -0.2499
 9046TIP3    H148553   2.802   1.244  11.304 -0.5798  1.0658 -0.4285
 9046TIP3    H248554   2.827   1.239  11.155 -0.0888  0.5283 -0.3306
 9047TIP3   OH248555   2.974   0.599  15.461  0.2040  0.5052  0.2986
 9047TIP3    H148556   2.943   0.520  15.417  0.2467  1.4338 -1.5180
 9047TIP3    H248557   3.027   0.567  15.534  0.3823 -1.1323 -0.5013
 9048TIP3   OH248558   0.271   3.100  14.867  0.3638  0.5806  0.0415
 9048TIP3    H148559   0.217   3.025  14.890  0.5224  0.4627  0.0291
 9048TIP3    H248560   0.287   3.145  14.950  2.3039 -0.7486  0.4466
 9049TIP3   OH248561   1.584   0.409   5.814 -0.4297 -0.5713  0.0787
 9049TIP3    H148562   1.653   0.439   5.754  0.4218 -2.3924  0.0907
 9049TIP3    H248563   1.624   0.416   5.901 -0.0868 -1.9576  0.0592
 9050TIP3   OH248564   1.318   6.727  12.037 -0.3711  0.0349  0.0629
 9050TIP3    H148565   1.317   6.814  12.077  1.3451 -0.0660  0.3804
 9050TIP3    H248566   1.366   6.738  11.956 -0.6126 -0.5189 -0.1623
 9051TIP3   OH248567   3.257   2.567   1.610 -0.3707  0.6065  0.0240
 9051TIP3    H148568   3.168   2.576   1.577  0.2653 -1.5746 -2.6614
 9051TIP3    H248569   3.309   2.544   1.533  2.0521 -0.7406  1.9161
 9052TIP3   OH248570   6.171   6.058   6.328  0.0772  1.1415  0.1489
 9052TIP3    H148571   6.204   6.142   6.296  2.5146  0.4655  0.6775
 9052TIP3    H248572   6.231   5.993   6.291 -1.5145 -0.3536  0.0722
 9053TIP3   OH248573   5.520   5.593  12.591 -0.5047 -0.0973  0.3549
 9053TIP3    H148574   5.456   5.651  12.548 -1.4102 -1.5278 -0.3148
 9053TIP3    H248575   5.468   5.544  12.655 -0.3785 -2.0501 -0.9343
 9054TIP3   OH248576   6.081   2.042  14.268  0.3454 -0.3752  0.0998
 9054TIP3    H148577   6.021   2.083  14.206  1.1574 -0.3780 -0.6888
 9054TIP3    H248578   6.029   1.970  14.307 -0.0529 -0.5923 -0.8143
 9055TIP3   OH248579   5.349   6.716  13.827 -0.7675 -0.2505  0.0665
 9055TIP3    H148580   5.401   6.752  13.898 -0.5178  0.9776 -0.7115
 9055TIP3    H248581   5.411   6.707  13.754 -1.2119 -0.6402 -0.2711
 9056TIP3   OH248582   0.792   1.362  15.211  0.3842  0.1070  0.0316
 9056TIP3    H148583   0.802   1.383  15.304  0.0147  0.0598  0.0848
 9056TIP3    H248584   0.819   1.442  15.166  3.4770 -0.8128  0.0346
 9057TIP3   OH248585   5.568   3.028   4.393  0.0335  0.2692 -0.0357
 9057TIP3    H148586   5.524   2.992   4.316  0.6787  1.3525 -0.9344
 9057TIP3    H248587   5.642   3.077   4.358  1.0744 -0.2424  1.3632
 9058TIP3   OH248588   1.003   4.081   1.331  0.4177 -0.0595 -0.0536
 9058TIP3    H148589   0.946   4.013   1.296  1.2242 -0.7238 -0.1098
 9058TIP3    H248590   1.030   4.048   1.417  2.2872 -0.6932 -0.8484
 9059TIP3   OH248591   5.785   3.684   5.078 -0.3101 -0.1135  0.3481
 9059TIP3    H148592   5.757   3.598   5.108 -0.2049  0.6936  3.1533
 9059TIP3    H248593   5.866   3.668   5.030 -2.0277 -1.8176 -2.2252
 9060TIP3   OH248594   5.642   4.663   0.376  0.0768 -0.4065  0.2453
 9060TIP3    H148595   5.637   4.658   0.281  0.8272  0.5842  0.1372
 9060TIP3    H248596   5.734   4.651   0.396 -0.0320 -0.3001  0.8309
 9061TIP3   OH248597   4.325   5.656  11.857  0.3262 -0.0515 -0.1874
 9061TIP3    H148598   4.333   5.735  11.910  1.9611 -0.0508 -0.4008
 9061TIP3    H248599   4.347   5.684  11.768 -1.4624 -0.2587 -0.7495
 9062TIP3   OH248600   6.520   0.152   2.346  0.1978  0.6191  0.1101
 9062TIP3    H148601   6.609   0.123   2.366  0.5645  1.1480 -0.7205
 9062TIP3    H248602   6.488   0.190   2.428  0.9072  0.8636  0.2784
 9063TIP3   OH248603   4.491   0.805  11.682 -0.2658 -0.0516  0.0054
 9063TIP3    H148604   4.572   0.776  11.726 -1.3144 -1.7314  0.9568
 9063TIP3    H248605   4.482   0.745  11.608  0.9493  2.1247 -2.0245
 9064TIP3   OH248606   5.555   3.068   3.931 -0.1968 -0.1794 -0.3974
 9064TIP3    H148607   5.623   3.056   3.865 -1.2625  0.0157 -1.5571
 9064TIP3    H248608   5.542   3.163   3.936 -0.0972 -0.1893  0.1285
 9065TIP3   OH248609   6.594   6.787  16.217  0.2728 -0.6964 -0.0014
 9065TIP3    H148610   6.665   6.810  16.157  1.0078  0.4792  1.2456
 9065TIP3    H248611   6.529   6.856  16.205  0.6738 -0.1341  0.8998
 9066TIP3   OH248612   2.943   4.198   2.212  0.0792  0.8567  0.2125
 9066TIP3    H148613   2.853   4.229   2.211 -0.3205 -0.2718  0.2133
 9066TIP3    H248614   2.963   4.184   2.304 -0.0759  0.1971  0.1514
 9067TIP3   OH248615   6.225   3.758   2.350  0.3880 -0.0664 -0.3304
 9067TIP3    H148616   6.296   3.819   2.330  0.3891 -0.5566 -2.0725
 9067TIP3    H248617   6.269   3.674   2.364  0.2319 -0.1762 -0.4821
 9068TIP3   OH248618   1.109   6.327  13.839 -0.2698  0.0338 -0.5494
 9068TIP3    H148619   1.018   6.356  13.836 -0.4351 -0.4417 -0.1991
 9068TIP3    H248620   1.105   6.233  13.821  0.1336 -0.0206 -0.3634
 9069TIP3   OH248621   1.700   4.738   4.774  0.2490  0.2625 -0.8730
 9069TIP3    H148622   1.789   4.722   4.805  0.0476 -1.1962 -0.9514
 9069TIP3    H248623   1.699   4.701   4.685 -1.3948 -3.3398  0.4519
 9070TIP3   OH248624   4.928   3.706   2.039  0.2889 -0.1451  0.4302
 9070TIP3    H148625   4.876   3.786   2.037 -1.1292 -1.0413 -0.7618
 9070TIP3    H248626   4.866   3.636   2.017  1.3810 -1.6444  1.8077
 9071TIP3   OH248627   2.614   4.167  10.974 -0.1473 -0.2807 -0.1707
 9071TIP3    H148628   2.578   4.202  10.892 -2.6311 -2.3705 -0.1025
 9071TIP3    H248629   2.674   4.098  10.947  0.5700  0.3554 -0.2289
 9072TIP3   OH248630   4.532   1.673  16.010  0.1213 -0.5432 -0.0680
 9072TIP3    H148631   4.573   1.682  16.096 -0.3079  1.5819 -0.0330
 9072TIP3    H248632   4.586   1.727  15.952 -0.2269 -1.0759 -0.9064
 9073TIP3   OH248633   6.118   5.968  11.876  0.6587  0.3645 -0.4650
 9073TIP3    H148634   6.171   5.908  11.928  2.8123 -0.0985 -2.9493
 9073TIP3    H248635   6.172   6.046  11.867 -1.0004  1.6825  0.5254
 9074TIP3   OH248636   3.808   6.569  15.790 -0.2576 -0.2008 -0.6727
 9074TIP3    H148637   3.891   6.581  15.836  0.9710  0.3661 -2.8816
 9074TIP3    H248638   3.761   6.505  15.842  2.7688 -2.7385 -0.7787
 9075TIP3   OH248639   3.671   1.004   3.110  0.2886  0.0797 -0.2815
 9075TIP3    H148640   3.637   1.060   3.180  0.7759 -0.8550  0.7375
 9075TIP3    H248641   3.761   1.036   3.096  0.1860  0.2766 -0.5058
 9076TIP3   OH248642   0.699   1.897   1.425 -0.0990 -0.4260 -0.0252
 9076TIP3    H148643   0.739   1.813   1.404 -0.8251 -0.9800  0.7147
 9076TIP3    H248644   0.685   1.940   1.340 -0.6805 -1.5156 -0.4990
 9077TIP3   OH248645   5.407   6.586   0.208 -0.5296 -0.0697  0.4539
 9077TIP3    H148646   5.376   6.506   0.251 -0.8992 -0.0004  0.3188
 9077TIP3    H248647   5.403   6.566   0.114  0.3192 -0.2356  0.4428
 9078TIP3   OH248648   0.741   2.331  14.901 -0.6413 -0.3982 -0.3873
 9078TIP3    H148649   0.804   2.396  14.870 -0.2032 -0.5580  0.1443
 9078TIP3    H248650   0.661   2.350  14.853 -0.4659  0.4192 -0.3709
 9079TIP3   OH248651   2.579   2.387   1.837 -0.0706 -0.4707  0.5012
 9079TIP3    H148652   2.583   2.362   1.929 -1.7319  1.2412  1.0935
 9079TIP3    H248653   2.521   2.463   1.835  0.5788  0.0465 -1.8610
 9080TIP3   OH248654   2.605   4.041  15.422 -1.4529  0.2109 -0.4694
 9080TIP3    H148655   2.698   4.036  15.445 -1.3551  0.4696 -0.8021
 9080TIP3    H248656   2.569   3.957  15.452 -0.6315 -0.9233 -2.4230
 9081TIP3   OH248657   5.515   2.783  13.567  0.2501 -0.0612 -0.4096
 9081TIP3    H148658   5.576   2.733  13.620  3.0706 -0.2040 -3.4335
 9081TIP3    H248659   5.494   2.861  13.619  1.3635 -1.0178  1.5543
 9082TIP3   OH248660   5.468   6.776  13.211  0.4812 -0.7267  0.2282
 9082TIP3    H148661   5.437   6.761  13.300  0.5965 -0.6423  0.2831
 9082TIP3    H248662   5.412   6.722  13.156 -0.4310  0.1837  0.2288
 9083TIP3   OH248663   4.277   5.171   2.528 -0.0455 -0.5489  0.3879
 9083TIP3    H148664   4.363   5.184   2.568 -0.2514  0.4792  0.5304
 9083TIP3    H248665   4.240   5.095   2.573  1.3736 -1.9299 -0.6960
 9084TIP3   OH248666   3.647   6.015   1.125  0.8131 -0.1200 -0.0522
 9084TIP3    H148667   3.662   5.930   1.084  1.0835 -0.3196  0.4529
 9084TIP3    H248668   3.612   5.994   1.211 -0.3266  0.3042 -0.3901
 9085TIP3   OH248669   5.209   1.589   1.586  0.9216  0.3794  0.4102
 9085TIP3    H148670   5.212   1.661   1.650  2.1374  0.9488 -0.2608
 9085TIP3    H248671   5.282   1.606   1.527 -0.0967 -0.2002 -1.0745
 9086TIP3   OH248672   0.694   1.440   3.094 -0.2320 -0.4227 -0.4367
 9086TIP3    H148673   0.764   1.392   3.137  0.2353  2.2826  2.1549
 9086TIP3    H248674   0.626   1.449   3.160  0.8263  4.5767  0.3712
 9087TIP3   OH248675   2.238   5.979   4.438  0.1745  0.3843  0.0670
 9087TIP3    H148676   2.267   6.046   4.376  0.6110  0.7566  0.6654
 9087TIP3    H248677   2.191   6.027   4.506 -1.0598 -0.1147 -0.3982
 9088TIP3   OH248678   6.527   2.623  15.676 -0.0476 -0.1215 -0.0090
 9088TIP3    H148679   6.501   2.654  15.589 -0.7763 -0.3528  0.1222
 9088TIP3    H248680   6.585   2.692  15.709  1.0072 -0.4631 -1.0455
 9089TIP3   OH248681   2.069   0.062  10.843 -0.0195  0.1419 -0.0601
 9089TIP3    H148682   2.070   0.143  10.893 -1.2692 -0.6322  1.2896
 9089TIP3    H248683   2.162   0.043  10.826  0.4498  0.4076  2.0283
 9090TIP3   OH248684   5.462   5.491  15.422  0.5764 -0.4572  0.6625
 9090TIP3    H148685   5.454   5.499  15.327  1.2714 -0.1507  0.6210
 9090TIP3    H248686   5.419   5.569  15.457  0.8532 -0.2623  0.5712
 9091TIP3   OH248687   0.239   1.833  12.836 -0.2629 -0.5372  0.1359
 9091TIP3    H148688   0.279   1.856  12.920  0.9519  0.8421 -0.7630
 9091TIP3    H248689   0.169   1.898  12.825 -1.8965 -2.0649  1.0427
 9092TIP3   OH248690   4.438   3.224  16.186  0.4993 -0.5451  0.6735
 9092TIP3    H148691   4.479   3.171  16.117  1.7073 -2.3589  2.6461
 9092TIP3    H248692   4.511   3.269  16.228 -0.5646  4.0680 -1.7367
 9093TIP3   OH248693   3.498   6.019  12.651  0.0148 -0.1534 -0.0512
 9093TIP3    H148694   3.579   6.053  12.613  0.1258  1.4022  1.4743
 9093TIP3    H248695   3.515   6.013  12.744 -1.0948 -1.4576  0.1153
 9094TIP3   OH248696   5.427   6.328  14.144 -0.0033 -0.4208  0.8366
 9094TIP3    H148697   5.509   6.357  14.184  0.6011 -0.9104 -0.0232
 9094TIP3    H248698   5.444   6.238  14.116  0.1056  0.3416 -1.8087
 9095TIP3   OH248699   2.780   4.812  13.717 -0.4116 -0.6008 -0.8474
 9095TIP3    H148700   2.843   4.816  13.788 -1.3309 -0.0741 -0.0448
 9095TIP3    H248701   2.737   4.727  13.726  0.5829 -1.2268 -1.7673
 9096TIP3   OH248702   2.209   5.253  16.880 -0.2190  0.3560  0.2271
 9096TIP3    H148703   2.219   5.309  16.803  0.9726 -2.4853 -1.8698
 9096TIP3    H248704   2.131   5.201  16.861 -1.0259  0.8841  1.9046
 9097TIP3   OH248705   4.396   3.551   5.194 -0.0630  0.2605 -0.1960
 9097TIP3    H148706   4.375   3.593   5.278 -0.0054 -1.5304  0.7663
 9097TIP3    H248707   4.474   3.498   5.213 -1.1212 -1.6067 -0.8588
 9098TIP3   OH248708   5.041   5.100   5.524 -0.0691 -0.2009  0.0699
 9098TIP3    H148709   5.004   5.063   5.604  0.6441 -2.3747 -0.5347
 9098TIP3    H248710   5.136   5.093   5.536  0.0497 -0.0105 -0.7167
 9099TIP3   OH248711   0.546   1.858   4.955 -0.0106  0.2799  0.3944
 9099TIP3    H148712   0.573   1.921   4.889  0.3123 -0.1227  0.1371
 9099TIP3    H248713   0.484   1.801   4.909 -0.6279  0.6597  0.7390
 9100TIP3   OH248714   4.558   5.421  17.077  0.4742 -0.1461 -0.2117
 9100TIP3    H148715   4.599   5.405  16.992 -0.5053 -0.1066 -0.7103
 9100TIP3    H248716   4.515   5.506  17.067 -0.8472 -0.7798 -0.1749
 9101TIP3   OH248717   1.409   3.128   2.279 -0.4885 -0.3710 -0.0355
 9101TIP3    H148718   1.407   3.112   2.185  0.8197 -2.5700  0.2489
 9101TIP3    H248719   1.496   3.165   2.295 -0.8278  0.3086  0.2903
 9102TIP3   OH248720   2.046   5.694   2.278 -0.2518 -0.7916  0.6053
 9102TIP3    H148721   1.959   5.691   2.237  0.3960  1.7977 -1.2690
 9102TIP3    H248722   2.052   5.782   2.315  1.6146 -0.8606  0.5740
 9103TIP3   OH248723   4.098   0.241   3.343 -0.4662 -0.3034  0.0305
 9103TIP3    H148724   4.165   0.244   3.410 -0.7006 -0.0472  0.2542
 9103TIP3    H248725   4.085   0.147   3.326 -1.7749 -0.4801  1.7182
 9104TIP3   OH248726   6.535   1.363   2.558 -0.0151  0.6347 -0.1055
 9104TIP3    H148727   6.570   1.372   2.469 -2.6096 -0.0829 -1.2919
 9104TIP3    H248728   6.488   1.444   2.574  0.0477  0.5680  0.4448
 9105TIP3   OH248729   0.856   2.407   4.504  0.5069  0.3342  0.2090
 9105TIP3    H148730   0.828   2.429   4.416  0.7723  1.8688  0.4729
 9105TIP3    H248731   0.894   2.320   4.497  0.6017  0.4770 -1.2035
 9106TIP3   OH248732   3.603   6.227   0.954 -0.1380 -0.6551 -0.0298
 9106TIP3    H148733   3.697   6.235   0.935  0.0128 -2.1121 -0.0414
 9106TIP3    H248734   3.599   6.165   1.027 -1.1151 -1.3398 -0.6361
 9107TIP3   OH248735   3.357   0.891   0.188  0.2221 -0.0090  0.1551
 9107TIP3    H148736   3.354   0.831   0.114  0.4490 -0.1649  0.2714
 9107TIP3    H248737   3.439   0.869   0.234  0.4232  0.5453  0.0660
 9108TIP3   OH248738   3.465   0.410   1.537  0.1900  0.2106  0.0642
 9108TIP3    H148739   3.442   0.501   1.553  0.2737  0.0362  1.2539
 9108TIP3    H248740   3.393   0.360   1.575  0.7171 -0.2431  0.4850
 9109TIP3   OH248741   1.089   5.892  10.221  0.3137  0.5069  0.0284
 9109TIP3    H148742   1.054   5.978  10.243  1.1566  0.5374  1.3371
 9109TIP3    H248743   1.155   5.909  10.154 -1.7437  0.4963 -2.1343
 9110TIP3   OH248744   0.783   3.211   0.235  0.2369 -0.4577 -0.2550
 9110TIP3    H148745   0.872   3.239   0.214  0.4577  0.3925  1.5780
 9110TIP3    H248746   0.794   3.140   0.297 -0.3814 -1.0032 -0.7523
 9111TIP3   OH248747   1.025   4.838  12.916 -0.0140  0.4379  0.1735
 9111TIP3    H148748   1.046   4.813  13.006  0.3208  0.1649  0.0197
 9111TIP3    H248749   1.011   4.755  12.870 -0.1080  0.5732 -0.0465
 9112TIP3   OH248750   0.755   5.445   2.345 -0.1088  0.0523  0.2860
 9112TIP3    H148751   0.682   5.488   2.390 -1.1350 -1.0085 -0.3204
 9112TIP3    H248752   0.729   5.441   2.253 -0.0344 -1.7586  0.2987
 9113TIP3   OH248753   5.355   0.552   6.395  0.0903  0.9827  0.0845
 9113TIP3    H148754   5.399   0.632   6.423  1.0900 -0.1084  1.8209
 9113TIP3    H248755   5.266   0.580   6.371  0.6743  2.7107 -0.1778
 9114TIP3   OH248756   2.485   0.070  16.291 -0.4506 -0.4874  0.1447
 9114TIP3    H148757   2.465   0.094  16.381 -0.9340 -0.6997  0.0938
 9114TIP3    H248758   2.480  -0.026  16.290 -0.7711 -0.4671 -0.1867
 9115TIP3   OH248759   5.390   2.191   5.945 -0.4960  0.2822  0.3034
 9115TIP3    H148760   5.474   2.162   5.981 -0.3389  0.5904  0.2016
 9115TIP3    H248761   5.412   2.273   5.900 -0.5015 -0.5290 -1.2441
 9116TIP3   OH248762   1.309   6.627   2.199  0.6434  0.4414  0.3523
 9116TIP3    H148763   1.270   6.540   2.208  0.0085  0.7755  0.9864
 9116TIP3    H248764   1.282   6.656   2.111  1.0915 -0.1068  0.0295
 9117TIP3   OH248765   4.263   2.117   5.621 -0.0024  0.5818  0.1215
 9117TIP3    H148766   4.285   2.090   5.710  1.6753  0.9541 -0.1548
 9117TIP3    H248767   4.329   2.075   5.566 -0.8140  0.6386 -0.9260
 9118TIP3   OH248768   0.027   0.279  11.139 -0.1229 -0.0877 -0.4451
 9118TIP3    H148769   0.070   0.271  11.054  0.5841 -1.7534  0.0190
 9118TIP3    H248770  -0.059   0.240  11.127 -1.1820  2.2466 -1.0818
 9119TIP3   OH248771   6.573   6.086   0.171 -0.2624  0.4148  0.5845
 9119TIP3    H148772   6.532   6.136   0.242 -0.7286 -1.4198  1.6876
 9119TIP3    H248773   6.617   6.013   0.215 -0.7372 -0.9000 -1.0120
 9120TIP3   OH248774   3.223   4.421   2.761 -0.0781  0.2456  0.6255
 9120TIP3    H148775   3.227   4.360   2.834  0.0196 -0.9907 -0.3796
 9120TIP3    H248776   3.299   4.478   2.773 -1.3123  1.6080  2.7399
 9121TIP3   OH248777   5.908   2.372   1.533  0.2922 -0.6041  0.0059
 9121TIP3    H148778   5.883   2.313   1.461 -1.4764 -0.2229  0.2644
 9121TIP3    H248779   5.977   2.324   1.579  1.0949 -1.0982 -1.6010
 9122TIP3   OH248780   5.758   2.362   5.076 -0.0687  0.1311  0.3817
 9122TIP3    H148781   5.671   2.356   5.036  0.0708 -0.2145  0.1188
 9122TIP3    H248782   5.813   2.400   5.008 -0.2655  1.5158  0.9671
 9123TIP3   OH248783   3.355   2.056   4.979  0.1820 -0.1388  0.7886
 9123TIP3    H148784   3.270   2.098   4.968  0.2224  0.3496  2.1431
 9123TIP3    H248785   3.337   1.977   5.030  0.4749 -0.3022  0.6434
 9124TIP3   OH248786   2.568   4.842  16.046 -0.4903 -0.0177  0.5669
 9124TIP3    H148787   2.559   4.871  16.137 -0.5581 -0.8327  0.8248
 9124TIP3    H248788   2.491   4.788  16.030 -0.6417  0.3763 -0.0836
 9125TIP3   OH248789   0.175   4.815  15.329  0.0912 -0.4529 -0.1103
 9125TIP3    H148790   0.137   4.766  15.402 -0.9637  1.0797  0.4395
 9125TIP3    H248791   0.222   4.887  15.371 -1.4364  1.0853 -0.9007
 9126TIP3   OH248792   4.977   2.136  15.341  0.4402 -0.1178  0.1816
 9126TIP3    H148793   5.070   2.148  15.324  0.6340 -1.1649  0.4314
 9126TIP3    H248794   4.942   2.224  15.347  1.6845  0.3384  1.5126
 9127TIP3   OH248795   3.856   0.377  16.954 -0.0623 -0.3134  0.0502
 9127TIP3    H148796   3.842   0.413  16.866 -0.6525 -0.6325  0.0077
 9127TIP3    H248797   3.874   0.453  17.008  0.2168 -0.1040 -0.3328
 9128TIP3   OH248798   4.992   2.479   5.884 -0.2497 -0.0807  0.8108
 9128TIP3    H148799   5.077   2.477   5.927  1.5001  0.7946 -2.3791
 9128TIP3    H248800   4.954   2.563   5.909  0.6316  0.3219  0.8091
 9129TIP3   OH248801   1.057   1.893  14.212  0.2269  0.1409  0.2185
 9129TIP3    H148802   1.150   1.907  14.196  0.2846 -0.6816 -0.2053
 9129TIP3    H248803   1.017   1.895  14.125  0.0056 -0.6032  0.3018
 9130TIP3   OH248804   3.077   2.063  16.144 -0.0761 -0.0723 -0.5249
 9130TIP3    H148805   3.131   2.128  16.099  0.6463  0.1862  0.6695
 9130TIP3    H248806   3.134   1.986  16.152  0.3208  0.3519  1.1399
 9131TIP3   OH248807   2.074   3.261   4.705  0.0263 -0.0339 -0.0428
 9131TIP3    H148808   1.981   3.276   4.721 -0.4313 -2.3659 -0.0365
 9131TIP3    H248809   2.119   3.310   4.773 -1.0923  2.0818 -0.7357
 9132TIP3   OH248810   0.499   1.604  16.856 -0.9343  0.3759  0.3839
 9132TIP3    H148811   0.453   1.686  16.837 -1.8491 -0.3317 -0.5243
 9132TIP3    H248812   0.592   1.628  16.855 -1.2065  1.4705  0.4815
 9133TIP3   OH248813   2.196   5.853   6.583  0.1536  0.5203 -0.7699
 9133TIP3    H148814   2.191   5.928   6.642  0.5498  0.9725 -1.3056
 9133TIP3    H248815   2.286   5.820   6.594 -0.6563 -1.2826  1.1523
 9134TIP3   OH248816   6.620   5.056   1.270  0.5478 -0.2939 -0.3778
 9134TIP3    H148817   6.697   5.009   1.302  0.2567  0.6921  1.9721
 9134TIP3    H248818   6.626   5.143   1.310 -1.4790  0.0140 -0.6223
 9135TIP3   OH248819   1.561   3.567   5.914 -0.0804 -0.6840  1.3511
 9135TIP3    H148820   1.595   3.484   5.882 -0.6653 -0.4673  0.1224
 9135TIP3    H248821   1.468   3.551   5.929 -0.9646  0.5132 -1.9465
 9136TIP3   OH248822   1.794   5.447  12.144 -0.3011  0.0901 -0.2097
 9136TIP3    H148823   1.808   5.352  12.154 -1.8984 -0.0536  1.1927
 9136TIP3    H248824   1.811   5.482  12.232 -1.3169  0.8657 -0.3122
 9137TIP3   OH248825   5.982   1.189   2.928  0.2497 -0.3344 -0.2362
 9137TIP3    H148826   6.077   1.198   2.924  0.2416 -0.0204  0.2258
 9137TIP3    H248827   5.959   1.143   2.847  0.8648 -1.0221 -0.0319
 9138TIP3   OH248828   3.107   4.219  15.559 -0.1921  0.2668 -0.5250
 9138TIP3    H148829   3.041   4.276  15.521 -1.0228  0.1960  0.7436
 9138TIP3    H248830   3.109   4.142  15.501 -1.8151 -0.0794 -0.1694
 9139TIP3   OH248831   6.809   0.439   5.075 -0.4828 -0.1222 -0.1175
 9139TIP3    H148832   6.741   0.466   5.137 -0.5761  0.7017 -0.5628
 9139TIP3    H248833   6.763   0.432   4.991  0.2825  2.3478 -0.8542
 9140TIP3   OH248834   5.748   3.226   5.539  0.0413 -0.0321 -0.5996
 9140TIP3    H148835   5.747   3.293   5.471 -0.4087  0.1569 -0.4107
 9140TIP3    H248836   5.743   3.143   5.492 -1.4410  0.1247 -0.7622
 9141TIP3   OH248837   2.128   0.845   3.193 -0.0997  0.0238 -0.5308
 9141TIP3    H148838   2.189   0.830   3.120  0.1506 -1.0553 -0.1148
 9141TIP3    H248839   2.042   0.825   3.157 -0.1238  0.7337 -0.8828
 9142TIP3   OH248840   3.164   2.114   5.535  0.6289 -0.0686 -0.0213
 9142TIP3    H148841   3.120   2.090   5.454  1.0015  0.4856 -0.3913
 9142TIP3    H248842   3.093   2.123   5.599  0.2368  0.3835 -0.5061
 9143TIP3   OH248843   3.694   0.575   0.882 -0.0262  0.2317  0.1556
 9143TIP3    H148844   3.665   0.498   0.930 -1.0901 -0.5121 -1.5780
 9143TIP3    H248845   3.789   0.565   0.875  0.0308 -0.1097  1.2429
 9144TIP3   OH248846   5.853   4.313   5.515 -0.7981  0.6009  0.0432
 9144TIP3    H148847   5.759   4.308   5.499 -0.4790  1.0890 -2.4151
 9144TIP3    H248848   5.875   4.231   5.559 -2.1503 -0.1823 -0.6791
 9145TIP3   OH248849   2.125   5.636   5.401 -0.4057 -0.3451 -0.5729
 9145TIP3    H148850   2.110   5.622   5.495  1.1778 -3.0096 -0.6075
 9145TIP3    H248851   2.057   5.585   5.358 -1.3790  1.2015 -0.9243
 9146TIP3   OH248852   6.297   2.785   4.616  0.0548 -0.0454  0.2537
 9146TIP3    H148853   6.367   2.789   4.551  1.1044 -2.0130  1.1953
 9146TIP3    H248854   6.304   2.868   4.663  0.5025  0.5894 -0.8818
 9147TIP3   OH248855   0.761   4.805  13.644 -0.0725  0.2377  0.2347
 9147TIP3    H148856   0.770   4.856  13.564 -0.3071  0.0910  0.1127
 9147TIP3    H248857   0.675   4.764  13.636 -1.1210  2.0178  1.5877
 9148TIP3   OH248858   4.141   6.080  12.929 -0.2795 -0.1805 -0.3848
 9148TIP3    H148859   4.192   6.068  12.849 -1.6613  0.0904 -1.3262
 9148TIP3    H248860   4.189   6.148  12.978 -0.3703  0.9482 -1.8126
 9149TIP3   OH248861   4.275   4.180  13.638  0.5877  0.0170 -0.1045
 9149TIP3    H148862   4.297   4.230  13.716 -2.0959 -0.7752  1.2660
 9149TIP3    H248863   4.227   4.242  13.583 -0.3763 -0.2797  0.3811
 9150TIP3   OH248864   3.722   1.228   4.927 -0.6249  0.1505  0.6917
 9150TIP3    H148865   3.716   1.140   4.889  0.5363  0.0037  0.8359
 9150TIP3    H248866   3.687   1.219   5.015  1.5816 -0.7043  1.5381
 9151TIP3   OH248867   0.887   2.797  11.630 -0.3891 -0.2930  0.8327
 9151TIP3    H148868   0.983   2.803  11.635 -0.2940 -1.8079  1.1428
 9151TIP3    H248869   0.865   2.723  11.686 -1.5018 -1.7933 -1.4700
 9152TIP3   OH248870   3.053   2.692  15.959  0.3319  0.1582 -0.3653
 9152TIP3    H148871   2.992   2.746  16.010  1.4553 -0.2540  1.5381
 9152TIP3    H248872   3.129   2.748  15.944  0.9497 -0.4265  0.4565
 9153TIP3   OH248873   2.407   4.546  10.605  0.1252 -0.5685 -0.3066
 9153TIP3    H148874   2.411   4.465  10.554  3.1872 -0.7235  0.0033
 9153TIP3    H248875   2.462   4.607  10.557 -1.6397  1.1912 -0.1997
 9154TIP3   OH248876   6.707   5.773   5.111  0.0324  0.1515 -0.5013
 9154TIP3    H148877   6.670   5.859   5.128 -0.7623  0.2220 -2.3461
 9154TIP3    H248878   6.642   5.712   5.147 -0.1123  0.3122 -0.4861
 9155TIP3   OH248879   3.995   1.344   5.137  0.5239  0.2243  0.1514
 9155TIP3    H148880   4.015   1.260   5.097 -1.4463 -0.4909  0.5417
 9155TIP3    H248881   3.899   1.345   5.144  0.5749  1.9781  1.2589
 9156TIP3   OH248882   3.605   0.968  15.931 -0.2973 -0.4766 -0.4931
 9156TIP3    H148883   3.518   0.967  15.971 -0.3040 -0.9497 -0.5160
 9156TIP3    H248884   3.666   0.961  16.004 -0.3374 -2.7418 -0.6330
 9157TIP3   OH248885   5.121   6.261  14.214 -0.6460 -0.2009 -0.1003
 9157TIP3    H148886   5.195   6.302  14.170  1.0837 -2.5886  0.3748
 9157TIP3    H248887   5.067   6.225  14.144  1.1647 -2.4557 -0.4407
 9158TIP3   OH248888   1.158   1.113   3.931 -0.2540 -0.2074 -0.1411
 9158TIP3    H148889   1.209   1.142   3.856  0.0261 -0.3417 -0.0019
 9158TIP3    H248890   1.165   1.185   3.994  1.7704 -1.2144  0.8566
 9159TIP3   OH248891   4.209   2.093  15.381  0.1856  0.2195  0.3048
 9159TIP3    H148892   4.165   2.178  15.382  1.0648  0.7088 -0.4697
 9159TIP3    H248893   4.167   2.043  15.451 -0.7429  1.0853  0.3867
 9160TIP3   OH248894   0.904   3.479  15.080 -0.9713  0.1092  0.3279
 9160TIP3    H148895   0.895   3.495  14.986 -1.4583  1.5161  0.5821
 9160TIP3    H248896   0.987   3.520  15.104 -1.3223  0.6322  0.6763
 9161TIP3   OH248897   2.057   4.166  14.950  0.0588 -0.3167 -0.3655
 9161TIP3    H148898   1.981   4.224  14.948  0.7153  0.5633 -0.4667
 9161TIP3    H248899   2.022   4.081  14.973 -0.8562  0.2356  0.3280
 9162TIP3   OH248900   1.310   0.600  14.848  0.0355 -0.3239  0.7294
 9162TIP3    H148901   1.236   0.661  14.841  0.7757  0.4774 -0.3327
 9162TIP3    H248902   1.284   0.524  14.796  1.1932  1.2691 -2.4374
 9163TIP3   OH248903   1.561   3.250  12.277 -0.9006 -0.4630 -0.9226
 9163TIP3    H148904   1.601   3.316  12.335 -2.0901  0.5449 -1.2082
 9163TIP3    H248905   1.494   3.209  12.331 -1.9851  0.4514 -1.5251
 9164TIP3   OH248906   1.946   1.272  12.599 -0.0593  0.2630  0.2760
 9164TIP3    H148907   1.885   1.202  12.575  0.9993 -0.5550 -0.0714
 9164TIP3    H248908   1.971   1.251  12.689  0.2507  0.1983  0.1743
 9165TIP3   OH248909   5.862   1.886  11.963  0.5959  0.1237 -0.1040
 9165TIP3    H148910   5.874   1.858  11.873 -2.4774  2.7478 -1.5590
 9165TIP3    H248911   5.771   1.864  11.983  1.2465 -0.5484  2.4694
 9166TIP3   OH248912   0.711   2.395  14.238  0.8644  0.1608  0.0712
 9166TIP3    H148913   0.688   2.381  14.146  1.2227  3.0275 -0.5239
 9166TIP3    H248914   0.627   2.397  14.284  0.6504 -0.5890 -0.2670
 9167TIP3   OH248915   1.260   1.012   5.692  0.3714 -0.3248  0.7210
 9167TIP3    H148916   1.296   0.924   5.681 -0.0145 -0.2124 -2.0220
 9167TIP3    H248917   1.336   1.070   5.692  0.4969 -0.3034 -2.5806
 9168TIP3   OH248918   3.367   2.146   2.724  0.3458 -0.3476 -0.3841
 9168TIP3    H148919   3.373   2.159   2.819  0.9448 -1.7513 -0.1978
 9168TIP3    H248920   3.278   2.116   2.709  1.1269 -3.2792  0.2253
 9169TIP3   OH248921   2.604   4.399  14.370  0.2548 -0.2472 -0.1443
 9169TIP3    H148922   2.674   4.458  14.342 -0.9164 -0.3640 -3.8564
 9169TIP3    H248923   2.559   4.447  14.440  2.7745  0.6692  0.9370
 9170TIP3   OH248924   4.153   0.154   1.185 -0.1303 -0.2567  0.0874
 9170TIP3    H148925   4.154   0.242   1.223 -0.3642 -0.6503  1.0219
 9170TIP3    H248926   4.092   0.104   1.239 -1.8013 -0.4118 -1.8133
 9171TIP3   OH248927   0.604   1.200   5.604 -0.4895  0.2502  0.3411
 9171TIP3    H148928   0.531   1.261   5.618 -0.7143  0.0831 -0.0676
 9171TIP3    H248929   0.568   1.114   5.625  0.4382  0.4383  3.0404
 9172TIP3   OH248930   5.801   0.730  15.708 -0.2696  0.3750 -0.2080
 9172TIP3    H148931   5.788   0.824  15.719 -1.2222  0.2772 -0.3952
 9172TIP3    H248932   5.893   0.722  15.681 -0.8038  1.5044 -2.7345
 9173TIP3   OH248933   5.158   4.619  12.433  0.0311  0.8990  0.2671
 9173TIP3    H148934   5.108   4.539  12.444 -0.1516  1.0710  0.6890
 9173TIP3    H248935   5.247   4.596  12.459  0.1775  0.5969 -0.4727
 9174TIP3   OH248936   4.800   3.103  14.370 -0.1847  0.6202  0.1011
 9174TIP3    H148937   4.831   3.018  14.338 -2.0988  0.4828 -1.5632
 9174TIP3    H248938   4.798   3.093  14.465 -0.7727 -1.3660 -0.0691
 9175TIP3   OH248939   3.490   5.580   0.439  0.4191 -0.0172 -0.1055
 9175TIP3    H148940   3.543   5.658   0.422  1.3337 -0.1558  1.8587
 9175TIP3    H248941   3.539   5.509   0.398  0.2260  0.2631 -0.8284
 9176TIP3   OH248942   3.505   4.931   0.962  0.0630 -0.0993  0.2221
 9176TIP3    H148943   3.545   4.845   0.977 -0.2684  0.0400  2.1289
 9176TIP3    H248944   3.432   4.913   0.903  1.2947 -0.7586 -1.1676
 9177TIP3   OH248945   0.532   3.126  14.399 -0.4739 -0.4562 -0.3023
 9177TIP3    H148946   0.564   3.200  14.347  0.0784  1.2438  2.2624
 9177TIP3    H248947   0.466   3.164  14.456  1.2093 -1.4381  2.4768
 9178TIP3   OH248948   2.601   4.732   1.033 -0.3302 -0.3934  0.0833
 9178TIP3    H148949   2.562   4.807   0.987 -0.7780 -0.2708  0.6634
 9178TIP3    H248950   2.674   4.706   0.977  1.5942  2.2055  1.1844
 9179TIP3   OH248951   6.198   6.297   5.001  0.0621 -0.3986 -0.0091
 9179TIP3    H148952   6.199   6.393   5.000  1.2202 -0.3823  0.2680
 9179TIP3    H248953   6.191   6.274   5.094 -2.8023 -0.6435 -0.2015
 9180TIP3   OH248954   5.974   1.890   6.642  0.4497  0.3612  0.7005
 9180TIP3    H148955   6.018   1.808   6.620  1.2233  0.7696  0.6883
 9180TIP3    H248956   5.970   1.938   6.559 -0.3911  0.1629  0.6188
 9181TIP3   OH248957   2.850   2.773   3.702  0.3131  0.6840 -0.6929
 9181TIP3    H148958   2.924   2.721   3.668 -0.0786 -0.0356 -0.4767
 9181TIP3    H248959   2.794   2.787   3.626 -0.3746 -0.6015 -0.4496
 9182TIP3   OH248960   6.111   3.773  14.182  0.2489 -0.4667  0.1420
 9182TIP3    H148961   6.190   3.794  14.131  0.2099 -1.2193 -0.2340
 9182TIP3    H248962   6.053   3.847  14.166 -0.1990 -1.1877 -1.8265
 9183TIP3   OH248963   1.247   5.929  11.834  0.4399 -0.4891  0.2690
 9183TIP3    H148964   1.217   5.908  11.923  0.4241 -1.7601 -0.0119
 9183TIP3    H248965   1.250   6.024  11.831 -2.1243 -0.3235  0.7979
 9184TIP3   OH248966   0.182   4.345   5.941  0.0907  0.3032  0.3467
 9184TIP3    H148967   0.117   4.382   6.001  0.3537  0.2159  0.6884
 9184TIP3    H248968   0.149   4.368   5.854 -1.0798 -0.8419  0.4520
 9185TIP3   OH248969   6.751   1.310   0.309  0.1212  0.1162  0.4009
 9185TIP3    H148970   6.677   1.304   0.370 -0.2633 -0.1803 -0.0907
 9185TIP3    H248971   6.828   1.316   0.366 -0.3016  0.8017  0.9184
 9186TIP3   OH248972   1.640   3.518  12.344 -0.8389  0.0192 -0.3626
 9186TIP3    H148973   1.660   3.561  12.428 -1.7394 -2.3699  1.1848
 9186TIP3    H248974   1.560   3.561  12.314  0.3529  2.0089 -0.9051
 9187TIP3   OH248975   0.415   5.642  11.024  0.1964 -0.0835  0.0199
 9187TIP3    H148976   0.421   5.626  11.118 -0.9290 -0.3257  0.0722
 9187TIP3    H248977   0.363   5.722  11.017  1.0909  0.4835 -0.3850
 9188TIP3   OH248978   5.627   6.170   1.220  0.0250  0.0025  0.4045
 9188TIP3    H148979   5.676   6.252   1.213  0.5042 -0.4315 -2.5376
 9188TIP3    H248980   5.537   6.194   1.197  0.3616 -0.3931 -1.4959
 9189TIP3   OH248981   4.322   1.603  13.311  0.1629  0.4576  0.1643
 9189TIP3    H148982   4.259   1.549  13.358  0.9270 -0.3398  0.2928
 9189TIP3    H248983   4.391   1.542  13.285  0.0535  0.9711 -1.4796
 9190TIP3   OH248984   1.386   5.927   3.775 -0.0786 -0.0861  0.4595
 9190TIP3    H148985   1.307   5.935   3.722  1.0814 -0.1341 -1.3826
 9190TIP3    H248986   1.367   5.976   3.855 -1.5808  0.7859 -0.3935
 9191TIP3   OH248987   2.840   4.892   0.460  0.1173 -0.0927 -0.2368
 9191TIP3    H148988   2.820   4.894   0.366  1.0281  0.3741 -0.4344
 9191TIP3    H248989   2.762   4.855   0.501  0.1265 -1.3331 -1.2898
 9192TIP3   OH248990   5.575   5.311   1.388 -0.0072  0.0984  0.4635
 9192TIP3    H148991   5.604   5.303   1.479 -0.2669 -0.2030  0.5224
 9192TIP3    H248992   5.498   5.255   1.383 -0.0096  0.1369  0.0629
 9193TIP3   OH248993   6.640   5.613   4.863  0.2435  0.0837 -0.4401
 9193TIP3    H148994   6.724   5.593   4.905  0.5683  2.3974  0.1430
 9193TIP3    H248995   6.663   5.631   4.772  0.1023 -1.0133 -0.7053
 9194TIP3   OH248996   1.380   0.095  11.395 -0.0129  0.3419 -0.2387
 9194TIP3    H148997   1.429   0.014  11.413 -0.8185 -0.2492 -0.6434
 9194TIP3    H248998   1.432   0.140  11.328 -0.5108 -0.7681 -1.4125
 9195TIP3   OH248999   3.092   3.223   4.713  0.0197  0.3105  0.5354
 9195TIP3    H149000   3.032   3.170   4.660 -0.7801 -0.5288  2.1958
 9195TIP3    H249001   3.110   3.300   4.659  0.4070 -1.1553 -1.5305
 9196TIP3   OH249002   5.012   6.034  12.760 -0.3394 -0.3631  0.2773
 9196TIP3    H149003   4.999   5.980  12.683  1.7305  0.1781 -0.5035
 9196TIP3    H249004   4.989   5.977  12.834 -3.1420 -0.6378 -0.6830
 9197TIP3   OH249005   6.806   1.086  13.668 -0.0741  0.6383  0.1414
 9197TIP3    H149006   6.845   1.030  13.600  0.4757  0.3999  0.6425
 9197TIP3    H249007   6.725   1.042  13.691 -0.3479  0.8097 -0.4778
 9198TIP3   OH249008   0.177   1.276  10.838 -0.3978 -0.3320 -0.3773
 9198TIP3    H149009   0.272   1.284  10.830 -0.3583  1.0165  0.9859
 9198TIP3    H249010   0.142   1.326  10.765 -0.0720 -0.6002 -0.7207
 9199TIP3   OH249011   6.436   0.884  14.942  0.0281 -0.2954 -0.2627
 9199TIP3    H149012   6.359   0.828  14.931  0.0647 -0.4340  0.1635
 9199TIP3    H249013   6.502   0.826  14.979 -0.2426  0.2555  1.1406
 9200TIP3   OH249014   2.035   2.252  17.112 -0.0643 -0.5109 -0.5461
 9200TIP3    H149015   1.991   2.222  17.033 -0.7910 -0.4545 -0.1774
 9200TIP3    H249016   2.068   2.339  17.089 -2.3363  0.5467 -0.1038
 9201TIP3   OH249017   0.276   1.802  11.152 -0.3662  0.2041  0.7632
 9201TIP3    H149018   0.232   1.788  11.068  0.3097 -2.3387  0.7604
 9201TIP3    H249019   0.362   1.837  11.128 -0.1132 -0.6704  0.3582
 9202TIP3   OH249020   4.104   3.808  15.984  0.2914 -0.3897 -0.2610
 9202TIP3    H149021   4.033   3.762  15.941  0.4943  0.5921 -1.7545
 9202TIP3    H249022   4.176   3.806  15.920  1.0877 -0.0616  0.5945
 9203TIP3   OH249023   4.796   6.181   4.665 -0.0162 -0.0526 -0.6134
 9203TIP3    H149024   4.866   6.166   4.601  2.2782 -0.8592  1.8909
 9203TIP3    H249025   4.812   6.270   4.697 -0.8501  0.1754 -0.8175
 9204TIP3   OH249026   5.185   4.776   4.192  0.2983  0.1309  0.4821
 9204TIP3    H149027   5.183   4.864   4.153 -1.8816  0.2327  0.6761
 9204TIP3    H249028   5.213   4.719   4.121  1.4074  0.9338  0.2540
 9205TIP3   OH249029   3.341   3.917  16.480 -1.1738 -0.0408  0.1155
 9205TIP3    H149030   3.260   3.927  16.429 -0.6652  2.0436 -0.3665
 9205TIP3    H249031   3.390   3.997  16.463  0.0241 -0.2742  2.1677
 9206TIP3   OH249032   5.782   0.022   5.427 -0.0652  0.0869  0.2293
 9206TIP3    H149033   5.710   0.061   5.477  0.3418 -1.1797  1.8843
 9206TIP3    H249034   5.740  -0.024   5.354 -0.8256  0.3872  0.4749
 9207TIP3   OH249035   4.717   2.643  14.104  0.0821 -0.3020  0.0021
 9207TIP3    H149036   4.645   2.676  14.158  1.2166  0.5305  1.0668
 9207TIP3    H249037   4.685   2.647  14.014 -1.2107 -0.0093  0.4686
 9208TIP3   OH249038   6.720   4.557   0.673 -0.7263 -0.0105  0.0181
 9208TIP3    H149039   6.649   4.506   0.633 -0.5369  0.6732 -1.2694
 9208TIP3    H249040   6.772   4.587   0.598 -0.3124  1.2896  0.7969
 9209TIP3   OH249041   3.340   4.219  15.982 -0.5466 -0.1754 -0.1605
 9209TIP3    H149042   3.407   4.200  15.917 -1.2082  0.2070 -0.9731
 9209TIP3    H249043   3.273   4.152  15.968 -0.2961 -0.6353  0.7326
 9210TIP3   OH249044   0.128   5.287   6.166 -0.0565  0.2120  0.1062
 9210TIP3    H149045   0.071   5.254   6.236  0.5024  0.0880  0.5159
 9210TIP3    H249046   0.089   5.255   6.085 -0.5873  0.1630  0.3796
 9211TIP3   OH249047   0.760   5.208  11.346 -0.1576  0.2990  0.4474
 9211TIP3    H149048   0.733   5.275  11.284  0.9725  1.3307  1.0244
 9211TIP3    H249049   0.848   5.183  11.316 -0.2073 -0.2730  0.7730
 9212TIP3   OH249050   1.056   2.666   2.605  0.0407  0.1898 -0.3192
 9212TIP3    H149051   1.044   2.675   2.699  0.7674  1.7116 -0.3309
 9212TIP3    H249052   1.150   2.659   2.593 -0.1445 -1.7615 -0.8418
 9213TIP3   OH249053   2.992   3.460  16.047  0.4178 -0.0280 -0.6533
 9213TIP3    H149054   3.075   3.507  16.060  0.6958 -1.1401  2.4521
 9213TIP3    H249055   2.924   3.525  16.065  0.7693 -0.3051  1.9372
 9214TIP3   OH249056   3.991   3.977  15.494 -0.0343 -0.4765  0.3673
 9214TIP3    H149057   4.043   3.923  15.434  1.1355  0.9836 -0.0033
 9214TIP3    H249058   3.909   3.929  15.504  0.1418 -1.2997 -1.5880
 9215TIP3   OH249059   2.147   2.966  14.305 -0.0614  0.7133 -0.4076
 9215TIP3    H149060   2.107   2.992  14.222  1.1376  1.5377 -0.7564
 9215TIP3    H249061   2.092   3.006  14.372 -2.6730 -2.2117 -0.6289
 9216TIP3   OH249062   0.046   2.538   1.382  0.0071  0.0365  0.3109
 9216TIP3    H149063   0.098   2.461   1.357 -1.0019 -0.8844  0.9724
 9216TIP3    H249064   0.068   2.553   1.474 -0.7086 -0.2092  0.5250
 9217TIP3   OH249065   0.200   5.796  14.200 -0.0715 -0.1892 -0.2184
 9217TIP3    H149066   0.117   5.842  14.187 -0.6252 -0.4958  1.8775
 9217TIP3    H249067   0.267   5.860  14.177 -0.8654  0.4835 -0.7176
 9218TIP3   OH249068   6.496   1.860   1.967  0.2616  0.4914 -0.4900
 9218TIP3    H149069   6.580   1.905   1.958  0.7161 -0.6052 -2.0482
 9218TIP3    H249070   6.518   1.767   1.965 -0.8217  0.1525  1.0855
 9219TIP3   OH249071   1.451   5.562  14.225 -0.4549 -0.0528 -0.5324
 9219TIP3    H149072   1.386   5.502  14.189 -0.6716  0.5541 -1.1869
 9219TIP3    H249073   1.535   5.523  14.204 -0.5838  0.1513 -1.4798
 9220TIP3   OH249074   3.539   0.677  12.007 -0.2932  0.2181 -0.0981
 9220TIP3    H149075   3.486   0.668  11.927  0.3710 -0.2820 -0.4934
 9220TIP3    H249076   3.619   0.628  11.988 -0.7318 -1.1964  1.4298
 9221TIP3   OH249077   0.278   0.537  14.607 -0.3497  0.6704 -0.3639
 9221TIP3    H149078   0.210   0.584  14.560 -0.7979  0.7993  0.4076
 9221TIP3    H249079   0.354   0.541  14.548 -1.5476 -1.2659 -2.1880
 9222TIP3   OH249080   2.501   1.686  13.644 -0.2093 -0.0378  0.2307
 9222TIP3    H149081   2.430   1.623  13.635  1.4641 -1.7964 -2.0603
 9222TIP3    H249082   2.481   1.734  13.724 -3.1244 -1.4683  0.4837
 9223TIP3   OH249083   0.942   2.927  16.067 -0.1257 -0.1461  0.2667
 9223TIP3    H149084   0.919   2.948  15.976  0.5565 -0.9778 -0.1095
 9223TIP3    H249085   1.014   2.987  16.088 -1.6842  1.5931  1.0350
 9224TIP3   OH249086   0.274   5.862  11.389 -0.6898 -0.3324 -0.3619
 9224TIP3    H149087   0.330   5.814  11.450 -0.7381  0.3911  0.2719
 9224TIP3    H249088   0.186   5.853  11.426 -0.6583  0.4734 -0.0680
 9225TIP3   OH249089   3.177   1.304  14.622 -0.5480 -0.3069 -0.2243
 9225TIP3    H149090   3.087   1.329  14.638 -0.2869  0.7777 -0.3679
 9225TIP3    H249091   3.225   1.387  14.619  0.4011 -0.8464 -0.4494
 9226TIP3   OH249092   1.177   0.003   2.542  0.3893 -0.2997  0.1994
 9226TIP3    H149093   1.185  -0.085   2.505 -0.3186 -0.2470 -0.1028
 9226TIP3    H249094   1.259   0.047   2.517  0.4735 -0.6727 -0.1964
 9227TIP3   OH249095   1.386   3.993  15.014  0.3779  0.7017  0.7466
 9227TIP3    H149096   1.335   4.059  15.062  0.5289  0.2793  1.5022
 9227TIP3    H249097   1.330   3.970  14.939  0.2358  1.5272  0.5840
 9228TIP3   OH249098   3.591   6.162  13.635  0.7894 -0.2517  0.2714
 9228TIP3    H149099   3.666   6.144  13.579  0.9121  0.4891  0.1964
 9228TIP3    H249100   3.623   6.224  13.700 -0.1639  1.3797 -0.7591
 9229TIP3   OH249101   3.933   2.013  12.697  0.4420  0.0568  0.0327
 9229TIP3    H149102   3.991   1.995  12.623  0.2890 -1.2499  0.1950
 9229TIP3    H249103   3.966   1.955  12.767 -0.3708  0.1139  0.4736
 9230TIP3   OH249104   1.597   3.140   4.622 -0.3149 -0.4330 -0.5037
 9230TIP3    H149105   1.578   3.186   4.703 -0.2814  0.4295 -0.9744
 9230TIP3    H249106   1.608   3.048   4.648  0.6992 -0.0237  0.6006
 9231TIP3   OH249107   2.660   5.829   2.354  0.2800 -0.2301  0.1876
 9231TIP3    H149108   2.725   5.873   2.299 -0.7404  0.3884 -0.5648
 9231TIP3    H249109   2.681   5.736   2.345 -0.6505 -0.2878 -2.3868
 9232TIP3   OH249110   4.619   5.491  14.521  0.2525  0.1396  0.1318
 9232TIP3    H149111   4.536   5.443  14.523 -0.1203  0.7807  0.4461
 9232TIP3    H249112   4.674   5.441  14.461 -0.4943 -0.0905 -0.3769
 9233TIP3   OH249113   0.184   3.534   1.073 -0.0183  0.1763  0.6505
 9233TIP3    H149114   0.101   3.515   1.029  0.1676  1.7210 -0.4558
 9233TIP3    H249115   0.225   3.448   1.086 -1.4138 -0.5391  0.4812
 9234TIP3   OH249116   5.509   3.110  10.980 -0.5458 -0.1259 -0.3596
 9234TIP3    H149117   5.465   3.194  10.992 -0.3267 -0.1618  0.7979
 9234TIP3    H249118   5.518   3.101  10.885 -4.1140 -0.6891 -0.7731
 9235TIP3   OH249119   3.996   3.076  12.374  0.1030 -0.2811 -0.7226
 9235TIP3    H149120   3.968   3.151  12.322  0.4127 -0.7213 -1.5436
 9235TIP3    H249121   4.054   3.113  12.440 -0.3647  0.2979 -0.6316
 9236TIP3   OH249122   3.897   5.575   5.902  0.4038  0.5139 -0.3335
 9236TIP3    H149123   3.859   5.510   5.844 -0.6702  2.2327 -1.6726
 9236TIP3    H249124   3.874   5.546   5.990  0.5963 -1.2636 -0.8331
 9237TIP3   OH249125   0.730   3.444  16.488  0.0453 -0.1988  0.7130
 9237TIP3    H149126   0.722   3.538  16.502  0.9860 -0.2470  1.7334
 9237TIP3    H249127   0.734   3.434  16.393  0.6862  0.8645  0.6125
 9238TIP3   OH249128   2.750   4.608  16.959  0.5275 -0.0024  0.4416
 9238TIP3    H149129   2.745   4.611  17.054  1.1311 -1.0065  0.5206
 9238TIP3    H249130   2.841   4.629  16.939 -0.0041  2.1222 -0.0489
 9239TIP3   OH249131   2.665   5.695  15.698 -0.7358  0.3330 -0.1462
 9239TIP3    H149132   2.757   5.718  15.690 -0.2049 -1.7898 -0.8801
 9239TIP3    H249133   2.623   5.735  15.622  0.0423 -0.6471 -1.1178
 9240TIP3   OH249134   0.302   4.898   4.105  0.1709 -0.0352  0.1349
 9240TIP3    H149135   0.347   4.913   4.188 -2.6700  0.8958  1.6003
 9240TIP3    H249136   0.287   4.804   4.102 -0.6881  0.0633  1.2189
 9241TIP3   OH249137   6.201   6.396  10.688  0.6225  0.7435  0.3199
 9241TIP3    H149138   6.135   6.337  10.652  1.4462 -0.7165  1.0817
 9241TIP3    H249139   6.248   6.343  10.752  2.7619  1.6046 -0.4243
 9242TIP3   OH249140   4.440   3.244   3.410  0.7188 -0.0919 -0.5073
 9242TIP3    H149141   4.520   3.296   3.406  0.4251  0.2770 -1.7163
 9242TIP3    H249142   4.385   3.278   3.340  0.3817 -1.7987 -1.1066
 9243TIP3   OH249143   5.632   3.476  12.369 -0.1502  0.1604 -0.3311
 9243TIP3    H149144   5.577   3.482  12.291  0.7157 -0.7884 -1.0372
 9243TIP3    H249145   5.718   3.451  12.336  0.0743 -0.8940  0.9884
 9244TIP3   OH249146   1.585   5.497  15.310  0.2761 -0.1729  0.4109
 9244TIP3    H149147   1.617   5.455  15.390 -0.2015 -1.9121 -0.2599
 9244TIP3    H249148   1.597   5.431  15.242  1.1398  1.4497 -1.0703
 9245TIP3   OH249149   0.807   5.099   1.430  0.0413  0.0284 -0.5101
 9245TIP3    H149150   0.894   5.109   1.391 -0.3931  1.4922 -1.1969
 9245TIP3    H249151   0.764   5.183   1.413 -1.5697 -0.7250 -0.3308
 9246TIP3   OH249152   1.892   3.685  12.675  0.2349 -0.7066  0.7533
 9246TIP3    H149153   1.955   3.730  12.619  0.2394 -1.3811  0.2025
 9246TIP3    H249154   1.938   3.673  12.758  0.1747  0.4429  0.9673
 9247TIP3   OH249155   4.577   5.710  12.765  0.0765  0.3533  0.4833
 9247TIP3    H149156   4.659   5.689  12.722 -0.0747  1.4860 -0.3878
 9247TIP3    H249157   4.526   5.629  12.761  1.6485 -0.8245  2.3184
 9248TIP3   OH249158   5.713   3.846  15.246 -0.5044  0.0851  0.3107
 9248TIP3    H149159   5.748   3.765  15.211  3.6558  0.3661  3.1484
 9248TIP3    H249160   5.659   3.819  15.321 -0.5503 -0.1191  0.2026
 9249TIP3   OH249161   5.953   2.878   2.149 -0.2220  0.6016 -0.6664
 9249TIP3    H149162   5.874   2.858   2.200  0.6050 -0.5060  0.2017
 9249TIP3    H249163   5.924   2.944   2.086 -2.2489 -0.9361 -1.4519
 9250TIP3   OH249164   1.056   3.234  11.751 -0.2003 -0.5766 -0.1051
 9250TIP3    H149165   1.147   3.253  11.775 -0.0275  0.0630 -1.1718
 9250TIP3    H249166   1.036   3.152  11.794  1.0132 -0.9190 -0.1557
 9251TIP3   OH249167   4.871   0.644  16.578 -0.2309 -0.4058 -0.4603
 9251TIP3    H149168   4.960   0.652  16.544 -0.1861  1.3873 -0.0177
 9251TIP3    H249169   4.851   0.731  16.613 -1.4442 -1.2923  1.1921
 9252TIP3   OH249170   5.826   1.062  14.656 -1.1665 -0.1891  0.1744
 9252TIP3    H149171   5.886   1.008  14.605 -0.7631 -0.5332  0.9854
 9252TIP3    H249172   5.740   1.025  14.639 -1.0392 -0.2941 -0.2557
 9253TIP3   OH249173   0.880   1.044   4.305  0.5538  0.9625 -0.0545
 9253TIP3    H149174   0.870   1.023   4.212  0.5660  0.0354  0.1405
 9253TIP3    H249175   0.846   1.133   4.313  2.4109  1.8609 -1.2997
 9254TIP3   OH249176   2.762   5.966   4.277 -0.4460  0.1587  0.0093
 9254TIP3    H149177   2.710   5.956   4.197 -0.8528  1.1764  0.1285
 9254TIP3    H249178   2.743   6.055   4.307 -1.2234 -0.5792  1.8795
 9255TIP3   OH249179   5.351   1.208   5.752  0.1958 -0.1795  0.2950
 9255TIP3    H149180   5.272   1.263   5.747  0.6859  0.4566 -0.8088
 9255TIP3    H249181   5.386   1.209   5.663  1.0687 -1.0328  0.6206
 9256TIP3   OH249182   6.498   5.099  15.350 -0.5138 -0.1039  0.3001
 9256TIP3    H149183   6.464   5.012  15.369  1.6453 -1.6060 -2.1113
 9256TIP3    H249184   6.587   5.099  15.386  0.9801 -0.4819 -3.0055
 9257TIP3   OH249185   1.446   2.513  13.277  0.1877 -0.1879 -0.5173
 9257TIP3    H149186   1.455   2.512  13.182  1.2775  0.3990 -0.4372
 9257TIP3    H249187   1.356   2.485  13.293  0.1787 -0.9199 -1.6919
 9258TIP3   OH249188   4.704   2.997   6.067  0.0368 -0.4949 -0.3954
 9258TIP3    H149189   4.767   3.048   6.118 -1.6474 -0.4940  1.8275
 9258TIP3    H249190   4.681   2.924   6.123 -0.8613 -1.3052 -1.7617
 9259TIP3   OH249191   0.203   4.633   5.599  0.4891 -0.0549 -0.6989
 9259TIP3    H149192   0.165   4.545   5.602 -1.2512  0.6931  0.0891
 9259TIP3    H249193   0.129   4.692   5.613  1.8745  1.4806  0.5673
 9260TIP3   OH249194   4.380   3.561  12.500  0.1908 -0.2198  0.2271
 9260TIP3    H149195   4.325   3.581  12.425  0.6218 -1.6394 -0.4952
 9260TIP3    H249196   4.330   3.498  12.551 -0.1978  0.8968  1.3015
 9261TIP3   OH249197   3.788   3.677   1.914  0.0536  0.6675 -0.5775
 9261TIP3    H149198   3.738   3.621   1.973  2.9978 -0.7053  0.7767
 9261TIP3    H249199   3.793   3.761   1.959 -0.0973  0.4728 -0.1960
 9262TIP3   OH249200   5.820   5.392  14.466  0.2809 -0.3551  0.2389
 9262TIP3    H149201   5.913   5.395  14.442 -0.2440  0.5266 -1.9028
 9262TIP3    H249202   5.787   5.314  14.421  0.1185 -1.1567  1.6860
 9263TIP3   OH249203   4.500   3.506   3.784  0.2950  0.2449  0.8394
 9263TIP3    H149204   4.444   3.544   3.716  0.5878  0.2053  0.5698
 9263TIP3    H249205   4.588   3.507   3.745  0.1994 -1.3775  0.5328
 9264TIP3   OH249206   1.175   4.011  13.825 -0.3921 -0.4267 -0.3859
 9264TIP3    H149207   1.122   3.943  13.784  0.1659 -1.0591 -0.0775
 9264TIP3    H249208   1.249   3.964  13.863  0.4111  0.4416 -0.8401
 9265TIP3   OH249209   6.195   5.788   0.090 -0.2256 -0.1310 -0.3137
 9265TIP3    H149210   6.280   5.808   0.131 -0.5740  1.6450 -0.3603
 9265TIP3    H249211   6.142   5.752   0.161 -0.6959  2.5559  0.8114
 9266TIP3   OH249212   0.591   1.499  15.954  1.0512 -0.0251 -0.2116
 9266TIP3    H149213   0.654   1.428  15.968  1.3966 -0.0758 -1.8077
 9266TIP3    H249214   0.638   1.561  15.898  0.1668  0.6319 -0.2299
 9267TIP3   OH249215   4.682   6.380  13.201  0.9522 -0.3156  0.0747
 9267TIP3    H149216   4.588   6.381  13.222 -0.0819 -0.3416 -3.7134
 9267TIP3    H249217   4.709   6.472  13.211  0.2997 -0.1586  0.4635
 9268TIP3   OH249218   5.705   3.499   5.876  0.2258  0.2174  0.5389
 9268TIP3    H149219   5.707   3.501   5.972  0.4547 -0.9723  0.5702
 9268TIP3    H249220   5.640   3.433   5.854 -1.1284  1.7144 -0.1638
 9269TIP3   OH249221   0.741   2.613  15.826 -0.5552  0.5969 -0.1272
 9269TIP3    H149222   0.668   2.620  15.764 -0.3525  2.1318 -0.2349
 9269TIP3    H249223   0.700   2.602  15.911 -0.9258  1.6564 -0.1625
 9270TIP3   OH249224   3.827   5.854  13.793  0.4045 -0.1938  0.6579
 9270TIP3    H149225   3.913   5.819  13.816  1.1079  0.9730 -0.0720
 9270TIP3    H249226   3.845   5.941  13.756 -1.2444  0.9176  2.2797
 9271TIP3   OH249227   4.167   2.223   1.074 -0.0791 -0.2635 -0.3031
 9271TIP3    H149228   4.259   2.211   1.097  0.5983  0.3208 -2.4664
 9271TIP3    H249229   4.141   2.141   1.032 -0.1926 -0.0303 -0.7004
 9272TIP3   OH249230   6.133   1.197   6.226 -0.1933  0.4403  0.4147
 9272TIP3    H149231   6.189   1.269   6.254  0.2166  0.9545 -1.5779
 9272TIP3    H249232   6.049   1.237   6.205 -1.1170 -0.2116  2.5811
 9273TIP3   OH249233   5.845   1.489  16.061 -0.2790 -0.6336 -0.5334
 9273TIP3    H149234   5.884   1.568  16.097 -1.1031 -0.2205 -0.5453
 9273TIP3    H249235   5.842   1.504  15.966 -0.3109 -0.7448 -0.5509
 9274TIP3   OH249236   0.738   0.970   5.246 -0.8746 -0.6623 -0.5669
 9274TIP3    H149237   0.799   0.924   5.188  1.2795 -0.2050  1.2120
 9274TIP3    H249238   0.691   0.899   5.291  1.4169 -1.2434  1.1131
 9275TIP3   OH249239   2.843   5.503   3.137 -0.1864  0.1658 -0.0486
 9275TIP3    H149240   2.786   5.550   3.198  1.2844 -0.5101  1.9475
 9275TIP3    H249241   2.785   5.444   3.090 -1.4955  1.3078  0.0647
 9276TIP3   OH249242   2.800   0.484   3.115 -0.1106 -0.0555  0.3203
 9276TIP3    H149243   2.819   0.570   3.077  2.7372 -1.0401 -0.7983
 9276TIP3    H249244   2.886   0.447   3.134 -1.2020 -2.8988  0.1970
 9277TIP3   OH249245   5.408   6.326   6.019  0.1672 -0.2201  0.1386
 9277TIP3    H149246   5.405   6.422   6.023 -0.0602 -0.0985 -1.9168
 9277TIP3    H249247   5.366   6.298   6.100 -0.8642  1.4182  0.2189
 9278TIP3   OH249248   0.893   6.360  10.824  0.2941 -0.0210 -1.0269
 9278TIP3    H149249   0.897   6.455  10.832 -0.8024 -0.0817  1.0164
 9278TIP3    H249250   0.873   6.344  10.732 -0.7987  1.7939 -1.1494
 9279TIP3   OH249251   4.576   1.202   1.120 -0.3321 -0.0629 -0.3472
 9279TIP3    H149252   4.486   1.172   1.135  0.4349 -1.5845  1.7119
 9279TIP3    H249253   4.610   1.220   1.208  0.8168  2.3729 -1.2077
 9280TIP3   OH249254   0.639   1.798   4.042  0.3825  0.3073  0.7130
 9280TIP3    H149255   0.634   1.800   3.947  1.2269 -1.6976  0.5884
 9280TIP3    H249256   0.597   1.880   4.070 -2.4878 -0.3460 -1.2675
 9281TIP3   OH249257   2.306   3.776  12.152 -0.0356  0.0219  0.2971
 9281TIP3    H149258   2.357   3.748  12.228 -2.3575 -0.8878  1.6442
 9281TIP3    H249259   2.321   3.870  12.146  0.3304  0.0948  1.8226
 9282TIP3   OH249260   4.352   5.981   2.161  0.1791  0.3313  1.0400
 9282TIP3    H149261   4.368   5.888   2.177 -0.3711  0.0481  0.0033
 9282TIP3    H249262   4.437   6.023   2.176  0.3620 -0.2853  1.7988
 9283TIP3   OH249263   5.159   5.123   0.103  0.0179 -0.0648  0.3112
 9283TIP3    H149264   5.187   5.035   0.080 -0.7433 -0.3615  0.4940
 9283TIP3    H249265   5.161   5.125   0.199  2.2002  0.8453  0.3183
 9284TIP3   OH249266   2.422   4.524  15.610  0.6876  0.6636  0.3855
 9284TIP3    H149267   2.328   4.508  15.617  0.7051 -0.1713 -0.9882
 9284TIP3    H249268   2.436   4.606  15.658 -0.6448  0.5295  1.0483
 9285TIP3   OH249269   4.438   5.092   5.520  0.2932  0.5889 -0.0067
 9285TIP3    H149270   4.374   5.106   5.589 -0.6897 -0.2146 -0.7330
 9285TIP3    H249271   4.483   5.011   5.545  0.6817  0.8740  0.2338
 9286TIP3   OH249272   3.826   6.356   3.902 -0.0370 -0.1287  0.3067
 9286TIP3    H149273   3.920   6.341   3.916 -0.2070  0.9464  3.1236
 9286TIP3    H249274   3.815   6.450   3.914 -1.3321 -0.0155 -1.3573
 9287TIP3   OH249275   5.778   2.515  12.635  0.0330 -0.1057  0.4897
 9287TIP3    H149276   5.781   2.427  12.599  0.9056 -0.3294  1.0857
 9287TIP3    H249277   5.687   2.543  12.623 -0.1574 -0.9365 -0.0395
 9288TIP3   OH249278   2.618   0.523  16.127 -0.1657  0.0851  0.3704
 9288TIP3    H149279   2.696   0.545  16.177 -0.7789  0.4653  1.1646
 9288TIP3    H249280   2.587   0.441  16.165  0.2127 -0.4318 -0.3915
 9289TIP3   OH249281   1.292   2.389  13.744  0.0888 -0.5673 -0.2761
 9289TIP3    H149282   1.231   2.365  13.814  0.7529 -0.9084  0.2086
 9289TIP3    H249283   1.343   2.462  13.780 -0.5041  0.1869 -0.9457
 9290TIP3   OH249284   2.555   3.472  15.242  1.0827  0.0840 -0.1921
 9290TIP3    H149285   2.578   3.456  15.150  1.5847 -0.3256  0.0031
 9290TIP3    H249286   2.597   3.401  15.290 -0.4884 -0.6352  0.1930
 9291TIP3   OH249287   4.771   0.897   2.004 -0.2008  0.1852 -0.2736
 9291TIP3    H149288   4.734   0.919   1.919 -0.1840  0.9325 -0.0906
 9291TIP3    H249289   4.698   0.860   2.054 -0.0159 -1.0971 -0.8974
 9292TIP3   OH249290   0.667   3.303   5.467  0.3542  0.2500 -0.6275
 9292TIP3    H149291   0.761   3.315   5.454  0.6349  0.2113  1.1023
 9292TIP3    H249292   0.656   3.208   5.478  0.2896  0.3604  0.3048
 9293TIP3   OH249293   4.782   2.387   1.374 -0.3658  0.5794  0.0790
 9293TIP3    H149294   4.726   2.345   1.439 -1.1569 -0.1842 -1.0558
 9293TIP3    H249295   4.849   2.433   1.425 -1.3895  0.6034  1.4280
 9294TIP3   OH249296   2.037   2.864  15.340 -0.3837 -0.3443  0.3008
 9294TIP3    H149297   2.084   2.836  15.419 -1.8072 -1.9071  0.6513
 9294TIP3    H249298   2.052   2.793  15.277 -0.9713 -0.1152 -0.1072
 9295TIP3   OH249299   5.204   4.539   4.045  0.2969 -0.2347 -0.4006
 9295TIP3    H149300   5.174   4.451   4.068  0.0166 -0.1303 -0.3637
 9295TIP3    H249301   5.297   4.528   4.028  0.8672 -0.0773  2.1974
 9296TIP3   OH249302   5.435   3.565  16.501  0.5313  0.3804  0.0317
 9296TIP3    H149303   5.515   3.597  16.459  0.1558  1.3601  0.0450
 9296TIP3    H249304   5.365   3.616  16.460 -0.1926 -1.0520 -0.6007
 9297TIP3   OH249305   2.286   6.111   2.422  0.0446  0.3364 -0.0783
 9297TIP3    H149306   2.326   6.196   2.407  0.8236  0.1198  0.6584
 9297TIP3    H249307   2.262   6.112   2.515  1.4034 -0.7696  0.3218
 9298TIP3   OH249308   2.025   0.371   4.026  0.4928 -0.1026 -0.5477
 9298TIP3    H149309   1.935   0.400   4.040  0.5286  0.2475 -1.0126
 9298TIP3    H249310   2.033   0.290   4.076 -0.1566 -0.2719 -0.7179
 9299TIP3   OH249311   0.314   1.647   2.366 -0.1351  0.2941  0.7177
 9299TIP3    H149312   0.317   1.680   2.276  1.2758  0.7178  0.8993
 9299TIP3    H249313   0.405   1.626   2.387 -0.1747  1.7356  2.6078
 9300TIP3   OH249314   3.916   4.287  15.361 -0.1287 -0.3436 -0.3802
 9300TIP3    H149315   3.993   4.257  15.409  0.1605 -2.4929 -2.0689
 9300TIP3    H249316   3.892   4.369  15.404  0.8576 -1.4769  2.5959
 9301TIP3   OH249317   2.088   1.232   1.556  0.4237  0.4643 -0.0329
 9301TIP3    H149318   2.020   1.166   1.546  0.9198 -0.1219  0.3619
 9301TIP3    H249319   2.170   1.184   1.542  0.9575  0.3881  2.7059
 9302TIP3   OH249320   6.722   3.614  15.369  0.1934  0.0754 -0.5604
 9302TIP3    H149321   6.709   3.665  15.289  2.3327 -0.6247 -1.4220
 9302TIP3    H249322   6.815   3.591  15.367  0.0583 -0.8206  1.6312
 9303TIP3   OH249323   6.696   0.495  11.777  0.2673  0.3931 -0.3361
 9303TIP3    H149324   6.705   0.506  11.682  0.3785 -2.6503 -0.7599
 9303TIP3    H249325   6.601   0.501  11.792  0.2269  0.6461 -0.6530
 9304TIP3   OH249326   6.616   4.070  11.444  0.3980  0.0859  0.3792
 9304TIP3    H149327   6.582   4.045  11.358 -0.0318  0.5841  0.4013
 9304TIP3    H249328   6.696   4.120  11.424 -0.7479  1.9180  0.1616
 9305TIP3   OH249329   1.933   0.474   2.740 -0.6916 -0.5582 -0.0667
 9305TIP3    H149330   1.897   0.426   2.815  0.3009 -0.5857  0.4203
 9305TIP3    H249331   2.028   0.460   2.747 -0.4467  0.8431 -0.3568
 9306TIP3   OH249332   3.407   1.174   5.656  0.0327 -0.6391 -0.0765
 9306TIP3    H149333   3.462   1.104   5.690  1.4659 -0.3400 -1.6334
 9306TIP3    H249334   3.437   1.186   5.565 -0.4136  1.7224  0.0274
 9307TIP3   OH249335   1.701   3.523  12.987  0.3024  0.2523 -0.2299
 9307TIP3    H149336   1.706   3.616  12.963  2.1528  1.2198  3.2238
 9307TIP3    H249337   1.789   3.489  12.971  0.6539  0.1014  1.8087
 9308TIP3   OH249338   2.849   4.248   5.354  0.1216  0.4386  0.2842
 9308TIP3    H149339   2.799   4.197   5.290  1.2674 -1.9136  1.1489
 9308TIP3    H249340   2.783   4.278   5.417 -0.4952 -0.7700  0.2466
 9309TIP3   OH249341   0.616   6.088   4.726 -0.1166  0.1951  0.0477
 9309TIP3    H149342   0.545   6.060   4.785 -0.2586  0.8606  0.1984
 9309TIP3    H249343   0.695   6.050   4.764 -0.4169 -0.7611 -0.2602
 9310TIP3   OH249344   1.531   3.842  15.949 -0.2561  0.0861 -0.0621
 9310TIP3    H149345   1.570   3.925  15.976 -1.8696  1.0919 -0.7429
 9310TIP3    H249346   1.498   3.803  16.031  1.5261 -0.5040  0.4388
 9311TIP3   OH249347   0.043   2.692  13.273  0.3169 -0.1506  0.9437
 9311TIP3    H149348   0.091   2.706  13.192  2.3000 -1.5215  1.7942
 9311TIP3    H249349  -0.046   2.671  13.246  0.1590  2.2062 -0.7175
 9312TIP3   OH249350   4.101   3.054  12.877  0.2822 -0.0794  0.1862
 9312TIP3    H149351   4.152   3.053  12.959  0.0493 -0.4920  0.3309
 9312TIP3    H249352   4.059   3.140  12.876 -0.6102 -0.4874  1.0705
 9313TIP3   OH249353   4.279   6.265   1.049 -0.4198 -0.6316 -0.3180
 9313TIP3    H149354   4.337   6.323   1.000  0.0163 -1.3827 -0.7137
 9313TIP3    H249355   4.336   6.218   1.109 -0.8637 -0.1849  0.4785
 9314TIP3   OH249356   5.374   6.329  15.786  0.3177  0.1548 -0.6161
 9314TIP3    H149357   5.293   6.365  15.821  0.6284 -0.0697  0.3451
 9314TIP3    H249358   5.398   6.389  15.715 -0.6648  0.2368 -0.8975
 9315TIP3   OH249359   5.824   2.864  12.654  0.0785  0.9180  0.1884
 9315TIP3    H149360   5.874   2.846  12.574  0.2372  0.3103  0.4191
 9315TIP3    H249361   5.733   2.847  12.629  0.0175  1.6474 -0.1226
 9316TIP3   OH249362   5.577   5.075  11.080  0.0916 -0.1716  0.1811
 9316TIP3    H149363   5.536   5.132  11.015 -1.0300 -0.4930  0.5754
 9316TIP3    H249364   5.570   4.987  11.043  2.3112 -0.0466 -0.6770
 9317TIP3   OH249365   3.814   3.545   3.965 -0.4205 -0.0501 -0.0682
 9317TIP3    H149366   3.901   3.578   3.944 -0.7020  0.5192 -0.3579
 9317TIP3    H249367   3.781   3.509   3.883  0.3587 -2.1875  0.5154
 9318TIP3   OH249368   1.302   2.868   3.429  0.3026  0.3324  0.3611
 9318TIP3    H149369   1.383   2.919   3.439  0.9532 -0.6853  0.4415
 9318TIP3    H249370   1.253   2.884   3.510 -0.8526  3.0730 -0.7671
 9319TIP3   OH249371   2.668   5.160   4.414  0.2520  0.2588  0.5228
 9319TIP3    H149372   2.607   5.229   4.385  0.9337  0.5921 -0.1511
 9319TIP3    H249373   2.643   5.083   4.363 -0.9222 -0.1956  1.7303
 9320TIP3   OH249374   5.586   6.717   5.277  0.4604 -0.3109  0.0062
 9320TIP3    H149375   5.589   6.801   5.232  1.3085 -0.2536  0.1458
 9320TIP3    H249376   5.507   6.720   5.330 -0.0775 -0.0297 -0.7984
 9321TIP3   OH249377   5.499   2.739  11.412 -0.2477  0.3243  0.0863
 9321TIP3    H149378   5.587   2.703  11.424 -0.0384  1.3002  1.8329
 9321TIP3    H249379   5.504   2.828  11.447 -2.1204  0.1355  1.0004
 9322TIP3   OH249380   1.872   3.135  13.824  0.2251  0.0288  0.1743
 9322TIP3    H149381   1.856   3.199  13.755 -1.1827 -1.0031 -0.5053
 9322TIP3    H249382   1.805   3.152  13.890  0.1766 -0.3845  0.2368
 9323TIP3   OH249383   2.064   2.937  11.654 -0.0299 -0.1024 -0.0306
 9323TIP3    H149384   2.045   2.897  11.739 -0.3068 -0.3133 -0.1903
 9323TIP3    H249385   2.063   3.031  11.671 -3.4383  0.0522 -0.4373
 9324TIP3   OH249386   3.557   0.679  16.217 -0.8873 -0.3381 -0.7533
 9324TIP3    H149387   3.542   0.767  16.252 -1.4290 -0.2681 -1.1493
 9324TIP3    H249388   3.634   0.647  16.264 -1.7134 -0.3222  0.6488
 9325TIP3   OH249389   1.495   3.328  15.965 -0.0949  0.2368 -0.4258
 9325TIP3    H149390   1.469   3.355  15.877  0.9403  0.8560 -0.5680
 9325TIP3    H249391   1.591   3.321  15.960 -0.0749 -0.2997  0.4934
 9326TIP3   OH249392   1.863   2.027  12.506 -0.8229  0.0293 -0.7948
 9326TIP3    H149393   1.845   1.943  12.463 -1.1442  0.2210 -1.0361
 9326TIP3    H249394   1.865   2.006  12.599 -0.6647 -0.2906 -0.8674
 9327TIP3   OH249395   6.478   0.302   4.968 -0.1524  0.4784  0.2825
 9327TIP3    H149396   6.428   0.362   5.023  0.0909  1.9626 -1.0594
 9327TIP3    H249397   6.422   0.286   4.892  0.7670  0.9512 -0.5121
 9328TIP3   OH249398   5.727   6.373  16.870 -0.3040 -0.4723 -0.3486
 9328TIP3    H149399   5.763   6.380  16.782 -2.3968 -1.4006 -1.3514
 9328TIP3    H249400   5.668   6.297  16.866 -1.6718  0.4081  1.3915
 9329TIP3   OH249401   4.519   3.879  15.554  0.0116 -0.3677 -0.1119
 9329TIP3    H149402   4.589   3.944  15.560 -0.4685  0.0978  0.6096
 9329TIP3    H249403   4.564   3.796  15.537  0.7683 -0.1383  0.7160
 9330TIP3   OH249404   1.766   1.059   4.175 -0.0904  0.6172 -0.0217
 9330TIP3    H149405   1.717   1.048   4.093 -0.4349  2.5033 -0.1010
 9330TIP3    H249406   1.710   1.020   4.242 -1.4350  2.1083 -0.2136
 9331TIP3   OH249407   2.581   0.553   3.925  0.3670  0.1813  0.1273
 9331TIP3    H149408   2.595   0.477   3.869  2.4955 -0.6981  1.7393
 9331TIP3    H249409   2.519   0.524   3.991 -0.1009  0.3917 -0.2123
 9332TIP3   OH249410   5.365   2.440  15.984  0.6302  0.0032 -0.0629
 9332TIP3    H149411   5.432   2.498  15.946  1.0132  0.6210  1.4667
 9332TIP3    H249412   5.286   2.494  15.989 -0.7347 -1.3471 -3.8572
 9333TIP3   OH249413   2.260   2.000  15.072  0.4437 -0.1146 -0.1726
 9333TIP3    H149414   2.175   2.003  15.117 -0.1020 -0.9107 -1.0988
 9333TIP3    H249415   2.248   2.056  14.995  0.3630 -1.1319 -0.9174
 9334TIP3   OH249416   5.789   0.213  14.502  0.5057  0.0777 -0.3607
 9334TIP3    H149417   5.788   0.117  14.512  1.7659 -0.0962 -1.5988
 9334TIP3    H249418   5.765   0.246  14.589  0.0029 -1.3502  0.0832
 9335TIP3   OH249419   1.577   6.345  13.184 -0.4122  0.2886  0.0947
 9335TIP3    H149420   1.600   6.432  13.152  0.5417 -0.6041 -1.8625
 9335TIP3    H249421   1.635   6.331  13.259 -1.1202  1.5913  0.9282
 9336TIP3   OH249422   3.072   2.794   4.142 -0.2438  0.5479  0.6145
 9336TIP3    H149423   3.015   2.796   4.065  0.3067 -1.5636  0.0862
 9336TIP3    H249424   3.011   2.789   4.216 -0.7636  1.3099  0.2502
 9337TIP3   OH249425   1.028   5.515  14.402  0.4222 -0.6212  0.5427
 9337TIP3    H149426   1.020   5.605  14.370 -0.4460 -0.6695  0.5991
 9337TIP3    H249427   0.986   5.516  14.487  0.4677 -1.0669  0.5702
 9338TIP3   OH249428   6.815   2.384  11.705  0.2878  0.1387 -0.3729
 9338TIP3    H149429   6.863   2.418  11.781  0.4643  0.9879 -0.8463
 9338TIP3    H249430   6.824   2.289  11.711 -1.4661  0.0315  1.8320
 9339TIP3   OH249431   2.548   3.045  11.377  0.6859  0.1639  0.1759
 9339TIP3    H149432   2.543   2.984  11.450  0.7974  0.2716  0.2746
 9339TIP3    H249433   2.457   3.057  11.349  0.4813  1.2168  1.2067
 9340TIP3   OH249434   1.794   1.452   2.026 -0.4102 -0.1564  0.5109
 9340TIP3    H149435   1.768   1.532   1.982  1.1754  0.7461  1.1538
 9340TIP3    H249436   1.804   1.388   1.955  0.7016  0.8828 -0.3151
 9341TIP3   OH249437   3.149   5.957  16.242 -0.0906  0.4811 -0.2084
 9341TIP3    H149438   3.087   5.914  16.301  0.2928 -0.7055 -0.6307
 9341TIP3    H249439   3.219   5.892  16.229  0.6005  1.3020 -0.7457
 9342TIP3   OH249440   6.537   4.752  14.106  0.0148 -0.5713  0.0026
 9342TIP3    H149441   6.626   4.762  14.139 -0.0937  0.3232  0.0573
 9342TIP3    H249442   6.519   4.835  14.061 -0.7372 -0.8006 -0.1365
 9343TIP3   OH249443   6.811   3.822  11.045  0.1036  0.3549  0.5106
 9343TIP3    H149444   6.892   3.874  11.042  0.6548 -0.5189 -0.4361
 9343TIP3    H249445   6.758   3.858  10.974 -0.1568  0.6279  0.8411
 9344TIP3   OH249446   0.924   6.629  14.565 -0.6607  0.1056 -0.2948
 9344TIP3    H149447   0.870   6.592  14.496  0.4168 -0.4145 -0.8914
 9344TIP3    H249448   1.014   6.618  14.533 -0.1310 -0.2694  1.2337
 9345TIP3   OH249449   2.797   4.381  11.813  0.1283  0.2289 -0.4560
 9345TIP3    H149450   2.809   4.453  11.751  0.6892  0.7877  0.2855
 9345TIP3    H249451   2.869   4.321  11.795 -0.2245 -0.0593 -0.9395
 9346TIP3   OH249452   1.032   6.072  13.781 -0.3890 -0.3974 -0.2092
 9346TIP3    H149453   1.002   6.008  13.717  0.8650  0.3593 -1.6038
 9346TIP3    H249454   0.952   6.102  13.824 -1.1182 -1.9100 -0.4564
 9347TIP3   OH249455   3.471   0.073   1.045  0.0698  0.0510 -0.3459
 9347TIP3    H149456   3.535   0.036   0.984  0.6405  1.7882 -0.8378
 9347TIP3    H249457   3.398   0.010   1.043  0.9564 -0.9960 -1.1951
 9348TIP3   OH249458   3.998   5.681   4.727 -0.3556  0.1320  0.0836
 9348TIP3    H149459   3.948   5.601   4.713 -0.1428 -0.4052  2.1020
 9348TIP3    H249460   3.939   5.751   4.702 -1.9150 -0.5118  1.7199
 9349TIP3   OH249461   6.084   4.309  14.565 -0.1046  0.1575  0.1493
 9349TIP3    H149462   6.175   4.287  14.544 -0.5432 -0.8552 -0.7553
 9349TIP3    H249463   6.091   4.377  14.632  1.3284 -1.8785  2.2192
 9350TIP3   OH249464   0.349   5.156   0.549  0.1212 -0.5821  0.3035
 9350TIP3    H149465   0.306   5.078   0.514 -0.2611 -0.8440  1.3143
 9350TIP3    H249466   0.355   5.139   0.644  0.5991  0.3445  0.4466
 9351TIP3   OH249467   2.616   3.410   3.490 -0.2570  0.7298  0.4247
 9351TIP3    H149468   2.660   3.329   3.516 -4.9118 -1.6163  2.2460
 9351TIP3    H249469   2.674   3.480   3.520  1.7591 -1.9445  3.4140
 9352TIP3   OH249470   1.936   4.391  11.963  0.3678 -0.1460  0.2318
 9352TIP3    H149471   2.022   4.429  11.947  1.9610 -3.3618  0.2383
 9352TIP3    H249472   1.886   4.411  11.884  0.9097  2.1630  0.4173
 9353TIP3   OH249473   5.147   1.321  10.918  0.5186  0.4582 -0.2619
 9353TIP3    H149474   5.062   1.283  10.895 -0.1184  0.5577  1.7109
 9353TIP3    H249475   5.210   1.276  10.862 -0.9936  1.7878 -3.2306
 9354TIP3   OH249476   5.771   0.857   6.336  0.1076  0.0852  0.0592
 9354TIP3    H149477   5.776   0.772   6.293  1.5254 -0.1628  0.6676
 9354TIP3    H249478   5.862   0.881   6.353 -0.3288  0.9558  1.3759
 9355TIP3   OH249479   5.653   2.521  10.809 -0.1192  0.1931 -0.3396
 9355TIP3    H149480   5.698   2.515  10.725  0.1636  0.5061 -0.2130
 9355TIP3    H249481   5.589   2.450  10.808 -0.0834  0.1694 -0.7997
 9356TIP3   OH249482   0.553   3.523  15.540 -0.2188  0.5871  0.5707
 9356TIP3    H149483   0.552   3.474  15.622  1.3607 -0.0953  0.2239
 9356TIP3    H249484   0.584   3.610  15.565  0.1394  0.4185  0.7250
 9357TIP3   OH249485   4.948   5.628  11.759 -0.1435 -0.4039 -0.0002
 9357TIP3    H149486   5.026   5.642  11.705 -1.6362  0.5536 -2.0469
 9357TIP3    H249487   4.875   5.638  11.698 -1.9725  0.7955  2.2284
 9358TIP3   OH249488   2.994   1.107   2.940 -0.2172 -0.3961  0.3714
 9358TIP3    H149489   2.990   1.176   3.006  1.2716 -0.4632  0.5637
 9358TIP3    H249490   2.927   1.131   2.876 -1.4915 -0.1794  1.7565
 9359TIP3   OH249491   4.017   0.695  11.068  0.0754  0.6845 -0.1078
 9359TIP3    H149492   4.046   0.753  11.139  0.3069  0.6800 -0.1979
 9359TIP3    H249493   4.061   0.729  10.990 -0.7513  1.1350 -0.3833
 9360TIP3   OH249494   2.622   4.737   0.295 -0.0135  0.4103 -0.1348
 9360TIP3    H149495   2.665   4.670   0.242 -1.8475 -2.2679  1.5277
 9360TIP3    H249496   2.542   4.758   0.246  0.2781  1.0000 -0.3712
 9361TIP3   OH249497   5.809   6.174  10.510  0.6598  0.3557 -0.7054
 9361TIP3    H149498   5.733   6.190  10.454  0.4765  3.2271  0.2043
 9361TIP3    H249499   5.882   6.217  10.466  1.2997 -0.4378 -0.4541
 9362TIP3   OH249500   3.055   1.239   5.311  0.0096  0.2820 -0.0474
 9362TIP3    H149501   3.079   1.177   5.380  1.6294  0.3459 -0.5041
 9362TIP3    H249502   3.095   1.321   5.338  0.7889  0.2700 -1.1174
 9363TIP3   OH249503   5.073   6.291  11.071  0.6077 -0.2882  0.1021
 9363TIP3    H149504   4.992   6.271  11.024  1.4828 -0.1555 -1.5278
 9363TIP3    H249505   5.137   6.231  11.033  0.8967 -1.7914  2.7369
 9364TIP3   OH249506   3.304   4.909   3.804  0.4589  0.0036  0.4376
 9364TIP3    H149507   3.348   4.870   3.880 -0.5326  0.9346  1.5252
 9364TIP3    H249508   3.259   4.986   3.839  0.9965  1.2077 -1.3317
 9365TIP3   OH249509   6.740   1.551   5.251  0.3229 -0.4533 -0.5913
 9365TIP3    H149510   6.738   1.475   5.309  0.2474  0.4811  0.6892
 9365TIP3    H249511   6.773   1.518   5.168 -0.8474 -2.1154 -0.4319
 9366TIP3   OH249512   5.608   0.413   3.333  0.3776 -0.4305  0.0123
 9366TIP3    H149513   5.528   0.368   3.309  0.6633 -1.2644  0.5915
 9366TIP3    H249514   5.580   0.503   3.354 -0.3653 -0.6539 -0.0100
 9367TIP3   OH249515   0.814   2.989   1.712  0.1423  0.1317 -0.0789
 9367TIP3    H149516   0.878   2.989   1.783 -0.0050  0.5244  0.0612
 9367TIP3    H249517   0.731   3.011   1.755  0.0748  0.4908 -0.3880
 9368TIP3   OH249518   5.273   2.509   0.493  0.4064 -0.1068 -0.3537
 9368TIP3    H149519   5.275   2.552   0.578 -1.4528 -1.1224  0.2505
 9368TIP3    H249520   5.245   2.578   0.432 -0.9990 -0.0440  0.3383
 9369TIP3   OH249521   0.309   5.498  12.440 -0.5883 -0.7671 -0.1409
 9369TIP3    H149522   0.365   5.569  12.412 -1.0348 -0.8088 -1.2139
 9369TIP3    H249523   0.350   5.419  12.404  0.1501 -1.1403  1.4159
 9370TIP3   OH249524   6.454   4.392   1.799 -0.8723 -0.2364 -0.3810
 9370TIP3    H149525   6.427   4.300   1.801 -1.0196 -0.2112  1.9563
 9370TIP3    H249526   6.547   4.388   1.778 -0.6244 -1.0552  0.7160
 9371TIP3   OH249527   0.844   6.147  12.045 -0.5374 -0.0777 -0.3524
 9371TIP3    H149528   0.880   6.098  11.971 -0.6051 -1.7165  0.6488
 9371TIP3    H249529   0.900   6.125  12.119  0.0317  2.1960 -0.0382
 9372TIP3   OH249530   0.366   3.065  11.503 -0.1516 -0.0965  0.4218
 9372TIP3    H149531   0.436   3.125  11.527 -0.1379  0.3640 -0.6881
 9372TIP3    H249532   0.328   3.104  11.424 -0.4974 -1.2700 -0.0061
 9373TIP3   OH249533   6.376   3.984  15.412  0.3240 -0.0293  0.0180
 9373TIP3    H149534   6.404   4.016  15.326 -0.3134  0.1131 -0.1441
 9373TIP3    H249535   6.328   3.904  15.393 -1.6512  1.0796 -0.0040
 9374TIP3   OH249536   1.280   6.414  14.601  0.1824 -0.2265 -0.3001
 9374TIP3    H149537   1.243   6.337  14.557  0.5910  0.3117 -1.6420
 9374TIP3    H249538   1.233   6.488  14.564  0.6322  0.2560  0.0788
 9375TIP3   OH249539   6.734   3.385  14.926  0.3092  0.3990  0.3964
 9375TIP3    H149540   6.777   3.457  14.971 -0.7797  1.2747  0.1069
 9375TIP3    H249541   6.694   3.426  14.849 -0.8563 -0.3754  0.5555
 9376TIP3   OH249542   0.255   0.766  12.971 -0.1109  0.0864 -0.6268
 9376TIP3    H149543   0.210   0.807  12.898 -3.1476 -2.1002 -0.1584
 9376TIP3    H249544   0.206   0.686  12.988  2.8398 -1.4982  1.3093
 9377TIP3   OH249545   6.461   6.016  11.244  0.3541  0.0601 -0.3958
 9377TIP3    H149546   6.518   5.989  11.316  0.8131 -0.5966 -0.9937
 9377TIP3    H249547   6.486   5.959  11.171 -0.9348 -0.1111 -0.7227
 9378TIP3   OH249548   1.852   2.634  12.745  0.0781  0.1842 -0.3350
 9378TIP3    H149549   1.909   2.558  12.748  1.5352  1.2506  1.0989
 9378TIP3    H249550   1.791   2.621  12.817  0.9998  0.8086  0.5971
 9379TIP3   OH249551   0.828   5.970  13.622 -0.5469 -0.0727 -0.3012
 9379TIP3    H149552   0.784   6.032  13.681  1.0482  0.8662 -0.0293
 9379TIP3    H249553   0.858   5.899  13.679  0.1332  0.3525 -0.1094
 9380TIP3   OH249554   2.362   1.925   4.847 -0.5038 -0.4040 -0.4136
 9380TIP3    H149555   2.439   1.880   4.883  1.4288  2.3569 -0.8109
 9380TIP3    H249556   2.315   1.957   4.924  1.3564  1.8879 -0.1347
 9381TIP3   OH249557   4.614   3.099   4.896 -0.1795 -1.3759 -0.4214
 9381TIP3    H149558   4.702   3.110   4.859  0.5548 -0.0878  1.5346
 9381TIP3    H249559   4.595   3.006   4.885  0.8736 -1.4359 -2.0333
 9382TIP3   OH249560   3.874   6.062   2.830 -0.1719  0.4873  0.3863
 9382TIP3    H149561   3.780   6.046   2.819 -0.2010  0.5210  0.5732
 9382TIP3    H249562   3.881   6.157   2.835  0.0896  0.5849 -1.4898
 9383TIP3   OH249563   6.405   0.086  14.149 -0.0156  0.3259 -0.0833
 9383TIP3    H149564   6.309   0.086  14.151 -0.2223  3.0872 -2.8372
 9383TIP3    H249565   6.427   0.081  14.056  2.5929 -0.9007  0.5116
 9384TIP3   OH249566   6.488   2.296   3.389  0.0101  0.0960  0.4088
 9384TIP3    H149567   6.581   2.293   3.410  0.4181  1.0904 -1.1187
 9384TIP3    H249568   6.479   2.240   3.312 -0.2717  1.6086 -0.6859
 9385TIP3   OH249569   2.209   4.351  16.993 -0.7449  0.2741 -0.4396
 9385TIP3    H149570   2.123   4.310  16.988 -1.1230  1.0550 -0.4886
 9385TIP3    H249571   2.192   4.444  16.977 -0.0617  0.6275  0.8216
 9386TIP3   OH249572   0.983   6.301   1.364  0.6174  0.1189  0.5301
 9386TIP3    H149573   0.970   6.347   1.447 -2.3198 -1.4502  1.0725
 9386TIP3    H249574   1.014   6.214   1.390  1.6052  0.2403 -0.1849
 9387TIP3   OH249575   4.686   0.978  11.045 -0.4589 -0.0325 -0.4237
 9387TIP3    H149576   4.688   1.032  10.966 -1.0422 -0.1009 -0.4928
 9387TIP3    H249577   4.778   0.962  11.066 -0.2895 -0.9555 -1.7347
 9388TIP3   OH249578   0.372   1.441   4.621 -0.0331  0.1446  0.0687
 9388TIP3    H149579   0.392   1.348   4.614 -0.5019  0.0730 -0.3656
 9388TIP3    H249580   0.360   1.470   4.530  2.7079  1.2264 -0.0377
 9389TIP3   OH249581   3.187   4.331   3.721 -0.2542  0.3274  0.0272
 9389TIP3    H149582   3.220   4.251   3.763  1.4592  0.4484 -0.9898
 9389TIP3    H249583   3.193   4.398   3.789  0.3241  0.0427  0.2651
 9390TIP3   OH249584   3.094   1.748   2.687 -0.1966 -0.2233 -0.1920
 9390TIP3    H149585   3.108   1.655   2.701 -1.3020 -0.1282  1.8820
 9390TIP3    H249586   3.008   1.753   2.644 -2.0088 -0.0899  3.1544
 9391TIP3   OH249587   0.312   5.743   0.173  0.1583  0.4767 -1.0983
 9391TIP3    H149588   0.336   5.756   0.081 -1.6651 -1.1150 -1.8473
 9391TIP3    H249589   0.317   5.648   0.186  1.4572  0.7611  0.7859
 9392TIP3   OH249590   6.608   3.364  15.462  0.4823 -0.2251 -0.5378
 9392TIP3    H149591   6.543   3.409  15.516  0.9946 -1.4033  1.1317
 9392TIP3    H249592   6.652   3.435  15.414 -1.8432  0.6132 -1.5889
 9393TIP3   OH249593   4.992   1.961  10.923  0.4906 -0.3204 -0.9115
 9393TIP3    H149594   5.034   2.032  10.971 -1.2981 -0.1657  0.5112
 9393TIP3    H249595   4.950   2.005  10.849  2.3709 -0.4251 -2.1138
 9394TIP3   OH249596   4.677   0.516   1.677  0.3099  0.1209 -0.8201
 9394TIP3    H149597   4.636   0.464   1.746 -0.1080  0.2871 -0.9439
 9394TIP3    H249598   4.726   0.452   1.624 -1.4165 -0.3969 -1.8734
 9395TIP3   OH249599   5.507   5.205  15.303  0.4349 -0.3480  0.2634
 9395TIP3    H149600   5.490   5.187  15.210  0.5070  3.1415 -0.5527
 9395TIP3    H249601   5.424   5.240  15.337  0.5914 -1.0021  1.3695
 9396TIP3   OH249602   1.915   2.288  12.492  0.0577  0.6619 -0.0462
 9396TIP3    H149603   1.913   2.193  12.488  0.1480  0.5212  2.1707
 9396TIP3    H249604   2.006   2.311  12.473 -0.1491  0.3902 -1.4506
 9397TIP3   OH249605   2.050   1.384   2.042 -0.0408 -0.0980  0.5500
 9397TIP3    H149606   2.041   1.302   1.993  1.8318 -0.9816  1.5585
 9397TIP3    H249607   1.961   1.413   2.057 -0.7623 -2.0782  0.3417
 9398TIP3   OH249608   1.716   3.820   2.998  0.3653  0.2603 -0.1286
 9398TIP3    H149609   1.708   3.904   2.951  0.8169 -0.6034 -1.8549
 9398TIP3    H249610   1.738   3.757   2.929 -0.0654 -1.3041  1.1191
 9399TIP3   OH249611   2.295   4.875  10.739  0.0984 -0.6122  0.4761
 9399TIP3    H149612   2.333   4.951  10.784  0.1454  0.7185 -1.6680
 9399TIP3    H249613   2.365   4.845  10.681  0.0239 -2.2734  1.1877
 9400TIP3   OH249614   4.035   3.719   5.135  0.1834 -0.5350 -0.6732
 9400TIP3    H149615   4.070   3.640   5.177  1.5043 -0.4587 -1.5881
 9400TIP3    H249616   4.026   3.782   5.207  1.2243 -0.8105 -0.2837
 9401TIP3   OH249617   5.945   0.168  11.855 -0.2754  0.0447 -0.4168
 9401TIP3    H149618   5.951   0.189  11.948 -1.3229 -1.0424 -0.0772
 9401TIP3    H249619   5.890   0.238  11.818 -0.2008  0.2535 -0.1344
 9402TIP3   OH249620   3.479   1.049   5.063  1.2274  0.1710  0.0968
 9402TIP3    H149621   3.513   1.001   5.138 -1.1529 -1.2571  0.3852
 9402TIP3    H249622   3.448   0.981   5.003  0.6498  1.3233 -0.9625
 9403TIP3   OH249623   3.909   0.709  16.021 -0.1335 -0.3961 -0.6546
 9403TIP3    H149624   3.973   0.682  16.086 -0.3603 -1.0790 -0.7156
 9403TIP3    H249625   3.866   0.786  16.060  1.6058  0.9071 -1.1544
 9404TIP3   OH249626   3.444   4.106  14.058  0.1430 -0.4774 -0.6939
 9404TIP3    H149627   3.354   4.110  14.026  0.1890 -2.3409 -1.1990
 9404TIP3    H249628   3.484   4.189  14.031 -1.0514 -0.1961 -1.6567
 9405TIP3   OH249629   4.128   5.250  16.712  0.0894  0.3241 -0.0414
 9405TIP3    H149630   4.129   5.248  16.808 -0.1207  0.0269 -0.0409
 9405TIP3    H249631   4.211   5.290  16.688  0.0991  0.4944  0.2674
 9406TIP3   OH249632   3.093   1.756   2.957  0.5960  0.3196 -0.5160
 9406TIP3    H149633   3.160   1.700   2.995  0.2860 -1.1261 -1.9924
 9406TIP3    H249634   3.104   1.746   2.862 -1.6069  0.1408 -0.7965
 9407TIP3   OH249635   0.395   3.858  12.069 -0.0948  0.1780 -0.3347
 9407TIP3    H149636   0.316   3.810  12.094  1.4970 -1.7171  1.3864
 9407TIP3    H249637   0.369   3.950  12.075 -2.1986 -0.3799  0.0347
 9408TIP3   OH249638   2.993   3.383   3.791 -0.3282  0.0695  0.3342
 9408TIP3    H149639   3.047   3.373   3.870 -0.2238  2.2383  0.5947
 9408TIP3    H249640   3.046   3.436   3.732 -1.1862  0.1048 -0.4293
 9409TIP3   OH249641   4.050   5.563  12.917  0.1679 -0.1396 -0.1167
 9409TIP3    H149642   3.980   5.532  12.859  0.0390 -1.1505  0.5520
 9409TIP3    H249643   4.065   5.653  12.890 -1.8242  0.3064  0.1057
 9410TIP3   OH249644   2.755   2.617   5.166 -0.6346  0.0627  0.4866
 9410TIP3    H149645   2.680   2.569   5.130 -2.3010  1.6039  1.7154
 9410TIP3    H249646   2.780   2.678   5.096 -1.0715  0.1175  0.3738
 9411TIP3   OH249647   6.614   4.842   5.002 -0.1796 -0.0039  0.1440
 9411TIP3    H149648   6.652   4.884   4.924 -1.2011  1.8257  0.5729
 9411TIP3    H249649   6.627   4.906   5.072 -1.4278 -0.5886  0.9265
 9412TIP3   OH249650   0.449   2.364  14.331 -0.5651 -0.3497  0.4060
 9412TIP3    H149651   0.394   2.438  14.308 -0.7624 -0.1798  1.3791
 9412TIP3    H249652   0.395   2.311  14.390  0.2073 -0.3233  1.1620
 9413TIP3   OH249653   2.627   0.967  12.672 -0.1557  0.4698 -0.4399
 9413TIP3    H149654   2.571   0.926  12.607  0.3459  1.0033 -1.2168
 9413TIP3    H249655   2.596   1.057  12.678  1.2574  1.0695 -1.6459
 9414TIP3   OH249656   5.176   1.503   2.014  0.2304 -0.5591  0.8466
 9414TIP3    H149657   5.182   1.483   2.107 -1.5672  0.0918  1.1337
 9414TIP3    H249658   5.085   1.484   1.991  0.6263 -0.6617 -0.7807
 9415TIP3   OH249659   1.873   2.304   2.744 -0.3803  0.0700 -0.0297
 9415TIP3    H149660   1.847   2.384   2.790  3.1060  1.7125 -0.6373
 9415TIP3    H249661   1.828   2.309   2.660 -2.6516 -0.3006  1.0827
 9416TIP3   OH249662   6.751   1.589  11.236  0.0465  0.3014 -0.1406
 9416TIP3    H149663   6.843   1.590  11.261  0.0407 -0.9071 -0.0244
 9416TIP3    H249664   6.708   1.647  11.298  0.2592 -1.5099  1.8219
 9417TIP3   OH249665   5.652   2.085   2.732 -0.3562 -0.5800  0.6414
 9417TIP3    H149666   5.640   2.042   2.647  1.7792 -0.5537  0.2628
 9417TIP3    H249667   5.700   2.165   2.712 -0.1265 -0.4007  1.8377
 9418TIP3   OH249668   5.317   4.502   5.150  0.2633 -0.3779 -0.5845
 9418TIP3    H149669   5.239   4.552   5.125 -0.0786 -0.4877  0.2295
 9418TIP3    H249670   5.331   4.441   5.078  0.3834  0.5331 -1.3587
 9419TIP3   OH249671   0.792   3.745   6.415 -0.7057  0.1606  0.1095
 9419TIP3    H149672   0.865   3.728   6.355 -0.6102  1.3968 -0.1562
 9419TIP3    H249673   0.826   3.720   6.501 -0.2606 -0.0641 -0.1242
 9420TIP3   OH249674   1.673   2.852   1.138  0.1318  0.6110  0.1005
 9420TIP3    H149675   1.654   2.817   1.050  1.3883 -0.2917  0.1625
 9420TIP3    H249676   1.761   2.889   1.130  0.4453  0.0987  1.0859
 9421TIP3   OH249677   2.046   4.714  15.928 -0.3495 -0.8823  0.1966
 9421TIP3    H149678   2.060   4.638  15.872  1.4455 -0.2699 -0.2698
 9421TIP3    H249679   2.001   4.778  15.872  0.3989 -0.6966 -0.2025
 9422TIP3   OH249680   1.624   4.036  16.128 -0.4278  0.0410  0.0731
 9422TIP3    H149681   1.625   4.011  16.221 -0.5830  2.5353  0.8072
 9422TIP3    H249682   1.691   4.104  16.121 -3.5019  3.2619 -0.5440
 9423TIP3   OH249683   1.530   5.416  12.375  0.1087 -0.1751  0.2625
 9423TIP3    H149684   1.492   5.442  12.458  1.6406 -1.5524  1.4555
 9423TIP3    H249685   1.594   5.485  12.355 -1.7519  1.3075 -0.9554
 9424TIP3   OH249686   0.261   5.296   4.794  0.4569  0.3694 -0.0948
 9424TIP3    H149687   0.283   5.278   4.703 -1.4418  1.4565 -0.8264
 9424TIP3    H249688   0.200   5.226   4.818  2.3296 -1.0041  1.0196
 9425TIP3   OH249689   3.896   5.418  15.579 -0.4644 -0.1210  0.6952
 9425TIP3    H149690   3.875   5.495  15.526 -0.4371 -0.4251  0.2406
 9425TIP3    H249691   3.951   5.453  15.650 -1.7937  0.5520  1.4517
 9426TIP3   OH249692   1.363   5.134  13.901  0.1676 -0.4358 -0.3872
 9426TIP3    H149693   1.424   5.104  13.969  1.4578  0.1403 -1.2470
 9426TIP3    H249694   1.394   5.091  13.821 -0.8890 -0.5380 -0.7520
 9427TIP3   OH249695   5.830   3.030   4.050  0.8654 -0.2561 -0.3949
 9427TIP3    H149696   5.799   3.119   4.067  1.7758 -0.4514  3.0454
 9427TIP3    H249697   5.755   2.975   4.068  1.2448 -0.3232  1.1637
 9428TIP3   OH249698   6.427   6.527   1.406 -0.5222  0.1146  0.6972
 9428TIP3    H149699   6.358   6.553   1.346  1.1519  0.2943 -1.2549
 9428TIP3    H249700   6.382   6.477   1.475 -2.2760 -2.3196 -1.9960
 9429TIP3   OH249701   1.590   6.217  12.133  0.3173 -0.0747 -0.2394
 9429TIP3    H149702   1.659   6.216  12.067  1.9745 -2.6629  1.3601
 9429TIP3    H249703   1.551   6.130  12.129  0.4293 -0.2957  2.0851
 9430TIP3   OH249704   0.191   4.187   4.677  0.6924  0.1792  0.5807
 9430TIP3    H149705   0.261   4.184   4.741  0.1666 -0.1361  1.1487
 9430TIP3    H249706   0.192   4.277   4.644  1.6264  0.0669  0.2756
 9431TIP3   OH249707   6.779   4.872  14.208  0.3468  0.0165  0.2501
 9431TIP3    H149708   6.710   4.870  14.273  0.2145  1.3547  0.1781
 9431TIP3    H249709   6.817   4.960  14.215 -0.3157  0.5840 -2.0913
 9432TIP3   OH249710   2.731   4.144  11.414 -0.3862 -0.1481 -0.0003
 9432TIP3    H149711   2.740   4.109  11.502  0.2056  0.7251  0.2953
 9432TIP3    H249712   2.804   4.204  11.403 -0.1055 -0.6809 -1.3118
 9433TIP3   OH249713   3.287   0.857  12.871  0.5578 -0.1413 -0.4344
 9433TIP3    H149714   3.251   0.945  12.860  0.8772  0.1537  0.8060
 9433TIP3    H249715   3.323   0.856  12.960  1.1140 -1.3255 -0.6511
 9434TIP3   OH249716   4.930   0.947  16.960 -0.3602  0.1943  0.7158
 9434TIP3    H149717   4.986   1.023  16.948  0.0215 -0.1441  0.2902
 9434TIP3    H249718   4.990   0.877  16.988 -0.5984 -0.1195  0.4566
 9435TIP3   OH249719   6.212   0.434  16.517  0.2460  0.3377  0.2290
 9435TIP3    H149720   6.152   0.506  16.499 -2.5949 -2.0001 -0.4773
 9435TIP3    H249721   6.266   0.427  16.438  1.4168  2.3728  0.7973
 9436TIP3   OH249722   3.190   2.467  12.446  0.1743 -0.4325 -0.5008
 9436TIP3    H149723   3.147   2.499  12.525  1.0091 -0.7786  0.1059
 9436TIP3    H249724   3.236   2.388  12.474  0.8484 -0.3114 -1.2230
 9437TIP3   OH249725   2.336   5.538  16.309  0.1683 -0.0761 -0.5509
 9437TIP3    H149726   2.240   5.532  16.306  0.1938 -0.2215 -1.7336
 9437TIP3    H249727   2.365   5.484  16.235  1.2754 -1.8949  1.1136
 9438TIP3   OH249728   0.767   1.828   5.105 -0.1717  0.1231  0.4578
 9438TIP3    H149729   0.683   1.839   5.060 -0.6616 -2.0244  0.7480
 9438TIP3    H249730   0.820   1.775   5.045  0.9593  1.3311  0.3436
 9439TIP3   OH249731   1.201   5.244   3.382  0.0574 -0.1582  0.1769
 9439TIP3    H149732   1.152   5.301   3.442  1.4967  0.1317  1.1381
 9439TIP3    H249733   1.136   5.181   3.351 -1.2131  1.0165  0.3448
 9440TIP3   OH249734   2.057   5.945   6.378  0.2115 -0.1598 -0.6316
 9440TIP3    H149735   2.099   5.884   6.439  0.2347  1.7922  1.4212
 9440TIP3    H249736   2.129   5.999   6.345 -0.1281  0.4495 -0.3846
 9441TIP3   OH249737   2.550   0.164  11.746  0.2246 -0.3082 -0.1695
 9441TIP3    H149738   2.532   0.256  11.767  0.1959 -0.5797  1.0694
 9441TIP3    H249739   2.509   0.115  11.817 -0.4951 -1.3425 -1.2660
 9442TIP3   OH249740   3.131   3.222  13.268 -0.0325 -0.7752  0.3465
 9442TIP3    H149741   3.153   3.314  13.255  0.1026 -0.4997  2.1822
 9442TIP3    H249742   3.214   3.176  13.256 -0.0548 -0.6446 -0.3519
 9443TIP3   OH249743   2.925   6.613  14.343  0.2167 -0.3759 -0.5524
 9443TIP3    H149744   2.878   6.665  14.408 -0.6683  0.8267 -2.0911
 9443TIP3    H249745   2.982   6.556  14.394 -0.8556  0.1366  1.2792
 9444TIP3   OH249746   0.332   2.131   1.604  0.0130 -0.1579 -0.4144
 9444TIP3    H149747   0.387   2.097   1.674 -0.2685  0.7838  0.2899
 9444TIP3    H249748   0.380   2.207   1.570  0.2892 -0.7831 -1.4568
 9445TIP3   OH249749   4.158   0.478  11.161 -0.4575 -0.0976  0.1011
 9445TIP3    H149750   4.074   0.464  11.203 -0.5529  2.4126  0.9078
 9445TIP3    H249751   4.142   0.549  11.099  1.5591  2.3943  2.2175
 9446TIP3   OH249752   3.481   3.367  13.091  0.2378 -0.2082  0.1432
 9446TIP3    H149753   3.523   3.337  13.172 -2.8285  0.3188  2.0898
 9446TIP3    H249754   3.480   3.290  13.034  1.6604 -0.8474  0.9398
 9447TIP3   OH249755   0.527   0.133   4.959  0.0964  0.0417 -0.1623
 9447TIP3    H149756   0.577   0.117   5.039  0.1617  0.3552 -0.1394
 9447TIP3    H249757   0.588   0.178   4.901 -0.1041  0.2769 -0.1947
 9448TIP3   OH249758   6.729   1.975   0.215  0.6563 -0.7155  0.1831
 9448TIP3    H149759   6.641   1.990   0.182  1.1245  0.6275 -0.5342
 9448TIP3    H249760   6.716   1.927   0.297 -0.8699  1.0383  1.0538
 9449TIP3   OH249761   0.528   2.529  13.356 -0.2348  0.0949  0.1093
 9449TIP3    H149762   0.618   2.500  13.362 -0.7619 -1.5763  0.3868
 9449TIP3    H249763   0.532   2.610  13.305  1.7212  1.7286  2.6579
 9450TIP3   OH249764   4.551   5.842  15.780 -0.3806 -0.0088 -0.3946
 9450TIP3    H149765   4.504   5.919  15.811  1.1415  1.2689 -1.1537
 9450TIP3    H249766   4.619   5.827  15.845 -0.0727 -0.1340 -0.7412
 9451TIP3   OH249767   1.884   4.109   1.089  0.3988 -0.2530 -0.3058
 9451TIP3    H149768   1.885   4.192   1.042  0.3821  0.9101  1.6422
 9451TIP3    H249769   1.974   4.099   1.121  0.8141 -1.8051 -1.7929
 9452TIP3   OH249770   1.738   6.496  15.605 -0.1755 -0.0672 -0.1624
 9452TIP3    H149771   1.762   6.559  15.537  0.8159  1.4101  1.4773
 9452TIP3    H249772   1.663   6.535  15.650 -0.5659 -0.8307 -0.1245
 9453TIP3   OH249773   1.695   6.106   2.125 -0.2926  0.3687  0.4061
 9453TIP3    H149774   1.707   6.192   2.084 -1.8536  0.3453 -0.1790
 9453TIP3    H249775   1.784   6.070   2.132  0.1703  0.8650 -1.9242
 9454TIP3   OH249776   1.451   0.567   3.308  0.1525 -0.1795 -0.1522
 9454TIP3    H149777   1.454   0.473   3.293 -1.8427 -0.4111  0.5774
 9454TIP3    H249778   1.464   0.577   3.402  0.8626  0.3299 -0.2961
 9455TIP3   OH249779   5.645   4.952   0.231  0.2189  0.1563  0.4205
 9455TIP3    H149780   5.659   4.934   0.138  0.7405  1.0166  0.3278
 9455TIP3    H249781   5.733   4.948   0.269  0.1085  0.6742  0.7249
 9456TIP3   OH249782   5.232   4.008  12.836  0.4908 -0.5614 -0.5567
 9456TIP3    H149783   5.179   3.972  12.907  0.9562 -0.6890 -0.2691
 9456TIP3    H249784   5.269   3.931  12.792  1.3815 -0.4420 -0.0216
 9457TIP3   OH249785   6.009   0.780  14.013  0.6180  0.0506 -0.0972
 9457TIP3    H149786   6.032   0.716  14.081 -0.3693 -0.1251  0.0843
 9457TIP3    H249787   5.919   0.806  14.033  1.4994  2.7495  0.7881
 9458TIP3   OH249788   4.613   2.681  15.364 -0.1553  0.1538 -0.3898
 9458TIP3    H149789   4.691   2.664  15.311  0.3463 -4.9503  1.4618
 9458TIP3    H249790   4.545   2.625  15.326 -1.5414  0.8909  0.8769
 9459TIP3   OH249791   4.270   1.144   5.315 -0.2077  0.3536  0.6042
 9459TIP3    H149792   4.241   1.172   5.402 -1.2447  0.1260  0.3449
 9459TIP3    H249793   4.190   1.140   5.263  0.3635  0.2008 -0.2889
 9460TIP3   OH249794   2.459   6.403  13.387  0.2714  0.0118  0.0452
 9460TIP3    H149795   2.420   6.368  13.307 -0.8083  0.7077  0.2526
 9460TIP3    H249796   2.477   6.326  13.440 -0.7682 -0.3378 -0.0902
 9461TIP3   OH249797   4.656   0.744   5.063 -0.2319  0.1021  0.8222
 9461TIP3    H149798   4.579   0.734   5.119 -0.7570 -0.5454 -0.0003
 9461TIP3    H249799   4.659   0.838   5.043 -1.9894 -0.1284 -0.7566
 9462TIP3   OH249800   2.049   0.762  15.650 -0.5428 -0.6574 -0.2957
 9462TIP3    H149801   1.956   0.738  15.644 -0.3729 -2.0936  1.7452
 9462TIP3    H249802   2.088   0.694  15.706  1.3394  0.9845  0.5050
 9463TIP3   OH249803   2.836   6.464  10.815 -0.0729  0.2310 -0.0505
 9463TIP3    H149804   2.744   6.440  10.824 -0.1694  0.7694  0.4868
 9463TIP3    H249805   2.872   6.401  10.752 -0.7263 -0.1906 -0.0078
 9464TIP3   OH249806   3.407   5.356   3.900  0.2449  0.0506 -0.3874
 9464TIP3    H149807   3.351   5.426   3.934 -1.7572 -0.7873 -1.7821
 9464TIP3    H249808   3.463   5.399   3.836  0.5141  0.7401  0.3023
 9465TIP3   OH249809   2.179   4.585   2.643 -0.2149  0.9642  0.0231
 9465TIP3    H149810   2.122   4.508   2.641 -1.0265  1.4968  1.3981
 9465TIP3    H249811   2.171   4.623   2.555 -0.3409 -0.1174 -0.4483
 9466TIP3   OH249812   3.969   5.708   2.700  0.0689  0.5722  0.1168
 9466TIP3    H149813   3.887   5.729   2.656  0.0947  0.6975  0.1288
 9466TIP3    H249814   3.944   5.692   2.792 -0.2140 -1.1730 -0.2178
 9467TIP3   OH249815   6.109   5.414   3.959 -0.1363 -0.1182  0.4601
 9467TIP3    H149816   6.162   5.489   3.933 -1.6533  1.6232  2.0808
 9467TIP3    H249817   6.171   5.342   3.965  1.9739  1.6671  1.6635
 9468TIP3   OH249818   2.287   6.080  16.055  0.7502 -0.0779  0.1500
 9468TIP3    H149819   2.210   6.098  16.110  1.2504  0.5162  0.6628
 9468TIP3    H249820   2.258   6.010  15.997 -0.2234  0.2206  0.2550
 9469TIP3   OH249821   0.298   5.853   2.357 -0.8051 -0.0358  0.4500
 9469TIP3    H149822   0.250   5.918   2.306 -0.6897 -0.3471 -0.0680
 9469TIP3    H249823   0.233   5.787   2.381 -0.6099 -0.5591 -0.4211
 9470TIP3   OH249824   4.968   0.799  15.757  0.3961 -0.1995  0.1890
 9470TIP3    H149825   4.954   0.859  15.683 -0.5088 -1.2645 -0.5426
 9470TIP3    H249826   4.955   0.712  15.720  0.3816 -0.7850  1.5146
 9471TIP3   OH249827   5.134   0.262   4.583  0.2542  0.3218 -0.0746
 9471TIP3    H149828   5.061   0.323   4.593  0.9113  1.2424 -0.6737
 9471TIP3    H249829   5.093   0.176   4.576 -0.8207  0.9017 -1.1981
 9472TIP3   OH249830   6.002   1.221   2.317 -0.0470 -0.2642 -0.4928
 9472TIP3    H149831   6.005   1.258   2.406 -0.9959 -1.6449  0.1416
 9472TIP3    H249832   6.083   1.171   2.310  0.2165  0.1641 -0.5631
 9473TIP3   OH249833   0.807   0.972  13.328  0.1489 -0.1992  0.0875
 9473TIP3    H149834   0.856   0.940  13.252 -1.1725 -0.7804 -0.5466
 9473TIP3    H249835   0.866   1.035  13.370  2.0206 -1.9562  0.2216
 9474TIP3   OH249836   5.304   0.638  10.894 -0.2459  0.1497  0.4879
 9474TIP3    H149837   5.336   0.551  10.918  0.4919 -0.2095 -1.6247
 9474TIP3    H249838   5.378   0.696  10.911  0.5408 -0.2156 -1.4541
 9475TIP3   OH249839   3.748   2.120   3.053 -0.4890 -0.2855  0.7735
 9475TIP3    H149840   3.671   2.063   3.043 -0.5903  0.0792 -0.6734
 9475TIP3    H249841   3.738   2.186   2.985  0.4439  0.5588  1.4222
 9476TIP3   OH249842   3.256   6.499  15.825 -0.2629  0.1628  0.1983
 9476TIP3    H149843   3.281   6.442  15.752 -0.8809 -1.1415  0.9601
 9476TIP3    H249844   3.339   6.533  15.858  0.2250 -1.0293  0.2817
 9477TIP3   OH249845   3.256   6.309   4.257  0.7500  0.0287  0.3320
 9477TIP3    H149846   3.257   6.236   4.195 -0.2239 -0.1999  0.5680
 9477TIP3    H249847   3.219   6.273   4.337  0.9098  0.6097  0.6778
 9478TIP3   OH249848   2.088   3.918   2.559 -0.6729  0.7621 -0.2834
 9478TIP3    H149849   2.087   3.843   2.619 -0.5652  1.0761  0.1190
 9478TIP3    H249850   2.012   3.905   2.503  0.3212 -0.5839 -1.4003
 9479TIP3   OH249851   0.354   1.059  16.416 -0.0391 -0.1826 -0.2275
 9479TIP3    H149852   0.288   0.989  16.413 -0.4220  0.1082  0.7646
 9479TIP3    H249853   0.349   1.091  16.506  0.8953  0.3968 -0.3775
 9480TIP3   OH249854   5.981   4.289  15.272  0.0450  0.8221 -0.1672
 9480TIP3    H149855   5.978   4.206  15.320 -1.0639 -0.1199 -1.7385
 9480TIP3    H249856   5.929   4.349  15.324  0.7183  0.5070  0.9099
 9481TIP3   OH249857   0.583   6.480   3.743 -0.6289 -0.4532  0.2563
 9481TIP3    H149858   0.499   6.522   3.763  0.0367  1.4310 -0.6766
 9481TIP3    H249859   0.623   6.465   3.829 -1.4263 -0.3275  0.6609
 9482TIP3   OH249860   1.969   4.555  11.124 -0.6906 -0.2867  0.4590
 9482TIP3    H149861   1.983   4.605  11.043  1.4054 -0.3698  0.7271
 9482TIP3    H249862   2.037   4.488  11.123 -0.9375 -0.6004  2.0643
 9483TIP3   OH249863   1.057   4.292  12.947  0.3386  0.0962  0.0173
 9483TIP3    H149864   1.004   4.304  12.868  1.3587 -0.2724 -0.7391
 9483TIP3    H249865   1.029   4.208  12.983  0.7144 -0.3127 -0.6316
 9484TIP3   OH249866   4.607   6.008   4.182 -0.4675  0.1548  0.6588
 9484TIP3    H149867   4.570   5.933   4.136  0.9962 -0.0783 -0.1996
 9484TIP3    H249868   4.536   6.039   4.238 -1.6283 -0.8480 -0.1979
 9485TIP3   OH249869   4.830   0.681  10.992 -0.3098 -0.4034  0.6487
 9485TIP3    H149870   4.919   0.679  11.029 -0.3873 -0.5992  0.8287
 9485TIP3    H249871   4.774   0.653  11.064 -0.6245  0.6429  0.8161
 9486TIP3   OH249872   1.023   0.128  13.256  0.4925  0.0312  0.4338
 9486TIP3    H149873   1.000   0.174  13.337  1.7424  0.8676  0.3249
 9486TIP3    H249874   1.075   0.190  13.206 -0.0108 -0.5799 -0.9030
 9487TIP3   OH249875   2.737   6.478   0.676  0.2493  0.0980  0.6187
 9487TIP3    H149876   2.757   6.420   0.749 -0.5988 -0.5121  0.3964
 9487TIP3    H249877   2.817   6.529   0.662  0.8022 -0.5816  1.2258
 9488TIP3   OH249878   5.297   0.594   5.418 -0.2503  0.5312  0.0955
 9488TIP3    H149879   5.243   0.551   5.352  1.0155  1.3195 -1.4992
 9488TIP3    H249880   5.367   0.532   5.436  0.7512  1.2615 -1.1234
 9489TIP3   OH249881   2.350   1.073  15.184 -0.0679  0.2893  0.5090
 9489TIP3    H149882   2.393   1.025  15.254 -0.3539 -2.0024 -0.7936
 9489TIP3    H249883   2.256   1.062  15.200 -0.1352  0.3767  0.1926
 9490TIP3   OH249884   4.540   6.255  12.708 -0.3446 -0.0041 -0.6445
 9490TIP3    H149885   4.609   6.212  12.658 -0.7404 -0.3752 -0.8829
 9490TIP3    H249886   4.575   6.264  12.796 -0.4381 -1.2412 -0.4754
 9491TIP3   OH249887   3.794   1.242   1.216  0.0167  0.6273  0.3509
 9491TIP3    H149888   3.728   1.311   1.207  0.2287  0.7906  0.0551
 9491TIP3    H249889   3.744   1.160   1.207 -0.3828  0.7064  1.6077
 9492TIP3   OH249890   4.515   5.193  12.917 -0.2119  0.6954 -0.0849
 9492TIP3    H149891   4.575   5.140  12.865 -0.9821  0.7191 -1.0116
 9492TIP3    H249892   4.569   5.264  12.952 -0.0531  1.9102 -2.5650
 9493TIP3   OH249893   4.191   4.015  16.707  0.1549 -0.1757 -0.2608
 9493TIP3    H149894   4.147   3.977  16.631  0.2915 -0.8210 -0.0230
 9493TIP3    H249895   4.233   3.941  16.750  1.4719  0.4316 -0.4640
 9494TIP3   OH249896   1.822   5.027   3.009 -0.8666  0.7479  0.1311
 9494TIP3    H149897   1.782   4.992   3.089 -0.6947  2.7733  1.1583
 9494TIP3    H249898   1.852   5.114   3.033  0.3333  0.9363 -1.8184
 9495TIP3   OH249899   2.882   1.716  11.632  0.0683 -0.4738 -0.0389
 9495TIP3    H149900   2.850   1.642  11.682  0.1460 -0.8176 -0.4961
 9495TIP3    H249901   2.973   1.695  11.613  0.8509  0.8431  1.9300
 9496TIP3   OH249902   0.139   3.764   0.643 -0.6227 -0.2729 -0.2939
 9496TIP3    H149903   0.230   3.762   0.612 -0.4751  1.0771 -0.0342
 9496TIP3    H249904   0.087   3.735   0.568 -0.1243  1.0804 -1.1935
 9497TIP3   OH249905   3.342   0.812   3.724 -0.2357  0.6026  0.6643
 9497TIP3    H149906   3.367   0.881   3.663 -0.5033 -0.1377 -0.2998
 9497TIP3    H249907   3.410   0.815   3.792  0.8386  0.5437 -0.3750
 9498TIP3   OH249908   1.640   4.046  10.730 -0.1861  0.6035 -0.3908
 9498TIP3    H149909   1.626   4.139  10.710 -0.8596  0.4725 -0.5241
 9498TIP3    H249910   1.730   4.029  10.701  0.8777  1.8429  1.8985
 9499TIP3   OH249911   6.180   5.550   5.161  0.2577 -0.7441  0.6304
 9499TIP3    H149912   6.153   5.466   5.125  1.2934 -0.2735 -1.3766
 9499TIP3    H249913   6.194   5.606   5.085 -0.8433  1.4195  1.9291
 9500TIP3   OH249914   2.034   5.787  11.075  0.5726  0.3338  0.3236
 9500TIP3    H149915   1.961   5.785  11.013 -0.1250  2.2278  1.0293
 9500TIP3    H249916   2.003   5.739  11.151  1.2226 -1.4947 -0.4903
 9501TIP3   OH249917   6.588   5.848   5.416  0.0894 -0.1258 -0.4122
 9501TIP3    H149918   6.646   5.786   5.371 -0.7433 -0.6515 -0.7831
 9501TIP3    H249919   6.642   5.927   5.427  1.4538 -1.1756  0.8368
 9502TIP3   OH249920   6.570   3.047  12.445  0.3101  0.0309  0.1600
 9502TIP3    H149921   6.618   2.979  12.399  0.7217  0.2255  0.3000
 9502TIP3    H249922   6.495   3.067  12.388  0.1723 -0.5543  0.1344
 9503TIP3   OH249923   1.307   0.870   1.689 -0.1300 -0.0427  0.2295
 9503TIP3    H149924   1.267   0.840   1.770  0.4794 -0.0183  0.5423
 9503TIP3    H249925   1.319   0.964   1.702 -0.1729 -0.0119  0.0487
 9504TIP3   OH249926   4.241   4.887   5.138  0.1816  0.3899 -0.4499
 9504TIP3    H149927   4.279   4.973   5.153 -0.0857  0.5137 -0.4811
 9504TIP3    H249928   4.152   4.894   5.171  0.6447 -0.3540  1.0516
 9505TIP3   OH249929   1.320   2.782   2.289  0.6686  0.2681  0.5011
 9505TIP3    H149930   1.402   2.734   2.304  1.6826  2.1773  1.5205
 9505TIP3    H249931   1.285   2.797   2.377 -0.3609  0.1888  0.1185
 9506TIP3   OH249932   3.345   0.230  13.399  0.4354  0.2012 -0.7032
 9506TIP3    H149933   3.437   0.214  13.420 -0.0186 -0.0705  1.3529
 9506TIP3    H249934   3.314   0.147  13.364  0.5497 -0.3004  0.3435
 9507TIP3   OH249935   3.711   0.690   1.387 -0.1638  0.4847 -0.0513
 9507TIP3    H149936   3.768   0.735   1.450  0.1006 -1.9741  1.5874
 9507TIP3    H249937   3.754   0.703   1.302  2.3748 -0.4417  1.0013
 9508TIP3   OH249938   2.607   3.296  16.470 -0.8474 -0.3041  0.2858
 9508TIP3    H149939   2.634   3.348  16.393 -1.2901 -0.9300 -0.3031
 9508TIP3    H249940   2.623   3.354  16.544  1.8160 -0.5143 -0.0372
 9509TIP3   OH249941   6.067   4.274  17.100  0.2996 -0.6484 -0.3592
 9509TIP3    H149942   6.162   4.285  17.101  0.0537  2.3512 -1.0166
 9509TIP3    H249943   6.046   4.259  17.008  0.1330 -1.5962 -0.1764
 9510TIP3   OH249944   1.582   3.740   1.390  0.0206  0.1673  0.1167
 9510TIP3    H149945   1.498   3.695   1.391 -0.1799  0.5166 -0.3195
 9510TIP3    H249946   1.575   3.800   1.316  0.1021  1.2511  0.9611
 9511TIP3   OH249947   5.351   3.188   2.366 -0.3689  1.0825 -0.0849
 9511TIP3    H149948   5.270   3.138   2.360 -0.1602  0.9307 -3.0078
 9511TIP3    H249949   5.419   3.128   2.336  0.4310  1.9747 -0.1202
 9512TIP3   OH249950   4.592   6.138   0.795 -0.1216 -0.6815  0.1968
 9512TIP3    H149951   4.517   6.191   0.822 -0.1948 -0.5863 -0.1839
 9512TIP3    H249952   4.553   6.064   0.750  0.0343 -0.1647 -0.8193
 9513TIP3   OH249953   5.478   5.943  13.471 -0.2763  0.6143  0.1822
 9513TIP3    H149954   5.418   5.944  13.546 -0.9214 -1.0060 -0.2587
 9513TIP3    H249955   5.559   5.906  13.506 -0.2349  0.8173  0.3027
 9514TIP3   OH249956   0.534   2.421   1.774  0.0550  0.0211 -0.3740
 9514TIP3    H149957   0.517   2.504   1.820  2.4010  0.9406 -0.9968
 9514TIP3    H249958   0.610   2.384   1.819 -0.1846 -1.1428 -0.9098
 9515TIP3   OH249959   0.930   2.813  11.053 -1.1295 -0.4461  0.8149
 9515TIP3    H149960   0.894   2.751  10.990 -1.1360 -0.5156  0.8871
 9515TIP3    H249961   0.876   2.892  11.042 -0.9967 -0.3868  0.5886
 9516TIP3   OH249962   1.249   2.798   4.533  0.4505 -0.4409 -0.2535
 9516TIP3    H149963   1.203   2.737   4.475 -0.0760  0.3076 -0.6440
 9516TIP3    H249964   1.341   2.787   4.510  0.3105 -0.6460 -0.7544
 9517TIP3   OH249965   4.962   0.006   0.090  0.1238  0.4348 -0.1875
 9517TIP3    H149966   5.006   0.055   0.021  0.8933 -1.6794 -1.3193
 9517TIP3    H249967   5.031  -0.014   0.154 -0.4357  1.7806  0.8858
 9518TIP3   OH249968   5.027   5.613  13.142  0.8058 -0.5239 -0.2496
 9518TIP3    H149969   4.966   5.684  13.163  0.5756 -0.8968  0.3935
 9518TIP3    H249970   4.993   5.538  13.190 -0.1804 -1.6706 -2.5967
 9519TIP3   OH249971   5.785   3.529   3.105  0.1635 -0.1924 -0.0436
 9519TIP3    H149972   5.748   3.593   3.044  2.6510  1.5293  0.0970
 9519TIP3    H249973   5.724   3.527   3.178 -0.2126  1.7316 -0.2536
 9520TIP3   OH249974   3.916   0.551   6.483  0.0345 -0.0138  0.2178
 9520TIP3    H149975   3.837   0.502   6.506 -0.5255  0.2703 -1.0471
 9520TIP3    H249976   3.885   0.622   6.428  0.8782  1.5925  1.6973
 9521TIP3   OH249977   1.731   3.784  12.932  0.1834 -0.0029 -0.3797
 9521TIP3    H149978   1.705   3.850  12.867 -0.9458  0.4506  0.5163
 9521TIP3    H249979   1.763   3.836  13.006  1.4965 -0.5204 -0.5560
 9522TIP3   OH249980   0.729   5.802   2.646 -0.0709 -0.0607 -0.2802
 9522TIP3    H149981   0.803   5.820   2.588 -0.5114  0.7613 -0.6034
 9522TIP3    H249982   0.671   5.747   2.593 -0.2942  0.3729 -0.4919
 9523TIP3   OH249983   4.362   1.839   4.126  0.2974 -0.2306  0.0110
 9523TIP3    H149984   4.404   1.785   4.059  0.9698  0.8960 -0.5183
 9523TIP3    H249985   4.269   1.833   4.107  0.5122  0.8533 -1.7080
 9524TIP3   OH249986   5.793   6.268  11.287 -0.3094 -0.0158 -0.1481
 9524TIP3    H149987   5.772   6.337  11.351 -1.5186 -0.3300 -0.1790
 9524TIP3    H249988   5.838   6.201  11.339  0.5619  0.6363 -0.0476
 9525TIP3   OH249989   6.014   4.120   0.200 -0.2296 -0.2548  0.2544
 9525TIP3    H149990   6.045   4.161   0.120  0.3402  0.8919  1.0396
 9525TIP3    H249991   6.092   4.109   0.253 -0.7449 -0.0173  1.0793
 9526TIP3   OH249992   3.944   2.805   0.288  0.5975  0.0135 -0.0895
 9526TIP3    H149993   3.929   2.748   0.212 -0.5753 -0.7470  0.6737
 9526TIP3    H249994   3.867   2.862   0.290  0.5085 -0.1250  0.6580
 9527TIP3   OH249995   0.261   1.177  12.050 -1.0704  0.4884 -0.4090
 9527TIP3    H149996   0.232   1.112  11.986 -1.5242  0.7086 -0.4249
 9527TIP3    H249997   0.351   1.197  12.024 -1.4806  1.1127 -1.4312
 9528TIP3   OH249998   5.918   1.080   2.703  0.1774  0.3567  0.1632
 9528TIP3    H149999   5.852   1.124   2.650  2.2869  0.8207 -2.2309
 9528TIP3    H250000   5.909   0.987   2.680 -0.0986  0.3182  0.4126
 9529TIP3   OH250001   1.090   0.468  15.812  0.2839  0.0672  0.1383
 9529TIP3    H150002   1.136   0.416  15.878  0.1702 -0.7169 -0.3920
 9529TIP3    H250003   1.156   0.530  15.781  1.1949 -1.4349 -1.0373
 9530TIP3   OH250004   3.590   1.655  13.493  0.0071 -0.1831  0.0674
 9530TIP3    H150005   3.630   1.601  13.426  1.2794  0.7613  0.0124
 9530TIP3    H250006   3.602   1.606  13.574  0.7694 -0.1811 -0.0376
 9531TIP3   OH250007   1.691   3.404  11.381  0.4025 -0.1362  0.4823
 9531TIP3    H150008   1.702   3.446  11.467 -1.0710 -1.0935  1.1682
 9531TIP3    H250009   1.622   3.455  11.338 -0.8611 -1.3283  1.0221
 9532TIP3   OH250010   1.521   1.618   6.302 -0.5644 -0.0062 -0.0517
 9532TIP3    H150011   1.427   1.602   6.288 -0.4984 -1.0662  0.6613
 9532TIP3    H250012   1.530   1.624   6.397 -0.0633  1.2086 -0.1518
 9533TIP3   OH250013   4.974   1.408   6.389  0.3997 -0.3592  0.6510
 9533TIP3    H150014   4.964   1.327   6.339 -0.5556  0.9632 -1.4600
 9533TIP3    H250015   4.923   1.394   6.469 -1.5925 -1.1081 -0.6759
 9534TIP3   OH250016   2.438   5.304  14.814 -0.0689 -0.2922  0.4326
 9534TIP3    H150017   2.447   5.259  14.898 -0.5129  0.4940  0.9110
 9534TIP3    H250018   2.392   5.386  14.835  0.3837  0.2108 -0.4771
 9535TIP3   OH250019   5.760   0.811   4.135  0.3599 -0.3565 -0.7284
 9535TIP3    H150020   5.714   0.790   4.054  0.4943 -2.9760 -0.2268
 9535TIP3    H250021   5.805   0.893   4.117 -1.2254  0.1932 -2.5925
 9536TIP3   OH250022   2.893   4.836  14.340 -0.2901 -0.1962 -0.7435
 9536TIP3    H150023   2.820   4.862  14.396  0.8746  1.1132  0.2589
 9536TIP3    H250024   2.943   4.917  14.328  0.4798 -0.8556 -2.1903
 9537TIP3   OH250025   3.968   4.208   6.425 -0.4954  0.0799 -0.5072
 9537TIP3    H150026   4.042   4.176   6.374 -0.9342 -2.3807  0.2713
 9537TIP3    H250027   4.007   4.244   6.505 -0.0479  0.3765 -0.8563
 9538TIP3   OH250028   5.001   3.852   1.755  0.5415  0.6873 -0.1730
 9538TIP3    H150029   4.936   3.814   1.695  1.7860 -1.3142 -0.3322
 9538TIP3    H250030   4.948   3.892   1.825 -0.8762  0.4965 -1.0981
 9539TIP3   OH250031   1.179   0.309  13.125 -0.0265  0.2559 -0.0934
 9539TIP3    H150032   1.265   0.295  13.165  0.8444  0.4032 -1.8249
 9539TIP3    H250033   1.171   0.404  13.116 -0.3273  0.2387  0.0025
 9540TIP3   OH250034   4.196   0.550   2.906  0.0858 -0.0956  0.9770
 9540TIP3    H150035   4.260   0.550   2.834  0.4235 -0.8704  1.2615
 9540TIP3    H250036   4.195   0.459   2.936 -0.0991  0.2098  1.9127
 9541TIP3   OH250037   1.970   1.601   0.987 -0.2157  0.4911 -0.3133
 9541TIP3    H150038   2.006   1.513   0.975  0.2996  0.5837  0.5006
 9541TIP3    H250039   2.025   1.641   1.054 -1.6003  0.7714  0.6905
 9542TIP3   OH250040   2.207   6.812  11.392  0.7235 -0.2371 -0.4390
 9542TIP3    H150041   2.244   6.757  11.461  1.2126 -1.0706 -1.3348
 9542TIP3    H250042   2.268   6.887  11.386 -0.1158  0.6113  0.9946
 9543TIP3   OH250043   6.390   0.390   5.454  0.2339  0.0152  0.4558
 9543TIP3    H150044   6.348   0.467   5.492  0.5652  0.3490  0.1500
 9543TIP3    H250045   6.442   0.353   5.526 -0.2522 -0.1624  0.7176
 9544TIP3   OH250046   0.316   0.412  16.818  0.3287  0.7185  0.4384
 9544TIP3    H150047   0.353   0.497  16.838  2.3608  0.6798 -2.5501
 9544TIP3    H250048   0.391   0.357  16.796 -1.0578 -1.3985  0.6029
 9545TIP3   OH250049   1.890   1.874   6.767  0.0542  0.3112 -0.5269
 9545TIP3    H150050   1.881   1.941   6.699  0.2463  0.3104 -0.5541
 9545TIP3    H250051   1.983   1.853   6.768  0.2036  0.9846  0.3796
 9546TIP3   OH250052   6.361   0.825   3.759 -0.4429  0.3460  0.1222
 9546TIP3    H150053   6.456   0.826   3.768 -0.3739  1.6654 -0.6120
 9546TIP3    H250054   6.342   0.751   3.702  0.1048 -0.1731  0.6087
 9547TIP3   OH250055   1.013   1.677   5.392  0.1965 -0.4353 -0.3326
 9547TIP3    H150056   1.038   1.680   5.484 -2.1384 -1.6235  0.4235
 9547TIP3    H250057   1.065   1.746   5.351  0.7125  0.6781  2.0162
 9548TIP3   OH250058   5.107   6.734   3.685  0.0801  0.0265 -0.6972
 9548TIP3    H150059   5.014   6.753   3.698 -0.2002 -1.2733 -0.6068
 9548TIP3    H250060   5.148   6.756   3.769  0.1095  1.9329 -1.1836
 9549TIP3   OH250061   0.894   6.215   3.487  0.6808 -0.2178 -0.4978
 9549TIP3    H150062   0.872   6.172   3.569  1.2743  0.5888  0.0958
 9549TIP3    H250063   0.825   6.280   3.474  0.3237 -0.6661 -0.8935
 9550TIP3   OH250064   1.444   2.137   6.295 -0.1657  0.6204 -0.0927
 9550TIP3    H150065   1.413   2.197   6.363 -0.3911  0.9618 -0.4878
 9550TIP3    H250066   1.408   2.052   6.320  1.9206  0.1835  1.6510
 9551TIP3   OH250067   4.096   5.209   4.703  0.3719  0.2110 -0.0825
 9551TIP3    H150068   4.135   5.297   4.711  0.4597  0.1156  0.5715
 9551TIP3    H250069   4.158   5.151   4.747  0.4379 -0.2257 -0.7300
 9552TIP3   OH250070   1.090   6.284  15.960  0.5983 -0.3599 -0.1246
 9552TIP3    H150071   1.007   6.322  15.987 -0.0067 -1.0232 -1.0026
 9552TIP3    H250072   1.096   6.302  15.867  2.6845  1.9264  0.3585
 9553TIP3   OH250073   6.429   0.536   4.134  0.0155  0.1744  0.7762
 9553TIP3    H150074   6.411   0.524   4.041 -0.7583 -0.9527  1.0550
 9553TIP3    H250075   6.350   0.577   4.168  0.1796  0.3063  1.0006
 9554TIP3   OH250076   4.355   3.954   5.947  0.1744 -0.1150  0.3806
 9554TIP3    H150077   4.340   3.945   5.853 -0.4889  0.0987  0.4615
 9554TIP3    H250078   4.430   3.898   5.965  0.0720 -0.4468 -0.2137
 9555TIP3   OH250079   1.225   3.234   3.337 -0.1670 -0.1055  0.0008
 9555TIP3    H150080   1.225   3.305   3.272 -0.3763 -1.9448 -2.1392
 9555TIP3    H250081   1.302   3.250   3.390  2.1439 -0.3878 -3.0024
 9556TIP3   OH250082   1.746   0.649  16.511  0.1600 -0.3850  0.4194
 9556TIP3    H150083   1.764   0.591  16.585 -0.8596 -1.1533  0.0968
 9556TIP3    H250084   1.668   0.611  16.470  1.0799 -0.3647 -1.4478
 9557TIP3   OH250085   1.636   0.692  13.972  0.0149 -0.8377 -0.2935
 9557TIP3    H150086   1.687   0.772  13.971 -0.3546 -0.6004 -0.4644
 9557TIP3    H250087   1.556   0.714  14.021 -0.7133 -0.6926 -1.4958
 9558TIP3   OH250088   5.716   4.911   5.700 -0.1817  0.0556  0.4890
 9558TIP3    H150089   5.705   4.901   5.795 -2.7498  1.3515  0.4137
 9558TIP3    H250090   5.751   5.000   5.690 -0.6374  0.2043  0.2068
 9559TIP3   OH250091   2.296   0.242   3.973  0.4994 -0.3419 -0.9983
 9559TIP3    H150092   2.298   0.217   3.881 -0.5565  0.6384 -1.3179
 9559TIP3    H250093   2.226   0.307   3.978  0.2738 -0.6664  0.5721
 9560TIP3   OH250094   2.458   3.002   1.273 -0.2248 -0.4839 -0.1602
 9560TIP3    H150095   2.479   3.096   1.277 -0.9332 -0.3615  2.8947
 9560TIP3    H250096   2.543   2.959   1.267  0.1671  0.2917 -0.4232
 9561TIP3   OH250097   2.801   2.236  15.481 -0.1834 -0.2705 -0.3506
 9561TIP3    H150098   2.819   2.145  15.459 -1.1476 -0.0653 -2.1646
 9561TIP3    H250099   2.886   2.273  15.505  0.3647 -1.3858 -0.5124
 9562TIP3   OH250100   4.956   5.133   0.921  0.1774  0.1252 -0.1427
 9562TIP3    H150101   5.045   5.156   0.894  1.8237 -2.7263  2.2707
 9562TIP3    H250102   4.925   5.075   0.852  0.4433  0.5352 -0.6220
 9563TIP3   OH250103   6.699   4.437   3.680 -0.2605  0.4557  0.3810
 9563TIP3    H150104   6.736   4.364   3.729 -1.8388 -0.5298  0.1770
 9563TIP3    H250105   6.775   4.486   3.648  0.8322 -0.9477  0.7434
 9564TIP3   OH250106   0.306   0.402   4.499  0.1109  0.3370 -0.4796
 9564TIP3    H150107   0.373   0.431   4.562 -0.5441 -0.9020  0.8413
 9564TIP3    H250108   0.357   0.373   4.423  0.9765  0.8564 -0.1268
 9565TIP3   OH250109   1.545   2.480   1.484  0.2829  0.0303  0.1753
 9565TIP3    H150110   1.558   2.493   1.390  1.9711 -0.6886  0.2781
 9565TIP3    H250111   1.468   2.534   1.504 -1.9540 -1.9984 -2.1141
 9566TIP3   OH250112   0.928   2.058   5.425 -0.0511 -0.2868 -0.2889
 9566TIP3    H150113   0.847   2.040   5.378 -0.6475  1.4390  0.0484
 9566TIP3    H250114   0.901   2.106   5.503  0.8749 -3.3003  2.0904
 9567TIP3   OH250115   0.555   5.833   5.078 -0.0965  0.6447  0.0804
 9567TIP3    H150116   0.575   5.740   5.089 -0.4801  0.0295 -3.3988
 9567TIP3    H250117   0.486   5.850   5.143  0.1528 -1.3999  0.9669
 9568TIP3   OH250118   0.878   3.326  13.806  0.2906 -0.0064 -0.0591
 9568TIP3    H150119   0.799   3.274  13.794  0.7991 -0.7584 -0.1642
 9568TIP3    H250120   0.869   3.398  13.742  0.0888 -0.5566 -0.6598
 9569TIP3   OH250121   1.086   1.399  12.069  0.3865 -0.8531  0.2002
 9569TIP3    H150122   1.015   1.393  12.133 -0.0851 -0.3172 -0.2575
 9569TIP3    H250123   1.083   1.316  12.022 -1.6161  0.0882 -1.5093
 9570TIP3   OH250124   6.001   4.864  15.238  0.7051  0.0438 -0.1175
 9570TIP3    H150125   6.052   4.790  15.272  2.0461  0.3058 -1.4882
 9570TIP3    H250126   5.950   4.828  15.166 -0.5298 -0.0411  0.7520
 9571TIP3   OH250127   5.723   1.309   1.883 -0.8701  0.0512  0.3135
 9571TIP3    H150128   5.731   1.297   1.978 -1.4017  0.1513  0.3742
 9571TIP3    H250129   5.658   1.244   1.856 -1.7975  0.9761  0.2448
 9572TIP3   OH250130   4.709   2.956  11.157  0.0107 -0.0032  0.0434
 9572TIP3    H150131   4.725   2.886  11.094 -0.4588  1.0374 -1.2987
 9572TIP3    H250132   4.648   2.918  11.220  0.3686 -1.0275 -0.2127
 9573TIP3   OH250133   0.025   6.032  16.277 -0.1480 -0.6494 -0.1263
 9573TIP3    H150134   0.030   6.049  16.183  0.4152  2.6389  0.3883
 9573TIP3    H250135  -0.067   6.048  16.300 -0.2227 -1.1578 -0.0639
 9574TIP3   OH250136   3.242   0.981  15.197 -0.1183  0.2482  0.0734
 9574TIP3    H150137   3.294   1.044  15.148  0.7727 -0.7379 -0.2830
 9574TIP3    H250138   3.307   0.927  15.242 -0.8926  0.4750  1.5203
 9575TIP3   OH250139   0.745   1.541  16.235 -0.0921  0.0687  0.4815
 9575TIP3    H150140   0.813   1.577  16.291  0.2165 -1.4745  1.1403
 9575TIP3    H250141   0.780   1.458  16.204 -0.6697  0.4162 -1.2111
 9576TIP3   OH250142   4.984   1.756   2.235  0.1492  0.3316 -0.3784
 9576TIP3    H150143   4.942   1.763   2.321 -0.4635  2.8063 -0.8045
 9576TIP3    H250144   5.062   1.703   2.251 -1.6403 -2.1020  0.9911
 9577TIP3   OH250145   0.777   3.677  16.013 -0.2046  0.3397 -0.2501
 9577TIP3    H150146   0.691   3.694  16.050  0.5623  0.9082  1.3204
 9577TIP3    H250147   0.801   3.758  15.968 -0.4211  0.2246 -0.5787
 9578TIP3   OH250148   3.951   5.628   3.011 -0.0703  0.4353 -0.2355
 9578TIP3    H150149   4.033   5.677   3.016 -0.5129  1.1036  0.6234
 9578TIP3    H250150   3.883   5.693   3.028 -0.8082 -0.0498 -1.2627
 9579TIP3   OH250151   6.635   3.009   4.314 -0.5353  0.1739 -0.0563
 9579TIP3    H150152   6.602   2.951   4.382 -0.9373 -0.4530 -0.7733
 9579TIP3    H250153   6.576   2.996   4.240  0.8442 -0.3965 -1.0994
 9580TIP3   OH250154   1.553   0.151  11.152  0.6195  0.7394 -0.1418
 9580TIP3    H150155   1.576   0.218  11.087  1.5058 -1.9603 -2.8758
 9580TIP3    H250156   1.636   0.126  11.191  0.6623 -0.4183 -0.9372
 9581TIP3   OH250157   2.274   0.390   0.129  0.4728  0.2227  0.3253
 9581TIP3    H150158   2.221   0.461   0.165 -0.4180 -0.6302  0.7137
 9581TIP3    H250159   2.235   0.371   0.044 -0.5860 -1.1715  1.0914
 9582TIP3   OH250160   2.776   0.091  16.421  0.1578 -0.4645 -0.0220
 9582TIP3    H150161   2.795   0.176  16.381 -1.2756 -0.5732 -1.0022
 9582TIP3    H250162   2.700   0.108  16.477 -1.0004 -1.3230 -1.2496
 9583TIP3   OH250163   0.525   2.548  12.026  0.1303  0.0559 -0.3880
 9583TIP3    H150164   0.543   2.538  12.119 -0.6311 -0.2110 -0.2672
 9583TIP3    H250165   0.503   2.460  11.995  0.9620  0.0324 -0.9523
 9584TIP3   OH250166   0.465   2.957   4.478 -0.0459 -0.0457 -0.2632
 9584TIP3    H150167   0.542   3.007   4.450 -0.1027  0.5123  0.5364
 9584TIP3    H250168   0.391   3.011   4.450 -0.0992  0.7114  1.2514
 9585TIP3   OH250169   4.747   4.076   3.936 -0.0147 -0.4127 -0.2146
 9585TIP3    H150170   4.653   4.060   3.935 -0.0661 -0.3813  1.2804
 9585TIP3    H250171   4.782   4.025   3.863 -1.2393 -0.0044 -1.1118
 9586TIP3   OH250172   3.241   1.958  12.318  0.1546 -0.0138  1.4051
 9586TIP3    H150173   3.175   2.019  12.351  2.0649  1.8768  1.9915
 9586TIP3    H250174   3.322   2.011  12.313  1.0690 -1.4628 -1.8057
 9587TIP3   OH250175   2.044   1.588  13.618 -0.1348 -0.4389 -0.3801
 9587TIP3    H150176   2.005   1.653  13.559 -0.5710 -0.7950 -0.4919
 9587TIP3    H250177   1.970   1.553  13.668  0.1241 -0.7080 -0.1802
 9588TIP3   OH250178   1.211   1.234   2.372 -0.0792  0.0880  0.2944
 9588TIP3    H150179   1.169   1.246   2.457  1.3839  1.9004  0.8296
 9588TIP3    H250180   1.273   1.162   2.387  0.2626  0.4830  0.8005
 9589TIP3   OH250181   3.677   5.608  14.750 -0.0056  0.5145 -0.1873
 9589TIP3    H150182   3.653   5.699  14.767 -0.1149  0.7673 -1.5784
 9589TIP3    H250183   3.760   5.614  14.702 -0.0483 -0.1095 -0.3439
 9590TIP3   OH250184   2.227   0.155   1.308 -0.3114  0.7381  0.2388
 9590TIP3    H150185   2.218   0.224   1.242  3.0696  0.7044 -0.4339
 9590TIP3    H250186   2.271   0.083   1.261 -1.7790 -1.0711  1.4765
 9591TIP3   OH250187   2.249   4.157  13.809 -0.5471  0.2160  0.4797
 9591TIP3    H150188   2.312   4.085  13.813 -1.7006 -0.8585  0.2966
 9591TIP3    H250189   2.299   4.235  13.831  1.2845 -0.2939 -1.5820
 9592TIP3   OH250190   3.535   6.301  16.605 -0.1366  0.1201 -0.7706
 9592TIP3    H150191   3.621   6.297  16.562  0.1547 -1.0548 -0.1256
 9592TIP3    H250192   3.494   6.380  16.570  1.2605  0.7752 -0.9869
 9593TIP3   OH250193   5.737   4.908  14.640 -0.0653 -0.8975 -0.6030
 9593TIP3    H150194   5.820   4.949  14.616  1.1103 -2.5358  0.4109
 9593TIP3    H250195   5.755   4.814  14.635 -2.1069 -1.3081 -1.0961
 9594TIP3   OH250196   0.674   4.640  17.013  0.1023  0.2838 -0.5023
 9594TIP3    H150197   0.666   4.651  16.918  0.4141  0.5020 -0.5058
 9594TIP3    H250198   0.765   4.614  17.026  0.2044  0.7748 -0.2183
 9595TIP3   OH250199   0.147   2.757  11.495  0.4925  0.0295  0.3446
 9595TIP3    H150200   0.157   2.702  11.417  0.0814  1.0603 -0.4507
 9595TIP3    H250201   0.235   2.764  11.531  0.9707  0.7724 -0.8943
 9596TIP3   OH250202   3.653   5.027   2.972  0.3669  0.0805 -0.0619
 9596TIP3    H150203   3.644   5.045   2.878 -0.8294 -1.7553 -0.3596
 9596TIP3    H250204   3.604   5.098   3.014  0.8014  0.8506 -0.8169
 9597TIP3   OH250205   4.993   4.112   0.521 -0.2715  0.7930  0.2936
 9597TIP3    H150206   4.935   4.060   0.465 -0.9172  1.2218  0.5502
 9597TIP3    H250207   5.074   4.121   0.470 -0.2646 -0.1891  0.1195
 9598TIP3   OH250208   4.102   0.173   0.190  0.0431  0.6397 -0.7447
 9598TIP3    H150209   4.032   0.153   0.127 -0.5836  0.1526  0.0906
 9598TIP3    H250210   4.093   0.106   0.257  1.9393 -0.0197 -1.1016
 9599TIP3   OH250211   2.689   3.025  15.619  0.0652 -0.1241 -0.3565
 9599TIP3    H150212   2.751   3.006  15.690 -1.3542 -0.4413  0.8571
 9599TIP3    H250213   2.731   2.990  15.541  1.1457 -0.8677  0.5178
 9600TIP3   OH250214   6.521   1.598  10.807 -0.5441 -0.3197 -0.0142
 9600TIP3    H150215   6.527   1.670  10.870 -2.2971  0.3376 -0.5306
 9600TIP3    H250216   6.542   1.638  10.722  1.5192 -1.1354  0.0671
 9601TIP3   OH250217   3.428   3.527  11.521 -0.1695 -0.1962 -0.2003
 9601TIP3    H150218   3.415   3.619  11.498 -2.1017 -0.0617  1.2299
 9601TIP3    H250219   3.404   3.479  11.442 -0.2406  0.4824 -0.5979
 9602TIP3   OH250220   6.624   0.494   6.169  0.2874  0.1351 -0.0544
 9602TIP3    H150221   6.574   0.488   6.088  0.5563 -0.3784 -0.1866
 9602TIP3    H250222   6.561   0.474   6.238 -0.1335  1.3498 -0.0590
 9603TIP3   OH250223   1.486   1.967  10.575  0.0356 -0.2086  0.1917
 9603TIP3    H150224   1.566   2.019  10.562  1.3263 -1.0554  3.7690
 9603TIP3    H250225   1.433   2.020  10.634  1.3039 -2.5543  3.7854
 9604TIP3   OH250226   1.858   4.772  16.157 -0.0299  0.1009  0.8997
 9604TIP3    H150227   1.898   4.731  16.234 -0.4424 -0.4457  0.8192
 9604TIP3    H250228   1.913   4.745  16.084  0.9951  1.4653  1.1052
 9605TIP3   OH250229   6.618   0.841  16.533 -0.3916  0.3897 -0.0107
 9605TIP3    H150230   6.690   0.886  16.579  0.9573 -1.1385 -0.5184
 9605TIP3    H250231   6.629   0.749  16.555 -1.6440  0.0057 -0.8745
 9606TIP3   OH250232   0.825   4.577   1.027  0.4390  0.3346 -0.3458
 9606TIP3    H150233   0.743   4.553   0.983 -0.1098 -1.6190  1.6238
 9606TIP3    H250234   0.893   4.534   0.975 -0.0586 -0.6594 -0.1900
 9607TIP3   OH250235   5.604   3.865  13.134  0.6493  0.1694 -0.3983
 9607TIP3    H150236   5.639   3.954  13.143 -1.7960  1.1266  0.4212
 9607TIP3    H250237   5.675   3.815  13.093  2.4092  2.2706 -0.0662
 9608TIP3   OH250238   0.899   3.550  15.652  0.5437 -0.0627  0.3952
 9608TIP3    H150239   0.914   3.455  15.644  1.5663  0.1608 -0.5991
 9608TIP3    H250240   0.985   3.589  15.641 -0.2801  1.1778 -3.1216
 9609TIP3   OH250241   2.697   1.698  15.602 -0.4986 -0.3719  0.1685
 9609TIP3    H150242   2.622   1.725  15.549 -0.6435 -0.8218  0.1366
 9609TIP3    H250243   2.697   1.602  15.596 -0.3616 -0.4158  0.7668
 9610TIP3   OH250244   4.394   1.898  16.792  0.1020  0.0292  0.0679
 9610TIP3    H150245   4.484   1.919  16.769 -0.1191  2.5862  1.1951
 9610TIP3    H250246   4.396   1.805  16.813  1.6927 -0.8296 -3.2052
 9611TIP3   OH250247   3.297   2.658   4.523 -0.1861  0.2209 -0.2349
 9611TIP3    H150248   3.371   2.604   4.554 -1.2610 -0.2243  1.7297
 9611TIP3    H250249   3.268   2.615   4.443  0.5779 -0.6513 -0.0644
 9612TIP3   OH250250   4.005   6.773  14.166 -0.1035 -0.1904 -0.5325
 9612TIP3    H150251   3.965   6.794  14.251  0.9593 -0.8455  0.1565
 9612TIP3    H250252   4.098   6.791  14.179  0.1486 -0.8460 -1.3874
 9613TIP3   OH250253   5.761   2.969  16.342  0.2340 -0.1216  0.3347
 9613TIP3    H150254   5.796   2.888  16.305  1.4444 -0.5708  2.2844
 9613TIP3    H250255   5.700   2.940  16.410 -0.7124  0.6441 -0.1674
 9614TIP3   OH250256   3.052   2.599  12.694  0.1335 -0.0781  0.8444
 9614TIP3    H150257   3.049   2.692  12.716 -1.9546  0.1325 -0.1326
 9614TIP3    H250258   3.041   2.555  12.778 -2.6652  0.6569  0.9772
 9615TIP3   OH250259   5.174   4.735  16.417  0.1734 -0.1867  0.3256
 9615TIP3    H150260   5.255   4.729  16.366  0.9414  2.5405  1.0727
 9615TIP3    H250261   5.127   4.654  16.395  2.9633 -1.8101 -0.2769
 9616TIP3   OH250262   6.494   6.021  15.328 -0.3050 -0.7224  0.1711
 9616TIP3    H150263   6.455   6.079  15.394  0.5504 -0.0677  0.1059
 9616TIP3    H250264   6.588   6.023  15.346 -0.1058 -0.8880 -0.7839
 9617TIP3   OH250265   1.987   2.302   1.537  0.3837 -0.0525 -0.0734
 9617TIP3    H150266   1.905   2.322   1.582  0.2925 -1.0423  0.2195
 9617TIP3    H250267   2.024   2.388   1.515  0.1145  0.4366  1.3077
 9618TIP3   OH250268   6.355   0.479   2.439  0.1109  0.4808  0.7596
 9618TIP3    H150269   6.277   0.532   2.455 -2.4496 -2.9265  0.7428
 9618TIP3    H250270   6.348   0.454   2.347  1.9677  1.1117  0.4168
 9619TIP3   OH250271   3.180   0.247  14.853 -0.1180 -0.4580 -0.0848
 9619TIP3    H150272   3.101   0.281  14.812 -0.1251  0.2595  0.5173
 9619TIP3    H250273   3.246   0.249  14.784 -0.5912 -0.9475 -0.5545
 9620TIP3   OH250274   2.994   0.269  16.151  0.5163  0.3736 -0.6430
 9620TIP3    H150275   3.076   0.296  16.192  0.9989  0.3630 -1.5780
 9620TIP3    H250276   3.012   0.182  16.116 -0.6592 -0.7229  1.2847
 9621TIP3   OH250277   3.733   1.777  16.875  0.4776 -0.6509 -0.1175
 9621TIP3    H150278   3.703   1.761  16.785  0.6275 -0.2994 -0.2315
 9621TIP3    H250279   3.790   1.703  16.894  1.5089 -0.0616 -0.7999
 9622TIP3   OH250280   1.508   0.085  15.017  0.0178 -0.4007 -0.1418
 9622TIP3    H150281   1.592   0.123  15.041 -0.5517  0.8284 -0.0335
 9622TIP3    H250282   1.480   0.037  15.094 -0.2181  0.7069  0.4797
 9623TIP3   OH250283   1.586   0.282   4.360 -0.2945 -0.3167  0.3282
 9623TIP3    H150284   1.614   0.254   4.272 -1.4009  0.8429 -0.4299
 9623TIP3    H250285   1.662   0.325   4.398  1.3712 -3.7878  1.3860
 9624TIP3   OH250286   3.837   3.515  11.725  0.7100  0.0982 -0.1399
 9624TIP3    H150287   3.743   3.502  11.719  0.4078  1.3664  1.1832
 9624TIP3    H250288   3.874   3.426  11.722 -0.4712 -0.3885 -1.0509
 9625TIP3   OH250289   2.241   3.944  14.291 -0.2983 -0.5381  0.1680
 9625TIP3    H150290   2.184   3.949  14.368  0.2435  0.8687  0.5158
 9625TIP3    H250291   2.183   3.959  14.217 -0.2362  2.5678  0.6172
 9626TIP3   OH250292   3.157   1.174  14.862  0.2128 -0.2288 -0.3752
 9626TIP3    H150293   3.136   1.195  14.953 -0.1654  1.5742 -0.8436
 9626TIP3    H250294   3.148   1.257  14.816  0.2203 -1.1503 -2.1006
 9627TIP3   OH250295   6.246   6.152  14.944 -0.1712  0.2220 -0.3480
 9627TIP3    H150296   6.286   6.199  15.017  0.0727  1.4426 -1.2321
 9627TIP3    H250297   6.206   6.075  14.984 -0.0041  0.8311  1.0576
 9628TIP3   OH250298   2.835   3.685  14.483  0.1876 -0.3283 -0.1535
 9628TIP3    H150299   2.927   3.689  14.460 -0.1498  0.1898 -1.5108
 9628TIP3    H250300   2.819   3.593  14.503  0.7973 -0.5760 -0.7961
 9629TIP3   OH250301   2.664   5.496   1.434  0.8003 -0.2985  0.4723
 9629TIP3    H150302   2.575   5.465   1.449  0.3181  1.3268  1.1017
 9629TIP3    H250303   2.701   5.507   1.522  0.8709  1.0784  0.2965
 9630TIP3   OH250304   6.777   3.360  11.062  0.5915 -0.1621 -0.3303
 9630TIP3    H150305   6.844   3.373  10.996  0.5943  0.2953 -0.2435
 9630TIP3    H250306   6.776   3.442  11.112 -0.8470  0.3144 -1.0791
 9631TIP3   OH250307   3.499   3.435   3.354  0.2692  0.5976  0.4915
 9631TIP3    H150308   3.479   3.487   3.431  1.1205  0.4799  0.8079
 9631TIP3    H250309   3.582   3.470   3.322  0.6219 -0.2480  0.4425
 9632TIP3   OH250310   4.036   0.473  14.658 -0.0978  1.1309  0.4666
 9632TIP3    H150311   3.976   0.440  14.591  0.0821  3.6805 -1.1084
 9632TIP3    H250312   4.094   0.400  14.677 -0.8453 -0.0127 -1.3793
 9633TIP3   OH250313   1.987   2.244   4.853  0.2241  0.6361  0.4464
 9633TIP3    H150314   2.011   2.304   4.783  1.8389 -0.3835  0.0571
 9633TIP3    H250315   1.896   2.221   4.836  0.1769  1.4815 -0.4999
 9634TIP3   OH250316   1.511   0.651  14.620  0.3102 -0.3063  0.1394
 9634TIP3    H150317   1.458   0.641  14.541  1.7629  2.0041 -1.2585
 9634TIP3    H250318   1.452   0.690  14.684 -0.5287 -0.8794 -0.2769
 9635TIP3   OH250319   3.000   4.131  12.576 -0.0528 -0.2000  0.0185
 9635TIP3    H150320   2.997   4.220  12.610  0.3768  1.0153 -2.8092
 9635TIP3    H250321   2.908   4.108  12.563 -0.2667 -0.9549  2.4033
 9636TIP3   OH250322   1.486   1.940  13.154  0.4896 -0.2763  0.0564
 9636TIP3    H150323   1.422   1.936  13.083 -0.2181  0.1004  0.6618
 9636TIP3    H250324   1.480   1.855  13.197 -0.0329 -0.0367  0.4704
 9637TIP3   OH250325   0.593   5.756  13.267  0.2646  0.7723 -0.6543
 9637TIP3    H150326   0.657   5.732  13.335  0.5424  1.0997 -0.7980
 9637TIP3    H250327   0.633   5.725  13.186  0.8418  2.0882 -0.9047
 9638TIP3   OH250328   0.173   3.856   4.716  0.1418  0.4223  0.2394
 9638TIP3    H150329   0.237   3.885   4.651  0.1172  0.0604  0.0504
 9638TIP3    H250330   0.201   3.899   4.798  1.6751 -1.0778  0.5636
 9639TIP3   OH250331   3.304   3.798   5.944  0.0553 -0.1059  0.5860
 9639TIP3    H150332   3.327   3.764   6.031 -1.1125 -0.9290  0.5937
 9639TIP3    H250333   3.388   3.812   5.901  0.6643  0.7168  1.9960
 9640TIP3   OH250334   6.500   4.573  15.027 -0.6053 -0.1977 -0.3551
 9640TIP3    H150335   6.454   4.534  14.953  1.6155 -1.3786 -1.2009
 9640TIP3    H250336   6.540   4.653  14.991  0.6093 -0.8545 -0.5369
 9641TIP3   OH250337   3.832   3.452  10.738 -0.1438 -0.1566  0.0529
 9641TIP3    H150338   3.892   3.490  10.802 -2.8117  1.0839  2.0135
 9641TIP3    H250339   3.883   3.450  10.656  3.6293 -2.3881  2.1743
 9642TIP3   OH250340   4.275   2.165   4.798 -0.9488 -0.2346 -0.2477
 9642TIP3    H150341   4.191   2.208   4.785 -1.3610 -0.7544  0.6159
 9642TIP3    H250342   4.260   2.074   4.773 -0.5768 -0.2844 -0.3010
 9643TIP3   OH250343   0.829   3.018   0.765  0.6228  0.3476 -0.2828
 9643TIP3    H150344   0.862   3.100   0.802  0.0106  1.3945 -1.9468
 9643TIP3    H250345   0.787   2.974   0.839 -0.6389  2.3823  0.2792
 9644TIP3   OH250346   4.073   5.842  14.114  0.0703  0.2177 -0.6557
 9644TIP3    H150347   4.069   5.853  14.019  1.3445  0.7223 -0.6735
 9644TIP3    H250348   4.059   5.749  14.128 -2.1999  0.4247 -1.1667
 9645TIP3   OH250349   6.606   1.459  13.415  0.1827 -0.1191 -0.0626
 9645TIP3    H150350   6.546   1.410  13.359 -0.5459  1.3951 -0.6544
 9645TIP3    H250351   6.552   1.485  13.490  0.8996 -1.2932  0.8880
 9646TIP3   OH250352   2.459   5.410   4.554  0.1438  0.1741  0.2281
 9646TIP3    H150353   2.552   5.389   4.564  0.2072  0.6900  0.8029
 9646TIP3    H250354   2.443   5.478   4.620 -0.4555  0.6469 -0.3917
 9647TIP3   OH250355   3.739   6.541  16.539  0.2781 -0.3633  0.2398
 9647TIP3    H150356   3.694   6.579  16.615  1.3158  1.6067 -0.0628
 9647TIP3    H250357   3.693   6.576  16.463  1.9189  1.3492 -0.0672
 9648TIP3   OH250358   4.053   3.015   2.077 -0.7278 -0.0781 -0.4947
 9648TIP3    H150359   4.095   3.052   2.155 -1.4657  0.0275 -0.1401
 9648TIP3    H250360   4.031   2.925   2.103  2.2327 -1.3002 -1.7697
 9649TIP3   OH250361   1.528   1.713  12.739 -0.1011  0.1465  0.0956
 9649TIP3    H150362   1.525   1.641  12.802  0.3318  0.4202  0.4327
 9649TIP3    H250363   1.468   1.686  12.669  1.0031 -1.1083 -0.4013
 9650TIP3   OH250364   1.716   6.314  16.337  0.2449  0.1169 -0.2012
 9650TIP3    H150365   1.728   6.226  16.301 -1.5954 -0.2112 -0.0985
 9650TIP3    H250366   1.793   6.362  16.308  0.6498 -1.1711 -1.3774
 9651TIP3   OH250367   3.243   2.854  15.833 -0.6309 -0.3492  0.7390
 9651TIP3    H150368   3.238   2.802  15.753 -1.4624 -1.0039  1.2039
 9651TIP3    H250369   3.288   2.934  15.806 -1.9842 -0.0151 -0.6792
 9652TIP3   OH250370   4.524   1.365   2.232 -0.0161  0.3151  0.0133
 9652TIP3    H150371   4.596   1.401   2.284  0.2932 -0.4829  0.1438
 9652TIP3    H250372   4.456   1.345   2.297  0.0227  0.1614  0.0070
 9653TIP3   OH250373   5.261   3.773   6.579 -0.7298 -0.1447 -0.0103
 9653TIP3    H150374   5.172   3.739   6.592 -0.5325 -0.2318  1.2934
 9653TIP3    H250375   5.250   3.849   6.523 -1.8032  0.5648  1.1059
 9654TIP3   OH250376   4.494   3.540  13.620 -0.3133 -0.2263 -0.4951
 9654TIP3    H150377   4.474   3.614  13.677 -1.3024  0.6227 -1.8758
 9654TIP3    H250378   4.452   3.465  13.663  1.1796 -0.1387  1.2095
 9655TIP3   OH250379   6.399   6.083  10.792  0.3192 -0.0850  0.2353
 9655TIP3    H150380   6.387   6.174  10.818  0.0746 -0.5121  1.7472
 9655TIP3    H250381   6.310   6.049  10.784  0.4045 -0.6251  1.3982
 9656TIP3   OH250382   2.903   0.753   2.421 -0.0505 -0.5643 -0.4467
 9656TIP3    H150383   2.975   0.778   2.479  0.0752  0.8678 -1.1860
 9656TIP3    H250384   2.942   0.690   2.361  1.7631  2.8322 -3.2253
 9657TIP3   OH250385   3.594   2.386  15.250 -0.6684  0.1283 -0.1716
 9657TIP3    H150386   3.605   2.458  15.312 -0.1046 -1.5676  1.7734
 9657TIP3    H250387   3.585   2.430  15.165 -1.1037  2.5128  1.0139
 9658TIP3   OH250388   0.303   0.015  15.190 -0.2328 -0.3960 -0.8320
 9658TIP3    H150389   0.214  -0.018  15.201 -0.8087  0.5342 -2.3433
 9658TIP3    H250390   0.298   0.107  15.214  0.0381 -0.0550 -2.0026
 9659TIP3   OH250391   5.950   5.765  13.443 -0.0314 -0.2642 -0.2609
 9659TIP3    H150392   5.953   5.853  13.405 -0.6785  0.2187  0.7743
 9659TIP3    H250393   5.987   5.775  13.531 -1.1689 -0.7805  0.3015
 9660TIP3   OH250394   6.449   4.181  13.771 -0.2346  0.0920  0.2545
 9660TIP3    H150395   6.385   4.243  13.803 -0.3023 -0.4556  1.2226
 9660TIP3    H250396   6.488   4.144  13.850  1.2265  0.3613 -0.3118
 9661TIP3   OH250397   0.951   3.396   1.591 -0.1963 -0.5824 -0.4823
 9661TIP3    H150398   0.887   3.352   1.535  0.9611 -1.8703 -0.8280
 9661TIP3    H250399   1.011   3.440   1.530 -1.2092  1.3804 -0.1483
 9662TIP3   OH250400   1.669   4.151  14.746  0.3760 -0.1464 -0.3265
 9662TIP3    H150401   1.734   4.136  14.678  0.3831 -0.0036 -0.3521
 9662TIP3    H250402   1.585   4.131  14.705  0.4829 -1.3164  0.0041
 9663TIP3   OH250403   0.823   1.112  11.535 -0.9764  0.0658 -0.0306
 9663TIP3    H150404   0.804   1.043  11.598  0.6336 -0.5725 -0.1955
 9663TIP3    H250405   0.811   1.071  11.449  2.5829 -0.9501 -0.2008
 9664TIP3   OH250406   5.097   0.097  15.478  0.3456 -0.2508  0.0800
 9664TIP3    H150407   5.168   0.137  15.529 -0.4661  1.2475  0.0836
 9664TIP3    H250408   5.085   0.156  15.404 -1.2136 -0.1932  0.3418
 9665TIP3   OH250409   4.935   5.882  13.303  0.4131 -0.3708 -0.1300
 9665TIP3    H150410   5.002   5.900  13.368 -0.0863 -0.1302  0.3224
 9665TIP3    H250411   4.919   5.967  13.261 -1.9675  0.3614  2.0252
 9666TIP3   OH250412   0.456   3.959   6.087  0.4646  0.3453  0.5778
 9666TIP3    H150413   0.519   3.888   6.100 -0.2918 -0.0639  2.2306
 9666TIP3    H250414   0.463   4.012   6.166  0.7279  1.9162 -0.4592
 9667TIP3   OH250415   2.180   2.340  12.526  0.2438 -0.1110  0.2041
 9667TIP3    H150416   2.233   2.416  12.502 -3.6312  3.7303  2.2962
 9667TIP3    H250417   2.182   2.284  12.449  3.5326  1.9411 -1.4259
 9668TIP3   OH250418   2.604   6.758  11.328  0.3965  0.1507 -0.3546
 9668TIP3    H150419   2.532   6.771  11.266 -0.5604 -1.9284  0.2085
 9668TIP3    H250420   2.568   6.697  11.393  1.9329  0.8966  1.2735
 9669TIP3   OH250421   2.552   6.627   5.519  0.0430 -0.9600 -0.2709
 9669TIP3    H150422   2.574   6.720   5.514 -0.0902 -0.9342 -0.3587
 9669TIP3    H250423   2.470   6.619   5.472 -0.4614 -0.9618  0.5975
 9670TIP3   OH250424   3.161   0.108   0.450  0.0316 -0.3161  0.1627
 9670TIP3    H150425   3.147   0.176   0.516 -0.9039 -0.9461  0.6382
 9670TIP3    H250426   3.211   0.151   0.381  1.6674  0.1605  1.5901
 9671TIP3   OH250427   1.667   0.275  12.569  0.2322  0.0025 -1.1594
 9671TIP3    H150428   1.597   0.289  12.633  0.6493 -2.4654 -0.0684
 9671TIP3    H250429   1.741   0.243  12.620  1.5867  0.8192 -2.5346
 9672TIP3   OH250430   5.875   3.608   4.329 -0.1081 -0.3539  0.1496
 9672TIP3    H150431   5.906   3.699   4.323  0.0526 -0.0564  3.4922
 9672TIP3    H250432   5.781   3.617   4.346  0.0079 -0.7679  1.0494
 9673TIP3   OH250433   3.002   1.543   3.200 -0.6012 -0.0954  0.0376
 9673TIP3    H150434   2.953   1.575   3.276  0.7207  1.4580  0.3140
 9673TIP3    H250435   3.090   1.525   3.235  0.0715  0.7965 -1.1210
 9674TIP3   OH250436   0.613   0.599  15.982  0.5262  0.5218 -0.5733
 9674TIP3    H150437   0.623   0.608  15.888 -0.9088 -1.3216 -0.9486
 9674TIP3    H250438   0.701   0.613  16.017  0.9240  2.1547 -2.0595
 9675TIP3   OH250439   4.342   0.488  15.057  0.2742 -0.4476 -0.5952
 9675TIP3    H150440   4.271   0.509  14.996  0.5114 -2.0813 -1.4923
 9675TIP3    H250441   4.297   0.452  15.134  0.0647 -0.4120 -0.7007
 9676TIP3   OH250442   4.378   0.558   4.915 -0.2712 -0.4875  0.6575
 9676TIP3    H150443   4.384   0.643   4.958  0.1161  0.1402 -0.5829
 9676TIP3    H250444   4.340   0.500   4.981 -1.6493  0.9173  1.1435
 9677TIP3   OH250445   0.198   4.452   4.586 -0.2115 -0.0905 -0.2529
 9677TIP3    H150446   0.201   4.488   4.497  1.3613  0.6481  0.0603
 9677TIP3    H250447   0.290   4.450   4.614 -0.6189 -0.9379  1.1169
 9678TIP3   OH250448   1.965   0.117   2.897 -0.1582  0.0838  0.7635
 9678TIP3    H150449   2.034   0.077   2.845 -0.2525  0.0123  0.6927
 9678TIP3    H250450   1.904   0.154   2.833 -1.3572 -1.7845  0.7474
 9679TIP3   OH250451   1.316   5.351   4.893 -0.1090  0.5023  0.0468
 9679TIP3    H150452   1.329   5.265   4.853 -1.3012  0.0918  0.4807
 9679TIP3    H250453   1.401   5.395   4.885  0.2085 -0.2825 -1.1817
 9680TIP3   OH250454   2.612   5.262   6.257 -0.3349 -0.2255 -0.1545
 9680TIP3    H150455   2.611   5.354   6.284 -0.9483 -0.0409 -0.7716
 9680TIP3    H250456   2.689   5.226   6.300 -0.1684  0.5383  0.2230
 9681TIP3   OH250457   0.155   6.010  14.661  0.1865 -0.2422 -0.0805
 9681TIP3    H150458   0.145   6.022  14.567 -1.4547  1.2804  0.2135
 9681TIP3    H250459   0.072   6.042  14.698  0.7368 -0.8945  1.8769
 9682TIP3   OH250460   2.287   1.828   0.128  0.2041  0.5980  0.4191
 9682TIP3    H150461   2.205   1.858   0.166  0.6938 -0.2557  2.2232
 9682TIP3    H250462   2.354   1.853   0.191  1.3393  1.0518 -0.8988
 9683TIP3   OH250463   4.225   2.462   0.313 -0.3908  0.1878 -0.2872
 9683TIP3    H150464   4.219   2.555   0.336  1.7153  0.3857 -0.4043
 9683TIP3    H250465   4.304   2.454   0.261 -0.1797 -1.7827  0.2308
 9684TIP3   OH250466   4.329   1.345   5.770  0.4417  0.1576 -0.4037
 9684TIP3    H150467   4.383   1.411   5.727  0.6957 -0.5555 -1.2171
 9684TIP3    H250468   4.344   1.357   5.864  0.2315  1.4504 -0.5275
 9685TIP3   OH250469   0.073   0.325   0.623  0.6484  0.0020 -0.0366
 9685TIP3    H150470   0.092   0.298   0.713  0.5452  1.4839  0.4688
 9685TIP3    H250471  -0.009   0.282   0.601  1.1096 -1.0531  0.2629
 9686TIP3   OH250472   3.039   6.000   4.186 -0.7684  0.4328 -0.6776
 9686TIP3    H150473   2.957   6.042   4.213 -0.4926  2.2618 -2.4173
 9686TIP3    H250474   3.053   6.030   4.096  2.5001  1.3815 -0.0074
 9687TIP3   OH250475   4.256   4.676  10.976  0.4333  0.2349  0.4769
 9687TIP3    H150476   4.198   4.630  11.037  0.6034 -0.3774  0.1887
 9687TIP3    H250477   4.208   4.675  10.893 -0.8619  3.1300  1.0774
 9688TIP3   OH250478   2.396   2.318  15.785  0.4894 -0.5987  0.0807
 9688TIP3    H150479   2.474   2.299  15.732  0.0569 -0.5710 -0.5688
 9688TIP3    H250480   2.379   2.237  15.832 -0.2788 -1.2904 -1.3164
 9689TIP3   OH250481   4.780   5.984   3.397 -0.1693 -0.0857 -0.3297
 9689TIP3    H150482   4.874   5.965   3.400 -0.3324 -0.7703  1.3006
 9689TIP3    H250483   4.738   5.900   3.416 -1.1956 -0.1862 -2.7261
 9690TIP3   OH250484   5.224   5.450   5.903 -0.4397 -0.5074  0.8399
 9690TIP3    H150485   5.287   5.434   5.833 -0.2801  3.7798 -0.2651
 9690TIP3    H250486   5.271   5.504   5.967 -1.7986 -0.8466  2.2067
 9691TIP3   OH250487   1.324   5.177  16.878  0.2970 -0.0195 -0.5270
 9691TIP3    H150488   1.297   5.085  16.883  1.8936 -0.4589  0.4030
 9691TIP3    H250489   1.419   5.174  16.869  0.5281  1.5597  0.9727
 9692TIP3   OH250490   3.871   5.414   3.975 -0.0575 -0.7857 -0.0197
 9692TIP3    H150491   3.871   5.467   3.895 -1.9939  0.1284  0.5089
 9692TIP3    H250492   3.891   5.326   3.944 -2.9258 -0.9264 -1.9754
 9693TIP3   OH250493   2.288   6.215   5.795  0.7632  0.3421 -0.3256
 9693TIP3    H150494   2.341   6.137   5.777 -1.2526 -1.1229 -0.2871
 9693TIP3    H250495   2.297   6.229   5.889 -0.1869 -0.9309 -0.0143
 9694TIP3   OH250496   5.831   5.257   5.366 -0.0390  0.3196  0.4682
 9694TIP3    H150497   5.753   5.215   5.332  0.5537 -0.9738  0.6504
 9694TIP3    H250498   5.845   5.332   5.308 -0.6568 -0.1970 -0.3746
 9695TIP3   OH250499   5.868   2.749  14.097  0.1604  0.6505  0.7683
 9695TIP3    H150500   5.956   2.764  14.132  0.2430 -0.6206  1.1719
 9695TIP3    H250501   5.816   2.727  14.175  0.1461 -1.3612  0.2445
 9696TIP3   OH250502   2.200   2.787  12.999 -0.0868  0.1147  0.1571
 9696TIP3    H150503   2.214   2.712  12.940 -0.4879  0.3752 -0.2799
 9696TIP3    H250504   2.186   2.748  13.085  0.3488 -0.2828  0.0479
 9697TIP3   OH250505   6.329   2.195   3.713  0.0238  0.0741 -0.0081
 9697TIP3    H150506   6.290   2.118   3.753 -0.9876  1.0860  1.0153
 9697TIP3    H250507   6.417   2.166   3.687  0.1805 -1.0462  1.6099
 9698TIP3   OH250508   1.705   1.946   3.577  0.1323  0.4944 -0.0719
 9698TIP3    H150509   1.620   1.988   3.592  0.5929  1.0917  0.9695
 9698TIP3    H250510   1.702   1.919   3.485 -0.8875  1.2053 -0.2680
 9699TIP3   OH250511   1.933   1.421  13.388 -0.4007 -0.4133 -0.9053
 9699TIP3    H150512   1.997   1.437  13.458 -0.6787  1.0000 -0.9444
 9699TIP3    H250513   1.889   1.340  13.414 -0.0744 -0.2395  0.2447
 9700TIP3   OH250514   4.420   4.115   1.015  0.2552 -0.7530 -0.7452
 9700TIP3    H150515   4.348   4.125   1.078  2.3074  0.4100  1.5705
 9700TIP3    H250516   4.440   4.205   0.989 -0.9731 -1.2343 -3.7207
 9701TIP3   OH250517   0.421   5.563  11.312 -0.1781 -0.0819 -0.1854
 9701TIP3    H150518   0.350   5.584  11.372 -0.5807 -1.1661 -0.2576
 9701TIP3    H250519   0.402   5.473  11.283  2.1517 -1.0842  1.1640
 9702TIP3   OH250520   6.216   1.563   2.873  0.5230  0.2210 -0.1126
 9702TIP3    H150521   6.200   1.584   2.781 -0.8825 -0.5685 -0.0766
 9702TIP3    H250522   6.162   1.626   2.921  0.6355  0.1165  0.1488
 9703TIP3   OH250523   4.976   3.674   1.348  0.7788 -0.2675 -0.8393
 9703TIP3    H150524   4.968   3.590   1.302 -0.6679 -0.1972 -0.7555
 9703TIP3    H250525   5.001   3.649   1.437 -0.8133 -0.7071 -0.4959
 9704TIP3   OH250526   4.845   4.417   4.525 -0.9036  0.1291 -0.4773
 9704TIP3    H150527   4.808   4.481   4.465 -1.9707 -0.2571 -0.2538
 9704TIP3    H250528   4.806   4.334   4.499  0.6569 -0.4897 -0.9238
 9705TIP3   OH250529   3.838   6.720   3.709 -0.1159  0.2359  0.2155
 9705TIP3    H150530   3.932   6.726   3.726  0.0683 -0.9460 -0.2289
 9705TIP3    H250531   3.800   6.692   3.792 -0.2850  2.0337  0.7860
 9706TIP3   OH250532   5.955   4.609   2.181  0.0345  0.5319 -0.7078
 9706TIP3    H150533   5.966   4.582   2.089 -1.9635  1.3335 -1.2359
 9706TIP3    H250534   5.926   4.530   2.226 -1.6279  0.7323 -1.3639
 9707TIP3   OH250535   6.056   1.382   1.846 -0.6340  0.3263  0.3753
 9707TIP3    H150536   6.017   1.325   1.780  0.9946 -1.1644  0.6256
 9707TIP3    H250537   6.082   1.460   1.798  1.1869 -1.0279 -0.9884
 9708TIP3   OH250538   2.423   4.372   3.037  0.4412  0.3570 -0.4728
 9708TIP3    H150539   2.398   4.456   2.997  0.2345 -0.4677 -2.1648
 9708TIP3    H250540   2.495   4.340   2.983  0.7437 -0.4105  0.3543
 9709TIP3   OH250541   2.229   2.842  10.818 -0.0848 -0.5845  0.2052
 9709TIP3    H150542   2.226   2.906  10.747 -2.6215 -0.8884 -0.0570
 9709TIP3    H250543   2.271   2.765  10.779 -2.1207 -1.0208 -1.3207
 9710TIP3   OH250544   0.656   4.360  13.335  0.2842 -0.0127 -0.1914
 9710TIP3    H150545   0.743   4.327  13.313  0.2502 -0.3383  0.1607
 9710TIP3    H250546   0.643   4.335  13.426  0.7129  1.9410  0.4666
 9711TIP3   OH250547   2.367   6.518   3.410 -0.2044  0.2901 -0.0328
 9711TIP3    H150548   2.428   6.514   3.484 -0.4739 -0.3023  0.1593
 9711TIP3    H250549   2.400   6.452   3.349 -1.8728 -1.6447  1.0200
 9712TIP3   OH250550   2.360   2.475   4.703  0.0189  0.3576  0.7548
 9712TIP3    H150551   2.420   2.501   4.632 -1.8669  1.9009 -0.3743
 9712TIP3    H250552   2.384   2.385   4.722  1.5064  0.3377 -0.9178
 9713TIP3   OH250553   2.550   2.516   3.346  0.2480  0.1744 -0.1500
 9713TIP3    H150554   2.458   2.526   3.373  0.7433  1.2324  1.2701
 9713TIP3    H250555   2.549   2.442   3.286 -1.5171  0.0707 -0.0565
 9714TIP3   OH250556   1.334   1.274  12.621 -0.2795 -0.0630 -0.5563
 9714TIP3    H150557   1.419   1.309  12.593  0.3003 -0.5361  0.5596
 9714TIP3    H250558   1.321   1.196  12.568  0.8885 -1.0441  0.5279
 9715TIP3   OH250559   6.375   4.371  15.187 -0.0313  0.1749  0.1069
 9715TIP3    H150560   6.412   4.287  15.159 -0.0834  0.6291 -1.4277
 9715TIP3    H250561   6.429   4.437  15.143 -1.7571  0.8733 -1.0930
 9716TIP3   OH250562   3.163   6.725   0.205  0.6577 -0.0814 -0.3748
 9716TIP3    H150563   3.172   6.812   0.243  1.5847 -0.8002  1.1618
 9716TIP3    H250564   3.070   6.716   0.187  0.6404  1.4833 -1.2823
 9717TIP3   OH250565   4.469   2.010   4.310 -0.1875  0.4405  0.0851
 9717TIP3    H150566   4.438   1.948   4.244  0.7462 -0.9330  0.8839
 9717TIP3    H250567   4.555   2.037   4.279  0.1626 -0.0425  0.6126
 9718TIP3   OH250568   4.882   5.890  16.829  0.3913 -0.0830  0.4354
 9718TIP3    H150569   4.889   5.903  16.734 -0.8542  0.9412  0.4444
 9718TIP3    H250570   4.961   5.930  16.864  0.8996 -0.5336 -0.1807
 9719TIP3   OH250571   4.715   6.433   4.308  0.2485  0.1171  0.3338
 9719TIP3    H150572   4.668   6.382   4.374  0.2798  1.3966  1.3739
 9719TIP3    H250573   4.807   6.413   4.324  0.2380 -3.5530 -2.6317
 9720TIP3   OH250574   5.675   6.037   0.969 -0.4516  0.3077 -0.1719
 9720TIP3    H150575   5.610   5.967   0.971 -1.9544  1.6008 -1.2567
 9720TIP3    H250576   5.664   6.082   1.053 -1.1720  0.6932 -0.4681
 9721TIP3   OH250577   0.857   4.488  13.066 -0.1053  0.6763 -0.1947
 9721TIP3    H150578   0.776   4.437  13.063  0.0039  0.4955 -0.0842
 9721TIP3    H250579   0.833   4.569  13.111  0.3196 -0.3783  2.0610
 9722TIP3   OH250580   2.777   3.245   1.758 -1.0733 -0.1995 -0.2246
 9722TIP3    H150581   2.754   3.153   1.751 -0.2350 -0.3204 -2.0033
 9722TIP3    H250582   2.694   3.290   1.774 -1.9650 -0.9956 -2.3021
 9723TIP3   OH250583   0.836   3.926  11.022  0.4952 -0.0167 -0.2668
 9723TIP3    H150584   0.903   3.870  10.983  0.2728 -0.3452 -0.1885
 9723TIP3    H250585   0.820   3.994  10.957  0.8419  0.0142 -0.3209
 9724TIP3   OH250586   2.673   0.119  12.862  0.2911 -0.0505  0.2906
 9724TIP3    H150587   2.763   0.140  12.841  1.3779 -2.5700  1.9605
 9724TIP3    H250588   2.642   0.192  12.915  0.7685  1.5577 -1.5440
 9725TIP3   OH250589   4.277   2.966   5.013  0.1668 -0.5743 -0.6316
 9725TIP3    H150590   4.310   2.908   4.944  1.0160 -0.2311 -0.5287
 9725TIP3    H250591   4.338   2.953   5.086 -0.9693 -1.2531  0.2212
 9726TIP3   OH250592   4.354   4.830   5.399 -0.3257 -0.1443 -0.5618
 9726TIP3    H150593   4.299   4.840   5.321 -2.2216 -0.1265  0.6975
 9726TIP3    H250594   4.443   4.843   5.368 -0.8044 -2.0188 -3.0804
 9727TIP3   OH250595   0.027   3.999  13.326  0.3446  0.8102  0.2874
 9727TIP3    H150596  -0.047   4.059  13.320 -1.5760 -1.4882 -0.7966
 9727TIP3    H250597   0.031   3.957  13.240  0.8879 -1.3543  1.3127
 9728TIP3   OH250598   6.398   1.881  15.153  0.4659  0.1551 -0.4007
 9728TIP3    H150599   6.376   1.817  15.221 -0.6864  1.3485  0.3909
 9728TIP3    H250600   6.425   1.959  15.201 -0.4961  1.0723 -1.2998
 9729TIP3   OH250601   3.625   0.032   5.128  0.2888  0.4240 -0.6889
 9729TIP3    H150602   3.558   0.066   5.188 -0.2254 -0.3922 -0.7796
 9729TIP3    H250603   3.651  -0.052   5.168  1.2215  0.7042 -0.6858
 9730TIP3   OH250604   2.377   5.563   3.600  0.0822  0.4785  0.3063
 9730TIP3    H150605   2.472   5.575   3.610  0.2920 -1.2000  0.5846
 9730TIP3    H250606   2.361   5.475   3.633 -1.5400  0.6120 -0.0707
 9731TIP3   OH250607   3.904   2.716  13.300 -0.0394  0.5828 -0.4175
 9731TIP3    H150608   3.900   2.811  13.299  0.2748  0.6433  1.0917
 9731TIP3    H250609   3.843   2.690  13.370 -0.4336 -0.3437 -1.0846
 9732TIP3   OH250610   3.822   4.706  16.651  0.2193 -0.4477 -0.5119
 9732TIP3    H150611   3.894   4.740  16.598  0.8072  0.3325  0.7514
 9732TIP3    H250612   3.786   4.634  16.598 -0.2296  1.2514 -2.6541
 9733TIP3   OH250613   5.300   6.592  12.608 -0.2202 -0.2431 -0.6341
 9733TIP3    H150614   5.268   6.537  12.680 -2.9630  0.3049 -1.3347
 9733TIP3    H250615   5.225   6.647  12.584  1.9143  2.7301 -1.0220
 9734TIP3   OH250616   4.312   4.320   6.365  0.2656  0.2843 -0.7941
 9734TIP3    H150617   4.230   4.334   6.318  0.4565  0.3530 -1.1091
 9734TIP3    H250618   4.299   4.363   6.449 -0.4278 -0.6638 -0.4043
 9735TIP3   OH250619   2.544   5.782   0.555  0.2097 -0.1402  0.0697
 9735TIP3    H150620   2.586   5.697   0.569 -1.0241 -0.6077  1.1779
 9735TIP3    H250621   2.612   5.837   0.518  0.8810 -1.7785 -1.2467
 9736TIP3   OH250622   6.566   4.028  11.170 -0.2162  0.0909  0.1417
 9736TIP3    H150623   6.554   3.935  11.154  2.5751 -0.5725  1.3926
 9736TIP3    H250624   6.575   4.066  11.083  0.3862 -1.1154 -0.3488
 9737TIP3   OH250625   2.293   4.406   5.337 -0.1925  0.1946  0.0810
 9737TIP3    H150626   2.344   4.344   5.390 -1.0013 -2.0160 -1.5499
 9737TIP3    H250627   2.209   4.411   5.381  0.0831  0.6626  0.5657
 9738TIP3   OH250628   2.332   1.573   4.780 -0.1508 -0.0482 -0.5012
 9738TIP3    H150629   2.290   1.649   4.739 -1.0827  0.1692  0.7919
 9738TIP3    H250630   2.258   1.518   4.807  0.4274 -0.1751  0.8664
 9739TIP3   OH250631   4.919   3.349  11.135  0.2743 -0.4884  0.6982
 9739TIP3    H150632   4.915   3.403  11.057  1.2324 -0.2015  0.8350
 9739TIP3    H250633   4.983   3.281  11.114 -1.0563 -1.7112  0.4540
 9740TIP3   OH250634   6.591   1.852   1.526 -0.5929 -0.6624 -0.1737
 9740TIP3    H150635   6.634   1.782   1.576  0.6959 -0.0802 -0.4115
 9740TIP3    H250636   6.610   1.832   1.435 -0.4749 -0.1782 -0.2604
 9741TIP3   OH250637   0.685   5.238  13.593 -0.0518  0.3521  0.0480
 9741TIP3    H150638   0.745   5.308  13.618 -0.1698  0.6815 -0.5698
 9741TIP3    H250639   0.650   5.266  13.508  1.2782 -1.3026 -1.1139
 9742TIP3   OH250640   3.460   2.913   3.337  0.4446  0.2000 -0.0901
 9742TIP3    H150641   3.460   2.896   3.431  0.7862 -0.1113 -0.1462
 9742TIP3    H250642   3.446   3.008   3.330 -1.7163 -0.0409  0.2159
 9743TIP3   OH250643   3.413   2.682  16.827 -0.7352  0.5105 -0.7399
 9743TIP3    H150644   3.473   2.752  16.853 -1.0230  0.7514 -0.7095
 9743TIP3    H250645   3.381   2.647  16.910 -0.4989  0.2637 -0.7536
 9744TIP3   OH250646   4.663   1.891  15.455 -0.1974  0.2302 -0.0842
 9744TIP3    H150647   4.724   1.826  15.488 -0.0972  0.3610 -0.0098
 9744TIP3    H250648   4.606   1.843  15.396  0.0546  0.1332 -0.2485
 9745TIP3   OH250649   4.703   5.858   5.781 -0.1864  0.2915 -0.0570
 9745TIP3    H150650   4.770   5.843   5.848 -0.5778 -1.8253 -0.0536
 9745TIP3    H250651   4.621   5.832   5.824 -0.5930  0.0327 -0.9698
 9746TIP3   OH250652   5.947   6.630  12.722  0.2726 -0.2761 -0.0207
 9746TIP3    H150653   5.999   6.709  12.736 -0.6835  0.1627  1.2255
 9746TIP3    H250654   5.916   6.636  12.632 -1.0944  1.5904  0.5184
 9747TIP3   OH250655   5.999   6.362  14.823  0.4948 -0.2281 -0.0470
 9747TIP3    H150656   5.951   6.441  14.846  1.3135  0.1347  0.4506
 9747TIP3    H250657   6.012   6.369  14.728 -1.5186 -0.9634 -0.4266
 9748TIP3   OH250658   3.014   4.667  12.850 -0.0012  0.5336 -0.0591
 9748TIP3    H150659   2.955   4.672  12.775  1.9894 -0.7259 -1.8240
 9748TIP3    H250660   3.098   4.698  12.816  1.3036 -1.4382  1.2103
 9749TIP3   OH250661   2.594   2.862  11.604  0.1291  0.1525  0.6398
 9749TIP3    H150662   2.678   2.890  11.641  0.9573 -0.1625 -0.9170
 9749TIP3    H250663   2.539   2.845  11.680  1.7427 -0.4649  1.7278
 9750TIP3   OH250664   4.231   4.823   6.692  0.5191 -0.3407 -0.0458
 9750TIP3    H150665   4.324   4.804   6.679  0.4603  0.5979 -2.0228
 9750TIP3    H250666   4.186   4.745   6.658  0.5236  0.1284 -1.1466
 9751TIP3   OH250667   6.491   0.065   0.483 -0.6738  0.4367  0.2970
 9751TIP3    H150668   6.529   0.014   0.412 -0.2997  0.9805  0.1009
 9751TIP3    H250669   6.517   0.155   0.465 -0.1033  0.5164  1.4283
 9752TIP3   OH250670   3.983   0.438   0.780 -0.0737  0.6347  0.3746
 9752TIP3    H150671   4.052   0.474   0.725  0.7639 -0.5018  0.6455
 9752TIP3    H250672   4.016   0.352   0.807 -1.4953  0.1622  0.6960
 9753TIP3   OH250673   4.437   6.289   3.715 -0.1775  0.3180  0.8043
 9753TIP3    H150674   4.396   6.209   3.682 -0.3943  1.0730 -0.8538
 9753TIP3    H250675   4.510   6.305   3.655  0.2783  1.0008  1.5244
 9754TIP3   OH250676   3.951   1.447  11.324 -0.2104 -0.1513  0.2240
 9754TIP3    H150677   3.872   1.455  11.378 -0.2378 -0.1552  0.1840
 9754TIP3    H250678   4.023   1.467  11.384 -0.2543  0.0478  0.2108
 9755TIP3   OH250679   4.846   3.129  11.703 -0.0393 -0.3679 -0.0004
 9755TIP3    H150680   4.774   3.119  11.641  0.9349 -1.4668 -1.0031
 9755TIP3    H250681   4.871   3.221  11.695 -1.5998  0.1652  0.7257
 9756TIP3   OH250682   4.918   6.370  11.883 -0.0057 -0.3468  0.1658
 9756TIP3    H150683   4.854   6.309  11.846  0.0140 -1.5801  2.0196
 9756TIP3    H250684   4.995   6.317  11.901  0.5039  0.5172  0.6203
 9757TIP3   OH250685   0.083   2.019  15.479 -0.3234 -0.6658 -0.2430
 9757TIP3    H150686   0.041   2.020  15.566 -0.3482  0.1569 -0.2632
 9757TIP3    H250687   0.166   1.973  15.494 -0.9882 -1.8746 -0.1014
 9758TIP3   OH250688   4.100   1.322  14.634 -0.0923  0.8258  0.3580
 9758TIP3    H150689   4.037   1.314  14.705 -1.9419  0.0133 -1.2651
 9758TIP3    H250690   4.062   1.387  14.575  0.4734  0.1885 -0.7442
 9759TIP3   OH250691   4.111   1.667  12.068 -0.7216  0.0568  0.0181
 9759TIP3    H150692   4.098   1.647  11.976  1.3859 -1.6588  0.0209
 9759TIP3    H250693   4.034   1.631  12.112 -1.5887  0.6082 -1.0164
 9760TIP3   OH250694   3.922   3.311   5.591 -0.3368 -0.5299  0.2022
 9760TIP3    H150695   3.968   3.308   5.507 -0.3244  0.5405  0.1538
 9760TIP3    H250696   3.831   3.289   5.569 -0.3009 -0.4160 -0.0710
 9761TIP3   OH250697   6.215   3.571  15.988  0.6839 -0.3656 -0.5436
 9761TIP3    H150698   6.270   3.497  16.012  2.1188  0.7395 -0.2663
 9761TIP3    H250699   6.198   3.617  16.070 -1.5545 -1.2292 -0.4668
 9762TIP3   OH250700   6.290   3.137   2.764 -0.0989 -0.3252 -0.3010
 9762TIP3    H150701   6.307   3.091   2.846  0.5717  0.3117 -0.0665
 9762TIP3    H250702   6.365   3.115   2.708  3.0177  4.1403  1.4437
 9763TIP3   OH250703   0.884   2.563   2.013 -0.1785 -0.2807  0.7100
 9763TIP3    H150704   0.884   2.573   2.108  2.7382 -0.2410  0.8034
 9763TIP3    H250705   0.907   2.650   1.980  0.9536 -0.7814  0.1213
 9764TIP3   OH250706   6.655   1.076   3.579 -0.2223  0.0989 -0.1574
 9764TIP3    H150707   6.574   1.075   3.528  0.4707  0.5449 -1.3098
 9764TIP3    H250708   6.694   1.161   3.560  0.3962  0.0010  0.5999
 9765TIP3   OH250709   6.171   3.528   1.973  0.0801 -0.6020  0.4113
 9765TIP3    H150710   6.128   3.602   2.017 -1.2791 -0.6582 -0.7295
 9765TIP3    H250711   6.132   3.450   2.014  1.0572 -0.7049  1.1827
 9766TIP3   OH250712   4.212   4.248   1.163  0.2334  0.1767 -0.0517
 9766TIP3    H150713   4.186   4.339   1.176 -1.4346 -0.2452 -0.2019
 9766TIP3    H250714   4.253   4.222   1.245 -2.6770 -0.0058  1.4874
 9767TIP3   OH250715   5.562   2.279   1.597  0.1709  0.2898  0.0079
 9767TIP3    H150716   5.551   2.291   1.692 -2.5375  0.4948 -0.2581
 9767TIP3    H250717   5.564   2.368   1.562  2.4764  0.2674 -0.0979
 9768TIP3   OH250718   4.353   3.496  16.289 -0.2962  0.6432 -0.4313
 9768TIP3    H150719   4.268   3.517  16.250 -0.0929  1.7267 -0.3103
 9768TIP3    H250720   4.351   3.400  16.300 -1.4284  0.6359 -0.5717
 9769TIP3   OH250721   4.012   5.300   2.456  0.3727 -0.3201 -0.0928
 9769TIP3    H150722   4.010   5.316   2.362  0.5463  0.0295 -0.0379
 9769TIP3    H250723   4.093   5.251   2.471  0.9167  0.6021  0.0242
 9770TIP3   OH250724   2.706   0.551   2.643  0.3337 -0.0724  0.5733
 9770TIP3    H150725   2.615   0.537   2.671  0.1566 -0.1295 -0.0260
 9770TIP3    H250726   2.700   0.570   2.550  1.1022 -2.2815  0.0130
 9771TIP3   OH250727   0.534   5.280  12.987 -0.0034 -0.1539 -0.4357
 9771TIP3    H150728   0.587   5.359  13.000  0.2051 -0.1705 -1.1891
 9771TIP3    H250729   0.444   5.313  12.980  0.2256  0.1689 -2.1775
 9772TIP3   OH250730   5.812   0.175   3.533 -0.1369 -0.5703 -0.2622
 9772TIP3    H150731   5.900   0.141   3.515 -0.4659 -0.7437 -1.6962
 9772TIP3    H250732   5.778   0.118   3.603  1.0235 -0.2445  0.5907
 9773TIP3   OH250733   1.201   6.079   6.402 -0.8687 -0.2282  0.1755
 9773TIP3    H150734   1.277   6.028   6.430 -0.4019  0.7459  0.7284
 9773TIP3    H250735   1.132   6.014   6.388  0.4458 -1.3184 -1.7670
 9774TIP3   OH250736   3.495   6.627   2.660  0.0626  0.3599  0.6092
 9774TIP3    H150737   3.413   6.608   2.706 -0.2338 -0.0206 -0.0503
 9774TIP3    H250738   3.545   6.545   2.667  0.2410  0.4781  0.7152
 9775TIP3   OH250739   6.416   6.382  12.017 -0.1026 -0.4789  0.2659
 9775TIP3    H150740   6.338   6.434  12.033  0.1402 -0.2370  0.6849
 9775TIP3    H250741   6.470   6.395  12.095  0.4406 -0.4895 -0.1011
 9776TIP3   OH250742   5.927   3.390  13.551  0.2592 -0.1103 -0.2843
 9776TIP3    H150743   5.985   3.354  13.618 -0.4549 -0.5326  0.1181
 9776TIP3    H250744   5.852   3.424  13.600  0.1834  0.4735 -0.7963
 9777TIP3   OH250745   4.588   2.516  12.678  0.9247 -0.1239  0.5465
 9777TIP3    H150746   4.579   2.427  12.643  1.7007  0.3024 -0.8041
 9777TIP3    H250747   4.542   2.571  12.615 -1.7278  0.2431  2.6278
 9778TIP3   OH250748   1.520   0.091   2.677 -0.1999  0.1255 -0.2022
 9778TIP3    H150749   1.490   0.086   2.586 -1.3109 -2.3567  0.1902
 9778TIP3    H250750   1.457   0.036   2.724  1.3667 -0.0513  1.7733
 9779TIP3   OH250751   0.771   4.152  15.446 -0.2824  0.1558 -0.2460
 9779TIP3    H150752   0.679   4.177  15.457 -0.1282  0.6424 -0.0489
 9779TIP3    H250753   0.820   4.231  15.467  0.2233 -0.3882  0.7387
 9780TIP3   OH250754   3.305   5.454   2.558  0.3949 -0.1627 -1.0716
 9780TIP3    H150755   3.225   5.507   2.559 -0.4875 -1.4434  0.1707
 9780TIP3    H250756   3.279   5.372   2.516  0.4182 -1.4278  1.2463
 9781TIP3   OH250757   2.390   1.244   4.244  0.1118 -0.5209  0.2370
 9781TIP3    H150758   2.383   1.190   4.322  2.7911 -0.1770  0.8019
 9781TIP3    H250759   2.444   1.193   4.183  0.7992  0.5406 -0.0865
 9782TIP3   OH250760   6.385   5.562  12.763 -0.0002 -0.0485 -0.4005
 9782TIP3    H150761   6.477   5.544  12.745  0.1613  0.5463 -0.1923
 9782TIP3    H250762   6.354   5.485  12.811 -0.1649 -1.1958 -2.2584
 9783TIP3   OH250763   2.709   2.153   1.047 -0.3480 -0.0614  0.0227
 9783TIP3    H150764   2.673   2.162   0.959 -1.6062  0.9213  0.6068
 9783TIP3    H250765   2.638   2.179   1.105  0.8325  0.4483  1.3029
 9784TIP3   OH250766   5.129   4.298  16.069  0.1736  0.1038  0.0493
 9784TIP3    H150767   5.040   4.300  16.033  0.3134  0.5566 -0.2731
 9784TIP3    H250768   5.159   4.388  16.065  0.9443 -0.1698 -0.5871
 9785TIP3   OH250769   3.947   2.653  16.479  0.3042 -0.1957  0.4568
 9785TIP3    H150770   3.865   2.611  16.452  0.0187  0.1196  0.8119
 9785TIP3    H250771   3.921   2.710  16.551  0.3134  2.1912 -1.3220
 9786TIP3   OH250772   4.599   2.448  11.921  0.1474  0.5476  0.1334
 9786TIP3    H150773   4.635   2.535  11.906 -1.7339  1.4477  0.5767
 9786TIP3    H250774   4.533   2.460  11.990  1.7682 -1.7397  2.2491
 9787TIP3   OH250775   1.644   6.420   1.231 -0.5785  0.3663 -0.2802
 9787TIP3    H150776   1.701   6.381   1.296  0.4592 -0.5792 -1.6999
 9787TIP3    H250777   1.647   6.514   1.249  0.3279  0.1953  0.5147
 9788TIP3   OH250778   3.475   4.146   3.713 -0.1593  0.4115  0.4467
 9788TIP3    H150779   3.493   4.224   3.660 -0.0777  0.8574  1.1151
 9788TIP3    H250780   3.551   4.139   3.771  0.5549 -1.0464 -0.6299
 9789TIP3   OH250781   0.156   4.111  14.156 -0.1051  0.0661  0.5546
 9789TIP3    H150782   0.173   4.045  14.223  1.0810 -1.5295 -1.2002
 9789TIP3    H250783   0.242   4.129  14.118 -0.9048 -0.2958 -1.5727
 9790TIP3   OH250784   2.996   1.366  11.933 -0.0149 -0.3496 -0.2946
 9790TIP3    H150785   3.070   1.312  11.964  0.1068  0.2609  0.4882
 9790TIP3    H250786   2.963   1.409  12.011  0.0808  0.9584 -0.9486
 9791TIP3   OH250787   2.262   0.285   1.048 -0.2298  0.3850  0.5687
 9791TIP3    H150788   2.246   0.342   0.973 -0.5013  2.4495  2.0924
 9791TIP3    H250789   2.321   0.218   1.016 -2.0207 -0.0958 -2.0275
 9792TIP3   OH250790   2.303   4.398  14.795  0.8756  0.7241  0.3749
 9792TIP3    H150791   2.358   4.330  14.835  0.7207  0.5759  0.3349
 9792TIP3    H250792   2.274   4.451  14.869  0.8630  0.6494  0.4235
 9793TIP3   OH250793   6.584   1.132  15.068  0.3987  0.1179 -0.2565
 9793TIP3    H150794   6.546   1.051  15.035  0.3244  0.1659 -0.2880
 9793TIP3    H250795   6.509   1.187  15.089  0.4296 -0.1592  0.6083
 9794TIP3   OH250796   3.729   3.075  16.765  0.2121 -0.2641 -0.8402
 9794TIP3    H150797   3.761   2.985  16.757  0.4582 -0.8392  3.7738
 9794TIP3    H250798   3.809   3.127  16.777 -0.0642 -0.0357  0.0734
 9795TIP3   OH250799   6.801   4.840   3.647  0.0577  0.1148 -0.1649
 9795TIP3    H150800   6.707   4.855   3.660 -0.2121 -0.6759 -0.9951
 9795TIP3    H250801   6.840   4.850   3.733 -1.2068 -2.2446  0.7933
 9796TIP3   OH250802   5.744   1.081   6.030  0.0540  0.3589  0.0939
 9796TIP3    H150803   5.727   1.167   6.069  0.0423  1.0309 -1.3152
 9796TIP3    H250804   5.838   1.070   6.035  0.1287  0.7692 -0.3184
 9797TIP3   OH250805   4.056   5.964   1.614 -0.5116  0.5442  0.1076
 9797TIP3    H150806   4.130   6.014   1.580 -0.8545  1.7230  1.0367
 9797TIP3    H250807   3.992   5.964   1.542 -0.5556  1.5674  0.1356
 9798TIP3   OH250808   2.322   3.184  16.559  0.0813  0.6018 -0.1158
 9798TIP3    H150809   2.386   3.185  16.488 -0.0129  1.5158 -0.1934
 9798TIP3    H250810   2.250   3.131  16.526  0.6822 -0.2377 -0.1221
 9799TIP3   OH250811   4.724   3.640  10.501  0.0753  0.1715  0.2071
 9799TIP3    H150812   4.721   3.562  10.557  3.0413 -0.2844 -0.1078
 9799TIP3    H250813   4.808   3.681  10.521 -0.3768  2.0031 -1.3401
 9800TIP3   OH250814   1.102   3.494   4.709 -0.0614 -0.2455 -0.5513
 9800TIP3    H150815   1.024   3.459   4.666 -0.5662  0.0241  0.1257
 9800TIP3    H250816   1.169   3.497   4.640 -1.2963  1.7408 -1.7344
 9801TIP3   OH250817   5.934   5.659   3.399  0.0617 -0.0214  0.1355
 9801TIP3    H150818   5.887   5.741   3.415 -0.7976 -0.3597 -0.5945
 9801TIP3    H250819   5.936   5.650   3.304  1.8248  0.0893  0.1261
 9802TIP3   OH250820   4.913   0.770   1.055  1.0805  0.2634 -0.1125
 9802TIP3    H150821   4.995   0.818   1.044  0.9956  0.2410 -0.8751
 9802TIP3    H250822   4.852   0.834   1.091  1.7545 -0.0330  1.6644
 9803TIP3   OH250823   3.977   0.859   5.307  0.0139 -0.0443  0.5781
 9803TIP3    H150824   3.971   0.786   5.246  1.6843  0.2313  0.0214
 9803TIP3    H250825   4.054   0.840   5.361  0.6601  1.4239  0.2291
 9804TIP3   OH250826   5.307   2.012   3.876  0.4625  0.0868  0.9591
 9804TIP3    H150827   5.304   1.979   3.786  1.5627 -1.1569  1.3430
 9804TIP3    H250828   5.219   2.000   3.910  0.0230  0.6228  0.0474
 9805TIP3   OH250829   5.926   6.788  12.284  0.3152  0.5156 -0.2367
 9805TIP3    H150830   5.917   6.740  12.202  2.0091  0.2529 -0.3239
 9805TIP3    H250831   5.859   6.855  12.281 -0.3996 -0.2222 -1.3061
 9806TIP3   OH250832   2.295   1.506  13.719  0.4167 -0.2517 -0.5699
 9806TIP3    H150833   2.209   1.543  13.699  0.9102  1.6864  0.7097
 9806TIP3    H250834   2.293   1.490  13.813  1.2273 -0.8549 -0.6448
 9807TIP3   OH250835   5.595   5.203  12.239  0.2997 -0.2721  0.4193
 9807TIP3    H150836   5.589   5.244  12.325  0.6055 -0.1086  0.3622
 9807TIP3    H250837   5.504   5.201  12.208  0.2887  0.4760  0.3727
 9808TIP3   OH250838   0.536   5.406  12.081 -0.5779 -0.6184  0.2413
 9808TIP3    H150839   0.516   5.499  12.091  0.1397 -0.3858 -0.4120
 9808TIP3    H250840   0.620   5.404  12.035 -0.4788 -1.5882  0.4394
 9809TIP3   OH250841   0.836   0.116   5.064  0.0566  0.1403  0.2186
 9809TIP3    H150842   0.889   0.129   4.985 -0.2365 -1.7362 -0.3383
 9809TIP3    H250843   0.851   0.025   5.088 -2.0021 -0.1205  0.7246
 9810TIP3   OH250844   2.527   6.717   1.481  0.8238  0.2848 -0.2837
 9810TIP3    H150845   2.488   6.665   1.411  1.1410  0.5455 -0.6579
 9810TIP3    H250846   2.558   6.653   1.544 -0.2308  0.0665  0.0370
 9811TIP3   OH250847   4.627   0.208   1.086 -0.2999  0.5016  0.7011
 9811TIP3    H150848   4.597   0.297   1.067 -0.8623  0.3509  0.8644
 9811TIP3    H250849   4.549   0.162   1.116 -0.2593 -0.3617 -0.4368
 9812TIP3   OH250850   1.278   5.779   1.056 -0.5064 -0.1748  0.3966
 9812TIP3    H150851   1.306   5.780   1.148  0.0633  0.1277  0.2267
 9812TIP3    H250852   1.332   5.712   1.015  0.4385  0.8422 -0.0691
 9813TIP3   OH250853   5.658   0.945  13.683 -0.3313  0.3226 -0.1209
 9813TIP3    H150854   5.587   0.884  13.664  0.1174 -0.7725  1.4314
 9813TIP3    H250855   5.616   1.019  13.727 -0.7422  0.5952 -0.9734
 9814TIP3   OH250856   1.332   6.498   4.478 -0.7417  0.0608 -0.0662
 9814TIP3    H150857   1.250   6.513   4.525 -0.7999  0.2404 -0.2254
 9814TIP3    H250858   1.396   6.556   4.522 -0.8746  0.4846 -0.4245
 9815TIP3   OH250859   6.616   2.012  12.506 -0.3386  0.0752  0.4603
 9815TIP3    H150860   6.683   1.967  12.456 -0.3938  0.9109 -0.3865
 9815TIP3    H250861   6.591   2.087  12.452 -0.1047  1.2482  1.9115
 9816TIP3   OH250862   3.396   3.595   0.133 -0.1821  0.4058  0.5208
 9816TIP3    H150863   3.399   3.512   0.086 -0.2526  1.0260 -0.6260
 9816TIP3    H250864   3.340   3.651   0.080  0.8763  1.5846  0.5778
 9817TIP3   OH250865   6.602   0.919  13.729  0.3652  0.1418  0.3656
 9817TIP3    H150866   6.617   0.886  13.641 -0.2163  1.4841 -0.2564
 9817TIP3    H250867   6.507   0.925  13.737  0.3924 -0.5275  1.3013
 9818TIP3   OH250868   2.913   5.075   4.791  0.1315  0.2676  0.4655
 9818TIP3    H150869   2.962   5.076   4.709 -1.7905 -0.2963 -0.7423
 9818TIP3    H250870   2.918   4.984   4.820  1.4957  0.6239  1.4564
 9819TIP3   OH250871   3.648   2.672   2.614  0.4227 -0.2754  0.1896
 9819TIP3    H150872   3.643   2.740   2.547 -1.1645  0.1711  0.7318
 9819TIP3    H250873   3.683   2.717   2.691 -2.1655  0.3936  1.0526
 9820TIP3   OH250874   2.036   0.800   1.656  0.7499  0.0016 -0.3241
 9820TIP3    H150875   1.986   0.729   1.616 -0.4722  0.8015 -0.2988
 9820TIP3    H250876   2.125   0.790   1.622  0.8553 -2.0926  0.4268
 9821TIP3   OH250877   2.492   0.167   3.589  0.7372 -0.0446 -0.1327
 9821TIP3    H150878   2.497   0.176   3.493 -0.3383 -0.4629 -0.2387
 9821TIP3    H250879   2.513   0.254   3.622 -1.2612  0.7773 -0.8560
 9822TIP3   OH250880   3.826   6.102  14.158 -0.3916 -0.1935  0.0497
 9822TIP3    H150881   3.776   6.182  14.139 -0.4250 -0.0690  0.6194
 9822TIP3    H250882   3.917   6.126  14.142 -0.4177 -0.0883  0.0564
 9823TIP3   OH250883   1.690   3.269  11.957 -0.0207 -0.1459 -0.0179
 9823TIP3    H150884   1.620   3.331  11.980 -2.1840 -2.4532  0.0893
 9823TIP3    H250885   1.643   3.194  11.919  2.4459 -1.7354 -0.1178
 9824TIP3   OH250886   3.046   3.487   4.892 -0.3527  0.3507 -0.3427
 9824TIP3    H150887   3.082   3.435   4.965  0.0546 -0.2553 -0.9651
 9824TIP3    H250888   2.954   3.497   4.914 -0.4075 -0.5165 -0.1373
 9825TIP3   OH250889   4.116   1.697   1.973 -0.3467 -0.1258 -0.9234
 9825TIP3    H150890   4.192   1.752   1.956 -0.5538  0.5341  0.2152
 9825TIP3    H250891   4.142   1.610   1.943  0.7463  0.1584 -0.8302
 9826TIP3   OH250892   3.740   2.485   4.759  0.2018  0.8809  0.3483
 9826TIP3    H150893   3.657   2.516   4.795  0.0587  1.3545 -0.3588
 9826TIP3    H250894   3.777   2.430   4.827 -0.8369  0.4202  0.5506
 9827TIP3   OH250895   5.918   4.825  13.465  0.1141 -0.3414  0.3931
 9827TIP3    H150896   5.916   4.824  13.369 -1.6733 -0.5176  0.3969
 9827TIP3    H250897   5.959   4.742  13.489  1.5641  0.1699 -0.1951
 9828TIP3   OH250898   0.025   5.812  11.492 -0.4662  0.3656 -0.0554
 9828TIP3    H150899   0.027   5.719  11.516  0.7428 -0.4203 -2.7895
 9828TIP3    H250900  -0.048   5.848  11.542  0.1776 -1.5914  2.5154
 9829TIP3   OH250901   2.455   5.535  11.897 -0.4236 -0.4611  0.4042
 9829TIP3    H150902   2.506   5.496  11.827  1.1235  0.3302  1.0452
 9829TIP3    H250903   2.493   5.622  11.910 -0.0804 -0.8783  2.7624
 9830TIP3   OH250904   5.601   5.233  15.726  0.0650 -0.5063 -0.2818
 9830TIP3    H150905   5.511   5.215  15.752  0.1920 -0.6584  0.0668
 9830TIP3    H250906   5.645   5.255  15.808  0.5444 -1.2859 -0.3232
 9831TIP3   OH250907   4.202   1.390  15.367  0.2735  0.4596 -0.6840
 9831TIP3    H150908   4.145   1.339  15.310  0.2094  0.2635 -0.4462
 9831TIP3    H250909   4.221   1.470  15.317 -1.3720  1.1905 -0.1897
 9832TIP3   OH250910   6.494   1.090  13.078  0.0011 -0.9391  0.8514
 9832TIP3    H150911   6.511   1.053  13.164 -0.1278 -3.8415 -0.2550
 9832TIP3    H250912   6.535   1.028  13.017 -2.4020 -0.5870 -1.2833
 9833TIP3   OH250913   2.012   1.468   4.998  0.4537  0.0890 -0.0222
 9833TIP3    H150914   1.917   1.462   5.003  0.4366  0.7257  0.5585
 9833TIP3    H250915   2.031   1.477   4.905  0.0391 -1.3753 -0.2713
 9834TIP3   OH250916   1.246   1.998   0.380  0.0941  0.2671  0.0170
 9834TIP3    H150917   1.286   1.918   0.344  1.4114  0.2441  1.4711
 9834TIP3    H250918   1.273   2.067   0.319  0.6349 -0.0734 -0.1367
 9835TIP3   OH250919   3.172   3.311   5.444 -0.4204 -0.0079 -0.8634
 9835TIP3    H150920   3.176   3.218   5.466 -0.7563  0.2825  0.5398
 9835TIP3    H250921   3.247   3.350   5.490 -0.8580  0.5559 -0.6116
 9836TIP3   OH250922   3.547   5.537   0.915 -0.0354 -0.0163  0.1775
 9836TIP3    H150923   3.557   5.617   0.863  0.1211 -0.1741 -0.0362
 9836TIP3    H250924   3.495   5.479   0.860  1.3405 -0.7317 -0.4266
 9837TIP3   OH250925   1.306   6.079  12.324 -0.0251 -0.4206 -0.3241
 9837TIP3    H150926   1.396   6.056  12.345  0.7107  2.3676  0.0039
 9837TIP3    H250927   1.273   6.122  12.403  0.0703  2.9729 -1.9342
 9838TIP3   OH250928   0.683   4.567  12.446 -0.3186  0.2748  0.1643
 9838TIP3    H150929   0.765   4.574  12.496 -0.1050 -1.6931  0.1540
 9838TIP3    H250930   0.706   4.518  12.367 -1.4243  0.0166 -0.0195
 9839TIP3   OH250931   0.686   4.621   1.416 -0.2699 -0.2263 -0.0786
 9839TIP3    H150932   0.701   4.699   1.363  2.1714 -0.6186 -0.0841
 9839TIP3    H250933   0.698   4.651   1.506 -2.5284  0.0278  0.1975
 9840TIP3   OH250934   1.567   4.439  13.283  0.0390 -0.4471  0.1680
 9840TIP3    H150935   1.622   4.486  13.346 -1.6310  1.6748  0.1593
 9840TIP3    H250936   1.605   4.459  13.198 -1.3403  2.0831  0.0494
 9841TIP3   OH250937   4.016   0.462   5.551  0.1519  0.4669 -0.2898
 9841TIP3    H150938   3.938   0.492   5.599  0.3165  1.1587 -0.4450
 9841TIP3    H250939   3.991   0.468   5.459  0.3783  0.6785 -0.3392
 9842TIP3   OH250940   4.833   3.323   5.024  0.3392 -0.2372  0.3268
 9842TIP3    H150941   4.767   3.334   4.956  0.5358 -0.0097  0.1675
 9842TIP3    H250942   4.821   3.399   5.081  1.0436  0.2828 -0.2043
 9843TIP3   OH250943   0.061   6.423   1.500 -0.0529 -0.0040  0.2583
 9843TIP3    H150944   0.019   6.493   1.449  0.0335 -0.4246 -0.4056
 9843TIP3    H250945   0.033   6.439   1.590 -2.1630 -0.6280 -0.2321
 9844TIP3   OH250946   5.218   4.302  12.478 -0.1374 -0.1304 -0.0421
 9844TIP3    H150947   5.264   4.285  12.559  0.1318 -2.0461 -0.5511
 9844TIP3    H250948   5.282   4.346  12.422  1.5703 -3.6253 -1.1018
 9845TIP3   OH250949   5.214   5.348   1.806  0.3364 -0.2319 -0.0711
 9845TIP3    H150950   5.156   5.395   1.866  1.0823 -0.7595  1.0952
 9845TIP3    H250951   5.157   5.322   1.733 -0.2235  1.9199 -0.4718
 9846TIP3   OH250952   1.036   4.025   0.367  0.1924  0.1633 -0.2048
 9846TIP3    H150953   1.052   4.006   0.460  0.6777  1.1776 -0.0681
 9846TIP3    H250954   1.034   3.939   0.325  1.0220 -0.2581  0.5858
 9847TIP3   OH250955   5.255   6.556  13.189 -0.0567 -0.0883 -0.2420
 9847TIP3    H150956   5.182   6.493  13.189 -0.1945  0.0692 -0.4808
 9847TIP3    H250957   5.238   6.613  13.264  1.0499 -1.4551  1.1120
 9848TIP3   OH250958   2.626   5.468  15.114  0.1023  0.0015  0.0227
 9848TIP3    H150959   2.578   5.386  15.111  0.4588 -0.1817 -1.1240
 9848TIP3    H250960   2.706   5.448  15.163  0.7291 -0.6479 -1.2277
 9849TIP3   OH250961   4.226   0.132   5.261  0.2275 -0.2787 -0.2025
 9849TIP3    H150962   4.302   0.078   5.281  0.9715  0.8693  0.1339
 9849TIP3    H250963   4.151   0.073   5.275  0.9409 -0.8611  1.4053
 9850TIP3   OH250964   2.946   0.891  12.411  0.3496  0.3751 -0.0201
 9850TIP3    H150965   3.014   0.845  12.362  2.9815  4.3985 -0.5769
 9850TIP3    H250966   2.884   0.921  12.344  1.1077  1.4193 -0.2756
 9851TIP3   OH250967   2.176   6.516   1.978 -0.2466 -0.5470 -0.0120
 9851TIP3    H150968   2.151   6.446   2.038 -0.2470 -0.5119  0.0289
 9851TIP3    H250969   2.271   6.521   1.987 -0.0349 -1.6913 -1.2736
 9852TIP3   OH250970   4.349   5.445  11.266 -0.0671  0.2138  0.5386
 9852TIP3    H150971   4.347   5.537  11.240 -1.4387  0.0156 -0.1736
 9852TIP3    H250972   4.272   5.434  11.322  1.2791 -0.0293  2.4429
 9853TIP3   OH250973   0.009   1.141   0.059 -0.0701 -0.0949 -0.5614
 9853TIP3    H150974  -0.059   1.146  -0.007  0.2560  0.8113 -0.8463
 9853TIP3    H250975  -0.036   1.153   0.142 -0.7327 -2.8336 -0.4050
 9854TIP3   OH250976   3.143   4.271  10.488 -0.2398 -0.4107 -0.1593
 9854TIP3    H150977   3.142   4.360  10.454  0.1296 -0.6435 -0.7972
 9854TIP3    H250978   3.127   4.216  10.412 -0.4417 -0.8920  0.2263
 9855TIP3   OH250979   3.357   6.430   5.481 -0.2621  0.0658 -0.3215
 9855TIP3    H150980   3.431   6.383   5.520  0.3122  0.9228 -0.3334
 9855TIP3    H250981   3.349   6.510   5.533  1.0303  1.6260 -2.3541
 9856TIP3   OH250982   3.064   3.361  17.019  0.5255 -0.2011  0.1072
 9856TIP3    H150983   3.114   3.333  16.943 -0.2567  0.5085 -0.7038
 9856TIP3    H250984   3.040   3.452  16.999  0.0412 -0.1100  1.0562
 9857TIP3   OH250985   4.440   2.627   4.834 -0.2972 -0.8259  0.3807
 9857TIP3    H150986   4.485   2.673   4.764  1.4168  0.6140  2.3032
 9857TIP3    H250987   4.430   2.537   4.802 -0.7838  0.0723 -2.1670
 9858TIP3   OH250988   0.698   5.819   1.073  0.0161  0.1957 -0.7805
 9858TIP3    H150989   0.736   5.902   1.103  0.1562  0.2305 -1.0467
 9858TIP3    H250990   0.673   5.773   1.153 -2.1686  1.4677 -0.6426
 9859TIP3   OH250991   3.998   6.047   3.734  0.4988 -0.3794  0.3253
 9859TIP3    H150992   4.009   6.055   3.639 -2.6869  0.0178 -0.1055
 9859TIP3    H250993   4.068   6.101   3.771 -1.0660  3.5700 -1.9494
 9860TIP3   OH250994   2.388   6.308  15.159 -0.2707  0.3751  0.1430
 9860TIP3    H150995   2.451   6.279  15.225 -0.9797  0.8533  1.0544
 9860TIP3    H250996   2.419   6.269  15.078 -0.8103 -2.4037  1.1728
 9861TIP3   OH250997   0.176   1.803   6.532 -0.5754 -0.1818 -0.5076
 9861TIP3    H150998   0.175   1.891   6.570 -2.2134 -1.4911  2.8789
 9861TIP3    H250999   0.109   1.805   6.464  1.4074  1.8438 -2.6025
 9862TIP3   OH251000   4.005   2.455  11.972  0.3486  0.5300  0.3161
 9862TIP3    H151001   4.039   2.394  11.907 -0.9318 -0.4739  0.5357
 9862TIP3    H251002   3.963   2.524  11.921 -2.3406 -1.2175 -0.0471
 9863TIP3   OH251003   0.488   1.334  15.442  0.5133  0.4174 -0.3018
 9863TIP3    H151004   0.461   1.242  15.443  0.7501  0.3495  1.2238
 9863TIP3    H251005   0.478   1.361  15.350 -0.7591 -0.7666 -0.5370
 9864TIP3   OH251006   6.314   1.374  12.380  0.1966  0.3105 -0.5881
 9864TIP3    H151007   6.223   1.400  12.362  0.5778  0.5163 -2.3885
 9864TIP3    H251008   6.364   1.455  12.370  0.7750 -0.1198 -1.1650
 9865TIP3   OH251009   0.115   3.059   0.721 -0.2962  0.0431  0.4547
 9865TIP3    H151010   0.194   3.087   0.768  0.9623 -0.7972 -1.0642
 9865TIP3    H251011   0.043   3.094   0.773  1.0796  1.4869  1.5041
 9866TIP3   OH251012   6.049   5.221   2.529 -0.1033  0.2565 -0.0408
 9866TIP3    H151013   6.135   5.238   2.491  0.3071 -0.1859  0.6627
 9866TIP3    H251014   6.007   5.307   2.532  0.3871  0.5058 -0.2132
 9867TIP3   OH251015   0.635   2.133   2.357 -0.0868  0.3155 -0.1675
 9867TIP3    H151016   0.654   2.226   2.371  0.3510  0.0775  0.9222
 9867TIP3    H251017   0.720   2.090   2.368 -0.6189 -0.4088  1.3655
 9868TIP3   OH251018   0.901   1.005   0.789  0.0584  0.4968  0.7053
 9868TIP3    H151019   0.950   0.989   0.708 -0.2948  1.3917  0.2986
 9868TIP3    H251020   0.872   0.918   0.818 -1.5881  0.3050 -1.2735
 9869TIP3   OH251021   0.674   2.171   5.357  0.6604 -0.3810  0.2960
 9869TIP3    H151022   0.677   2.240   5.291  1.4693  0.6236  1.3507
 9869TIP3    H251023   0.622   2.101   5.316  2.5061 -0.4960 -2.0301
 9870TIP3   OH251024   4.801   0.557  10.725 -0.2329 -0.2952  0.4383
 9870TIP3    H151025   4.749   0.480  10.748  0.9273 -1.2820 -0.1201
 9870TIP3    H251026   4.847   0.581  10.806 -1.7780  0.7933  1.0253
 9871TIP3   OH251027   6.100   6.581  10.870 -0.2210  0.1936  0.2851
 9871TIP3    H151028   6.166   6.651  10.866  1.2137 -1.1480 -0.5030
 9871TIP3    H251029   6.130   6.517  10.806 -1.2352 -1.3840  1.3329
 9872TIP3   OH251030   2.693   0.441  12.751 -0.1603  0.3149 -0.1960
 9872TIP3    H151031   2.736   0.517  12.712 -0.2942 -0.3256 -1.6921
 9872TIP3    H251032   2.600   0.462  12.748 -0.1625  0.3170 -0.1088
 9873TIP3   OH251033   3.034   4.744  15.311  0.2423 -0.0867 -0.1725
 9873TIP3    H151034   3.110   4.792  15.343 -0.1713  0.8382 -0.5402
 9873TIP3    H251035   3.070   4.662  15.277  1.1537  0.5906 -0.8833
 9874TIP3   OH251036   4.043   5.658   5.346 -0.0899  0.0639 -0.2133
 9874TIP3    H151037   4.024   5.583   5.402 -0.4050 -0.8510 -1.4993
 9874TIP3    H251038   4.074   5.620   5.264  1.8696  1.3965 -0.1744
 9875TIP3   OH251039   3.944   4.992   0.495 -0.0613  0.3263  0.2497
 9875TIP3    H151040   3.989   4.975   0.412  0.2540 -1.6675  0.7727
 9875TIP3    H251041   3.921   4.905   0.528 -0.2748  1.0692  2.1981
 9876TIP3   OH251042   3.359   5.521   4.841 -0.7212 -0.2859  0.3891
 9876TIP3    H151043   3.343   5.574   4.919 -2.5244  0.0349 -0.1493
 9876TIP3    H251044   3.454   5.514   4.836 -0.5454  0.2337  2.2388
 9877TIP3   OH251045   5.903   0.426  12.660  0.3027 -0.3122 -0.0625
 9877TIP3    H151046   5.850   0.392  12.588  1.8267 -1.7559 -0.5535
 9877TIP3    H251047   5.974   0.363  12.671  0.9662  0.6436  1.7309
 9878TIP3   OH251048   2.707   1.019   3.489 -0.3641 -0.6355  0.6187
 9878TIP3    H151049   2.784   1.070   3.515  0.0310 -1.3214  0.8082
 9878TIP3    H251050   2.743   0.938   3.454 -0.9988 -0.8640  0.4871
 9879TIP3   OH251051   4.864   5.299  12.477 -0.5175  0.2371 -0.0872
 9879TIP3    H151052   4.876   5.283  12.383 -2.5870 -0.0106 -0.3682
 9879TIP3    H251053   4.938   5.354  12.501 -0.6908  1.5585 -2.2293
 9880TIP3   OH251054   3.282   5.455  10.291 -0.0324 -0.2056  0.3649
 9880TIP3    H151055   3.296   5.519  10.221  0.1075 -2.7388 -2.1130
 9880TIP3    H251056   3.196   5.477  10.327  1.1783  3.0244  1.6361
 9881TIP3   OH251057   5.735   2.618  14.691 -0.1330 -0.6028  0.6722
 9881TIP3    H151058   5.721   2.680  14.763 -0.8418  0.9032 -0.7105
 9881TIP3    H251059   5.651   2.572  14.683 -0.1828 -0.4944  0.5648
 9882TIP3   OH251060   6.106   2.846   6.128  0.0430 -0.4122  0.1780
 9882TIP3    H151061   6.107   2.933   6.168  1.0032 -0.7152  0.8331
 9882TIP3    H251062   6.122   2.786   6.200  2.2060 -0.9551 -0.6856
 9883TIP3   OH251063   1.693   2.135  16.248 -0.4227  0.1329  0.0595
 9883TIP3    H151064   1.761   2.137  16.181 -1.0688  1.3703 -0.6048
 9883TIP3    H251065   1.621   2.087  16.208 -0.2931 -0.3590  0.4085
 9884TIP3   OH251066   3.602   2.860  16.939  0.0265  0.4006  0.6533
 9884TIP3    H151067   3.603   2.862  17.035 -1.1545  1.0216  0.6708
 9884TIP3    H251068   3.695   2.867  16.914  0.2806  1.3380  1.7392
 9885TIP3   OH251069   6.580   6.732   5.596  0.6395  0.0706 -0.4384
 9885TIP3    H151070   6.575   6.797   5.525  1.0603 -0.1700 -0.6909
 9885TIP3    H251071   6.673   6.723   5.614  0.5721 -0.3261 -0.2751
 9886TIP3   OH251072   1.992   3.102   1.676  0.0766  0.5489  0.6772
 9886TIP3    H151073   1.987   3.093   1.772 -1.0232 -0.5944  0.5402
 9886TIP3    H251074   1.935   3.176   1.656 -0.2022  0.3791  0.8467
 9887TIP3   OH251075   3.731   4.618   5.080  0.6505 -0.3826 -0.2622
 9887TIP3    H151076   3.651   4.622   5.133 -0.9851  0.4441 -2.6561
 9887TIP3    H251077   3.784   4.551   5.123 -2.1354 -2.4029  0.3251
 9888TIP3   OH251078   5.377   2.389   3.221  0.7427 -0.7493 -0.4360
 9888TIP3    H151079   5.321   2.375   3.144 -0.5484 -0.8695  0.4967
 9888TIP3    H251080   5.447   2.446   3.189 -1.6267  2.1607 -0.9296
 9889TIP3   OH251081   0.145   2.798   1.640  0.5890 -0.3670  0.3416
 9889TIP3    H151082   0.081   2.727   1.635  0.2437 -0.0005 -0.6393
 9889TIP3    H251083   0.093   2.874   1.666  0.8707 -0.3604  0.8919
 9890TIP3   OH251084   1.611   0.931  11.792  0.3518 -0.2329  0.1955
 9890TIP3    H151085   1.620   0.995  11.863  1.8483  1.9630 -1.7913
 9890TIP3    H251086   1.552   0.973  11.730 -1.0415 -2.1656  0.1492
 9891TIP3   OH251087   4.642   3.227   5.844 -0.2543  0.2627 -0.5078
 9891TIP3    H151088   4.688   3.172   5.908 -0.1708 -1.2804 -1.8223
 9891TIP3    H251089   4.705   3.238   5.772 -1.4248 -0.7750 -1.7496
 9892TIP3   OH251090   1.345   2.989  17.093 -0.1439 -0.4068  0.3606
 9892TIP3    H151091   1.375   3.049  17.162  0.7647 -0.1076 -0.2857
 9892TIP3    H251092   1.389   3.019  17.014  0.0299 -1.6971 -0.0521
 9893TIP3   OH251093   0.278   4.787   3.423  0.4194  0.0038 -0.0226
 9893TIP3    H151094   0.313   4.822   3.505 -0.2752  1.7873 -0.4575
 9893TIP3    H251095   0.219   4.717   3.451  0.2533  0.5349  1.0047
 9894TIP3   OH251096   3.841   1.003  15.477  0.0480 -0.5808  0.1593
 9894TIP3    H151097   3.791   0.972  15.552 -0.5513  1.8663  0.8841
 9894TIP3    H251098   3.809   1.092  15.462  0.6202 -0.7396 -2.6077
 9895TIP3   OH251099   4.795   1.011   1.104 -0.0518  0.0805  0.5161
 9895TIP3    H151100   4.721   1.067   1.128 -1.3748 -1.1497 -0.5626
 9895TIP3    H251101   4.871   1.070   1.108 -1.0831  1.4236  1.4556
 9896TIP3   OH251102   4.295   0.932  13.967 -0.1191 -0.6234 -0.1124
 9896TIP3    H151103   4.272   0.885  13.887  2.5812  1.5573 -2.3923
 9896TIP3    H251104   4.213   0.969  13.998 -1.4068 -2.3938 -1.2282
 9897TIP3   OH251105   3.547   0.512  13.260  0.5908  0.0936 -0.3983
 9897TIP3    H151106   3.470   0.503  13.203  1.0044  1.2153 -1.1678
 9897TIP3    H251107   3.520   0.473  13.343 -0.7235  0.2370 -0.7337
 9898TIP3   OH251108   3.251   2.237  14.228 -0.4967 -0.1807 -0.6094
 9898TIP3    H151109   3.261   2.165  14.290 -2.3119  0.7839  0.8977
 9898TIP3    H251110   3.258   2.195  14.142  1.0093 -1.7171  0.1974
 9899TIP3   OH251111   2.993   0.604  11.485 -0.0958 -0.5294  0.3700
 9899TIP3    H151112   3.086   0.583  11.478  0.5089  1.1082  2.4408
 9899TIP3    H251113   2.949   0.519  11.483  1.2377 -1.2666 -2.2576
 9900TIP3   OH251114   4.078   4.805   2.401  0.2985  0.3525  0.1447
 9900TIP3    H151115   4.051   4.723   2.443  0.2880  1.2535  2.0173
 9900TIP3    H251116   4.043   4.799   2.312 -0.4626 -1.2804  0.5065
 9901TIP3   OH251117   6.575   0.334   4.692  0.0210  0.3572 -0.1092
 9901TIP3    H151118   6.498   0.362   4.643  1.4926  0.5436 -2.4919
 9901TIP3    H251119   6.610   0.414   4.730 -1.5636  0.1061  2.0604
 9902TIP3   OH251120   1.739   4.082  15.496 -0.2214  0.4843 -0.2084
 9902TIP3    H151121   1.793   4.057  15.420  1.4880 -0.8380  1.3548
 9902TIP3    H251122   1.756   4.175  15.508  2.4014 -0.0343  0.6728
 9903TIP3   OH251123   6.140   0.206   4.881 -0.1438  0.3183  0.3334
 9903TIP3    H151124   6.209   0.150   4.917  1.2538  2.3650  1.0440
 9903TIP3    H251125   6.059   0.168   4.914  0.6639 -1.6966  0.1479
 9904TIP3   OH251126   2.766   4.081  14.932 -0.6161  0.2803  0.3729
 9904TIP3    H151127   2.796   4.063  15.022 -1.5148 -1.3375  0.3898
 9904TIP3    H251128   2.703   4.152  14.942  1.3235  2.0592  0.6300
 9905TIP3   OH251129   6.770   5.183   0.089  0.3680  0.2324  0.6674
 9905TIP3    H151130   6.835   5.113   0.092 -0.8206 -0.9615 -0.4937
 9905TIP3    H251131   6.809   5.250   0.032  0.8269 -0.2028  0.4645
 9906TIP3   OH251132   1.526   3.721  13.202  0.8155  0.3264  0.2006
 9906TIP3    H151133   1.571   3.797  13.166  2.2606 -1.3043 -1.7437
 9906TIP3    H251134   1.577   3.646  13.169 -0.3069 -1.4810  2.3086
 9907TIP3   OH251135   3.855   3.735  14.836  0.9584  0.5006 -0.4517
 9907TIP3    H151136   3.895   3.821  14.841 -0.4808  1.3663 -2.4624
 9907TIP3    H251137   3.929   3.675  14.823  1.9071  1.4791  0.2165
 9908TIP3   OH251138   6.618   2.295   3.717  0.2688 -0.0258  0.1246
 9908TIP3    H151139   6.683   2.273   3.650  0.9352 -0.6616  0.9574
 9908TIP3    H251140   6.548   2.338   3.668  1.2108  0.4839 -0.8301
 9909TIP3   OH251141   2.407   4.691  15.020  0.3924  0.6027  0.1498
 9909TIP3    H151142   2.421   4.686  14.925  1.3407  0.2510  0.2961
 9909TIP3    H251143   2.491   4.666  15.058 -0.6298 -1.5483  1.1248
 9910TIP3   OH251144   0.219   2.073  15.798 -0.2936  0.7371 -0.1861
 9910TIP3    H151145   0.202   2.146  15.738  1.2501  0.0494 -1.5231
 9910TIP3    H251146   0.186   2.105  15.882 -0.8232  2.4765 -0.9874
 9911TIP3   OH251147   0.720   4.692  14.518 -0.1078 -0.1172 -0.3357
 9911TIP3    H151148   0.800   4.742  14.536 -0.8711  0.7542  0.8639
 9911TIP3    H251149   0.660   4.757  14.480 -0.2585 -0.7615 -1.2150
 9912TIP3   OH251150   4.369   4.547  12.582  0.1285  0.1867 -0.5993
 9912TIP3    H151151   4.422   4.602  12.524  1.0623  0.0385  0.0989
 9912TIP3    H251152   4.413   4.462  12.583  0.0835  0.1636  0.2614
 9913TIP3   OH251153   2.197   1.993  10.849  0.2282 -0.0928 -0.8556
 9913TIP3    H151154   2.253   1.931  10.802  1.5170 -0.2570  0.7855
 9913TIP3    H251155   2.209   2.076  10.803 -1.3076 -0.9323 -2.9156
 9914TIP3   OH251156   4.963   1.191   2.432  0.0965  0.3904 -0.5233
 9914TIP3    H151157   4.991   1.186   2.341 -1.3781  0.6400 -1.0277
 9914TIP3    H251158   4.870   1.213   2.427 -0.0985  0.0664  1.0394
 9915TIP3   OH251159   5.060   4.274  11.179  0.0048  0.0423 -0.2650
 9915TIP3    H151160   5.050   4.239  11.091  1.0061 -0.5374 -0.1634
 9915TIP3    H251161   5.105   4.205  11.228 -2.1351 -0.4123  1.2142
 9916TIP3   OH251162   0.933   2.881   4.574  0.4400 -0.1158  0.0266
 9916TIP3    H151163   0.850   2.853   4.612  0.2818  0.4399  0.1095
 9916TIP3    H251164   0.998   2.867   4.643  0.1458  0.9372  0.5376
 9917TIP3   OH251165   1.677   3.783  16.797  0.3246 -0.0574 -0.3086
 9917TIP3    H151166   1.697   3.866  16.841  0.5856 -0.7357  0.8888
 9917TIP3    H251167   1.636   3.729  16.864 -0.8481 -0.5416 -1.3607
 9918TIP3   OH251168   5.816   5.527   6.175  0.7128  0.7697 -0.5067
 9918TIP3    H151169   5.734   5.534   6.225  1.1883  1.0176  0.2634
 9918TIP3    H251170   5.788   5.527   6.083 -0.1362  1.0322 -0.2630
 9919TIP3   OH251171   5.622   3.562   3.324  0.0544  1.1768 -0.5098
 9919TIP3    H151172   5.623   3.468   3.338 -0.2416  0.8341 -2.4446
 9919TIP3    H251173   5.633   3.600   3.411  2.2739 -0.6373  0.0913
 9920TIP3   OH251174   4.252   1.269  16.878 -0.5464  0.0458  0.3997
 9920TIP3    H151175   4.265   1.270  16.972 -1.2748  2.6143  0.5374
 9920TIP3    H251176   4.339   1.287  16.841 -0.4806  0.1886  0.6268
 9921TIP3   OH251177   2.893   1.918  16.343 -0.4151  0.1259 -0.1245
 9921TIP3    H151178   2.800   1.936  16.356 -0.4490 -0.0971 -0.0516
 9921TIP3    H251179   2.928   1.998  16.305 -0.6738  0.1460 -0.3212
 9922TIP3   OH251180   6.069   2.197   0.122  0.2833  0.2465 -0.8570
 9922TIP3    H151181   6.122   2.243   0.187 -1.2929  1.0929 -0.0793
 9922TIP3    H251182   6.044   2.115   0.164  1.3755 -0.3929 -1.4268
 9923TIP3   OH251183   5.529   1.876  14.183 -0.6227  0.1134 -0.1702
 9923TIP3    H151184   5.445   1.863  14.228 -0.2418  0.8056  0.7797
 9923TIP3    H251185   5.578   1.934  14.241 -0.1299  1.1082 -1.5339
 9924TIP3   OH251186   5.055   4.801  15.744  0.3550  0.6861 -0.8489
 9924TIP3    H151187   5.028   4.834  15.658 -0.3961  0.2852 -0.7701
 9924TIP3    H251188   5.051   4.706  15.735  0.1525  0.6454 -0.3251
 9925TIP3   OH251189   5.916   5.623   4.172 -0.0424 -0.4197  0.2782
 9925TIP3    H151190   5.822   5.617   4.189 -0.5827  1.6536 -1.5677
 9925TIP3    H251191   5.941   5.709   4.207  1.1572 -0.8636  0.5675
 9926TIP3   OH251192   4.334   3.120  10.794  0.3356  0.0516  0.1096
 9926TIP3    H151193   4.300   3.035  10.766  1.4392 -0.9853  1.7126
 9926TIP3    H251194   4.269   3.183  10.764 -2.5136 -1.7166  2.1025
 9927TIP3   OH251195   3.981   5.361   2.983 -0.3640  0.5000 -0.0283
 9927TIP3    H151196   3.989   5.456   2.990 -1.4359  0.5527  0.7301
 9927TIP3    H251197   3.894   5.342   3.016 -0.5034 -0.6720 -1.0076
 9928TIP3   OH251198   0.902   4.309  11.045 -0.5186 -0.5488  0.0408
 9928TIP3    H151199   0.959   4.373  11.001  0.5216 -0.3922  1.5521
 9928TIP3    H251200   0.866   4.257  10.973 -0.1321  0.6983 -1.1168
 9929TIP3   OH251201   1.395   2.782  12.030 -0.4516  0.1491  0.3365
 9929TIP3    H151202   1.380   2.877  12.031 -0.5372  0.1393  0.0659
 9929TIP3    H251203   1.371   2.753  12.118 -0.5692  0.3562  0.3733
 9930TIP3   OH251204   3.859   4.109   5.254  0.4433 -0.2119 -0.7372
 9930TIP3    H151205   3.786   4.048   5.259 -0.4497  0.9221  0.6417
 9930TIP3    H251206   3.827   4.181   5.200 -0.0529  1.0029  1.0988
 9931TIP3   OH251207   3.109   4.163  11.204 -0.0035 -0.0594 -0.1312
 9931TIP3    H151208   3.100   4.253  11.233  2.4216  0.2647 -0.1575
 9931TIP3    H251209   3.052   4.157  11.127 -3.7741  0.0386  2.3790
 9932TIP3   OH251210   6.340   5.667  13.867  0.3397  0.1097  0.1290
 9932TIP3    H151211   6.325   5.592  13.809  0.7510  0.9398 -1.1084
 9932TIP3    H251212   6.253   5.691  13.899  0.1943 -0.8159  0.4556
 9933TIP3   OH251213   3.244   6.214  14.183  0.1364 -0.2762  0.0662
 9933TIP3    H151214   3.214   6.130  14.146 -0.7444 -0.9475  2.1628
 9933TIP3    H251215   3.335   6.197  14.208 -0.3153 -0.9426  1.3357
 9934TIP3   OH251216   0.479   5.069  14.170  0.0292  0.7019 -0.1038
 9934TIP3    H151217   0.396   5.068  14.219  0.0459 -0.2478 -0.0814
 9934TIP3    H251218   0.456   5.040  14.082  0.0400  2.1954 -0.6307
 9935TIP3   OH251219   3.852   4.868   4.791  0.0323  0.0028  0.6138
 9935TIP3    H151220   3.799   4.861   4.870  0.6292 -0.1603  1.0035
 9935TIP3    H251221   3.876   4.961   4.786 -1.9738  0.5216 -0.6883
 9936TIP3   OH251222   3.280   1.504  11.934 -0.0844 -0.0857 -0.4443
 9936TIP3    H151223   3.245   1.549  11.858 -2.9377 -1.0921  0.1392
 9936TIP3    H251224   3.247   1.553  12.009 -0.3970 -1.1672  0.1561
 9937TIP3   OH251225   0.389   2.432   4.798  0.3958  0.2659 -0.3118
 9937TIP3    H151226   0.405   2.356   4.854  0.0327 -0.3486 -1.0192
 9937TIP3    H251227   0.344   2.396   4.722 -1.6629  1.4870  0.2501
 9938TIP3   OH251228   0.234   0.570  15.311  0.0278 -0.1394 -0.2753
 9938TIP3    H151229   0.216   0.476  15.312 -1.2726  0.0617 -1.7294
 9938TIP3    H251230   0.271   0.586  15.225  0.9399  0.5875  0.2343
 9939TIP3   OH251231   3.035   0.426   2.143  0.0613 -0.2412  0.4700
 9939TIP3    H151232   3.128   0.433   2.123  0.4902  0.1791  2.3668
 9939TIP3    H251233   3.009   0.341   2.108  0.5338  0.6334 -2.1900
 9940TIP3   OH251234   1.308   1.652  13.777 -0.5535  0.5620  0.0584
 9940TIP3    H151235   1.266   1.683  13.858 -2.0168 -0.1445 -0.4008
 9940TIP3    H251236   1.236   1.644  13.714  0.3128 -0.4637 -0.8349
 9941TIP3   OH251237   1.026   0.748  16.908  0.1841 -0.2505 -0.3291
 9941TIP3    H151238   0.997   0.681  16.970  0.5394  3.1390  3.9035
 9941TIP3    H251239   1.115   0.722  16.886  0.0333 -1.5943  0.4908
 9942TIP3   OH251240   1.342   5.412   2.809 -0.4451  0.1253  0.2970
 9942TIP3    H151241   1.327   5.494   2.855 -0.7186 -0.0304  0.4904
 9942TIP3    H251242   1.266   5.358   2.832 -1.0556  0.3690 -1.0441
 9943TIP3   OH251243   5.377   3.077  14.421  0.0190 -0.3833  0.6167
 9943TIP3    H151244   5.337   3.024  14.353 -1.3714 -1.2673  2.0374
 9943TIP3    H251245   5.469   3.051  14.422  0.4449  0.7438 -1.8698
 9944TIP3   OH251246   3.341   0.091   3.924 -0.1767  0.2280 -0.0266
 9944TIP3    H151247   3.283   0.142   3.868  0.5864  0.4965 -0.5866
 9944TIP3    H251248   3.283   0.030   3.969 -0.8576  0.2933 -0.7930
 9945TIP3   OH251249   3.772   0.833  12.920 -0.2336  0.3465 -0.2681
 9945TIP3    H151250   3.710   0.764  12.899 -1.0884  0.4348  1.7347
 9945TIP3    H251251   3.848   0.787  12.957 -0.2124  0.3817 -0.2677
 9946TIP3   OH251252   3.194   4.663   1.360  0.4176 -0.4997  0.5227
 9946TIP3    H151253   3.254   4.730   1.328 -0.2623 -0.0483  0.1442
 9946TIP3    H251254   3.209   4.588   1.303  0.9512 -0.5489  0.7299
 9947TIP3   OH251255   2.996   5.737  16.396 -0.3779 -0.0808 -0.3335
 9947TIP3    H151256   3.091   5.744  16.405 -0.3457  1.6013 -1.4371
 9947TIP3    H251257   2.983   5.672  16.328  0.0840  0.9132 -1.4079
 9948TIP3   OH251258   3.961   0.038  16.901 -0.6611 -0.3957  0.4992
 9948TIP3    H151259   3.914   0.093  16.964  0.4161  2.9529 -1.3409
 9948TIP3    H251260   4.053   0.045  16.927 -0.4862 -1.3872  0.2014
 9949TIP3   OH251261   3.595   0.320   4.757  0.0063  0.2161  0.3445
 9949TIP3    H151262   3.658   0.289   4.822  0.4264 -0.1234 -0.2216
 9949TIP3    H251263   3.591   0.251   4.691 -0.0484  0.7676 -0.2427
 9950TIP3   OH251264   1.570   3.173   4.909 -0.4102  0.7502 -0.1882
 9950TIP3    H151265   1.566   3.079   4.928 -1.1853  0.6334 -0.8907
 9950TIP3    H251266   1.508   3.213   4.970 -1.1121  0.6412 -0.8151
 9951TIP3   OH251267   0.713   5.616   1.531  0.0773 -0.0426  0.0652
 9951TIP3    H151268   0.756   5.698   1.558  1.2572 -0.1157 -1.4833
 9951TIP3    H251269   0.668   5.586   1.610  2.6488  0.2080  1.7553
 9952TIP3   OH251270   6.719   3.900   4.729  0.1319 -0.1421  0.4588
 9952TIP3    H151271   6.705   3.812   4.765 -0.3016 -1.7822 -3.2869
 9952TIP3    H251272   6.795   3.891   4.672 -1.2450  1.2638 -1.7343
 9953TIP3   OH251273   3.802   6.392  16.214  0.0140  0.0655 -0.1621
 9953TIP3    H151274   3.811   6.487  16.210  2.7308 -0.1665 -3.2693
 9953TIP3    H251275   3.872   6.364  16.272 -0.3438 -0.1185  0.1872
 9954TIP3   OH251276   2.617   3.861  15.675  0.3423  0.1081 -0.0264
 9954TIP3    H151277   2.626   3.767  15.685  1.0980  0.2727  1.0079
 9954TIP3    H251278   2.592   3.892  15.763  0.4773  0.9098 -0.2654
 9955TIP3   OH251279   5.330   6.601   3.588 -0.9741  0.3106 -0.4069
 9955TIP3    H151280   5.244   6.632   3.617 -0.7352  0.4157  0.1974
 9955TIP3    H251281   5.392   6.662   3.628 -0.4892 -0.9448  0.8052
 9956TIP3   OH251282   5.485   6.175  14.847 -0.4135 -0.5389 -0.3534
 9956TIP3    H151283   5.541   6.106  14.812  0.1717  0.0106 -0.5360
 9956TIP3    H251284   5.498   6.249  14.787 -1.7345 -0.5585 -0.6875
 9957TIP3   OH251285   2.993   3.877  12.965  0.4045 -0.3444 -0.3204
 9957TIP3    H151286   3.045   3.797  12.961  0.9729 -0.0696  0.8397
 9957TIP3    H251287   2.934   3.872  12.890  1.1897 -1.3124 -0.9003
 9958TIP3   OH251288   0.667   3.713  16.455 -0.2078  0.6108 -0.4359
 9958TIP3    H151289   0.705   3.767  16.385 -0.5372 -0.2241 -1.2798
 9958TIP3    H251290   0.690   3.759  16.536  1.7917  0.6129 -0.9635
 9959TIP3   OH251291   3.721   3.879  16.414  0.0401  0.2722 -0.0562
 9959TIP3    H151292   3.741   3.915  16.500 -0.9353  2.0425 -0.5295
 9959TIP3    H251293   3.788   3.915  16.356 -0.6541  0.9795 -0.4438
 9960TIP3   OH251294   4.229   5.674  13.609 -0.2752  0.0007 -0.4244
 9960TIP3    H151295   4.273   5.636  13.533 -1.9207  0.7188 -1.7943
 9960TIP3    H251296   4.136   5.656  13.595 -0.6646  0.4281  1.2847
 9961TIP3   OH251297   1.464   5.193  11.082  0.2714 -0.7071  0.1974
 9961TIP3    H151298   1.452   5.282  11.116 -0.6342 -0.3999 -0.8570
 9961TIP3    H251299   1.555   5.172  11.103 -0.1439 -0.4772  2.5578
 9962TIP3   OH251300   1.833   6.708   4.674  0.2917 -0.5654 -0.3842
 9962TIP3    H151301   1.828   6.751   4.588 -0.3115 -0.2146 -0.1765
 9962TIP3    H251302   1.927   6.693   4.687  0.5936  1.2461 -0.1789
 9963TIP3   OH251303   5.851   0.439  13.886 -0.0939  0.0064  0.1951
 9963TIP3    H151304   5.818   0.513  13.835  1.2636  1.3891  1.1935
 9963TIP3    H251305   5.782   0.422  13.950 -0.5858  0.1481 -0.2840
 9964TIP3   OH251306   3.605   0.963   3.790 -0.2190  0.4420 -0.2438
 9964TIP3    H151307   3.549   1.023   3.740 -0.4455 -0.8717 -1.6147
 9964TIP3    H251308   3.667   0.928   3.726  1.4297  0.9278  1.0108
 9965TIP3   OH251309   1.047   1.533   4.158  0.1318  0.2993 -0.3524
 9965TIP3    H151310   0.951   1.532   4.150  0.1186 -0.3635 -0.1309
 9965TIP3    H251311   1.072   1.618   4.122 -0.7348  1.5677  1.8531
 9966TIP3   OH251312   3.781   0.338  11.696  0.0806  0.0066 -0.3020
 9966TIP3    H151313   3.824   0.314  11.778 -0.3466 -0.5200 -0.2271
 9966TIP3    H251314   3.730   0.260  11.672  1.1608 -0.3118 -1.7077
 9967TIP3   OH251315   4.473   4.769   3.966 -0.6182  0.1422  0.3672
 9967TIP3    H151316   4.490   4.719   4.045  2.7271  0.5279  0.0380
 9967TIP3    H251317   4.438   4.705   3.904  0.9471 -1.2370  0.8270
 9968TIP3   OH251318   6.267   6.207  11.874  0.3943  0.0942  0.6194
 9968TIP3    H151319   6.328   6.145  11.834 -0.2074 -1.6825  2.3083
 9968TIP3    H251320   6.311   6.237  11.953 -0.1465  0.2742  0.8550
 9969TIP3   OH251321   3.064   1.778  14.214  0.4076 -0.4097 -0.3585
 9969TIP3    H151322   3.072   1.862  14.260 -0.6697 -0.1320 -0.6586
 9969TIP3    H251323   3.046   1.714  14.283  0.6995 -0.3150 -0.1897
 9970TIP3   OH251324   5.097   1.882   0.745  0.1184 -0.7405 -0.4213
 9970TIP3    H151325   5.059   1.959   0.788  0.9968  0.3271 -1.4773
 9970TIP3    H251326   5.026   1.817   0.743 -0.6679  0.0689  0.4142
 9971TIP3   OH251327   1.084   1.157  15.702 -0.3206  0.1961  0.2920
 9971TIP3    H151328   1.004   1.156  15.754 -2.0117  1.4803 -2.0776
 9971TIP3    H251329   1.090   1.246  15.669  0.7686 -0.4920 -1.4986
 9972TIP3   OH251330   5.470   4.754  17.005 -0.1968 -0.1091 -0.2262
 9972TIP3    H151331   5.445   4.671  16.967  0.5965 -0.3260 -0.2942
 9972TIP3    H251332   5.539   4.732  17.068 -0.2922  0.4419  0.0820
 9973TIP3   OH251333   5.863   0.573   2.500  0.0535  0.3466  0.7056
 9973TIP3    H151334   5.833   0.501   2.554 -1.5185 -0.2724 -0.8950
 9973TIP3    H251335   5.802   0.575   2.426  1.0913  2.2162 -0.1804
 9974TIP3   OH251336   0.807   5.501  16.689 -0.0428  0.0524  0.6107
 9974TIP3    H151337   0.866   5.464  16.755 -1.5421 -1.9798  0.8924
 9974TIP3    H251338   0.743   5.432  16.673 -1.4645  1.6288 -0.7972
 9975TIP3   OH251339   1.757   4.809  16.480 -0.0392  0.2827  0.3873
 9975TIP3    H151340   1.782   4.717  16.471 -2.3954 -0.3753 -0.2950
 9975TIP3    H251341   1.743   4.820  16.574  0.7797  0.1183  0.5373
 9976TIP3   OH251342   6.607   6.501   4.461 -0.0467 -0.3193 -0.2893
 9976TIP3    H151343   6.580   6.473   4.549 -0.3007 -1.1951 -0.6334
 9976TIP3    H251344   6.566   6.438   4.402 -2.2039  1.8914 -1.2807
 9977TIP3   OH251345   4.642   2.056  14.268 -0.0692  0.3764 -0.1385
 9977TIP3    H151346   4.683   2.051  14.354 -2.0159  0.3573  0.8256
 9977TIP3    H251347   4.549   2.042  14.284 -0.4006 -0.4564 -2.3422
 9978TIP3   OH251348   4.126   4.457   6.229 -0.0513 -0.1045 -0.1654
 9978TIP3    H151349   4.096   4.439   6.140 -0.5756 -0.9536  0.1783
 9978TIP3    H251350   4.055   4.506   6.269  1.0636  2.2499 -0.8614
 9979TIP3   OH251351   2.909   6.112   2.393 -0.1793  0.1657  0.7337
 9979TIP3    H151352   2.814   6.117   2.380 -0.3834  1.9740  2.4269
 9979TIP3    H251353   2.920   6.118   2.488  1.6294 -0.4794  0.5974
 9980TIP3   OH251354   3.038   1.477  12.587 -0.9315 -0.2038 -0.2339
 9980TIP3    H151355   2.968   1.413  12.579 -0.8807 -0.6270  2.0051
 9980TIP3    H251356   2.995   1.561  12.573 -2.2672 -0.3421  2.3067
 9981TIP3   OH251357   0.861   2.072   5.791 -0.0905  0.2079  0.1109
 9981TIP3    H151358   0.885   1.980   5.783 -1.0903  0.0550 -1.5782
 9981TIP3    H251359   0.881   2.094   5.882 -0.2578 -1.7882  0.6764
 9982TIP3   OH251360   0.689   1.360  11.794  0.2714 -0.2969  0.5006
 9982TIP3    H151361   0.711   1.284  11.740  0.6179 -0.5425  0.9803
 9982TIP3    H251362   0.652   1.323  11.874  1.5461 -0.0251  1.2512
 9983TIP3   OH251363   4.240   3.941   3.796 -0.0247 -0.1218  0.2099
 9983TIP3    H151364   4.181   3.900   3.733  1.8697 -0.7560 -1.2621
 9983TIP3    H251365   4.243   4.033   3.770  0.2944 -0.2658 -0.2808
 9984TIP3   OH251366   1.845   2.428  13.175 -0.1963 -0.0723  0.0084
 9984TIP3    H151367   1.847   2.332  13.174  0.2921 -0.0757 -1.8275
 9984TIP3    H251368   1.765   2.451  13.128  0.8753  0.3888 -1.6776
 9985TIP3   OH251369   1.418   2.122   0.565 -0.0447 -0.4240  0.3220
 9985TIP3    H151370   1.353   2.056   0.540 -0.3159 -0.0824  0.0966
 9985TIP3    H251371   1.370   2.205   0.559  0.2955 -0.2074  0.5804
 9986TIP3   OH251372   3.122   5.703   4.520 -0.0622 -0.3045 -0.6678
 9986TIP3    H151373   3.057   5.651   4.473 -0.4337 -0.1787 -0.3032
 9986TIP3    H251374   3.109   5.678   4.612  1.6703 -1.6984 -0.7500
 9987TIP3   OH251375   1.618   2.173   1.813 -0.4071 -0.2433 -0.6931
 9987TIP3    H151376   1.699   2.122   1.818 -0.2110  0.1410  0.1957
 9987TIP3    H251377   1.550   2.113   1.845 -0.0568  0.2700  1.1407
 9988TIP3   OH251378   0.819   2.099   2.069 -0.0952 -0.0151  0.1573
 9988TIP3    H151379   0.911   2.092   2.042  1.3991 -0.5213  4.5173
 9988TIP3    H251380   0.811   2.188   2.103 -1.0150 -0.1817  0.4134
 9989TIP3   OH251381   5.264   1.971  13.435  0.7548  0.3996  0.3596
 9989TIP3    H151382   5.298   1.955  13.523 -0.7288  0.0942  0.8943
 9989TIP3    H251383   5.275   2.065  13.421 -2.0107  1.1188  2.2303
 9990TIP3   OH251384   4.499   2.712   5.366 -0.2829 -0.8029 -0.2210
 9990TIP3    H151385   4.519   2.673   5.282 -0.6101  0.1996 -0.7814
 9990TIP3    H251386   4.534   2.801   5.360 -0.7520 -0.5612  0.5124
 9991TIP3   OH251387   3.683   6.553  13.380  0.2678  0.3792 -0.2805
 9991TIP3    H151388   3.733   6.500  13.317 -0.1989  1.2551 -1.4204
 9991TIP3    H251389   3.599   6.508  13.387  0.1850  0.4805 -0.5849
 9992TIP3   OH251390   3.274   2.915   2.599 -0.1916  0.3578  0.3185
 9992TIP3    H151391   3.320   2.913   2.515 -2.4969 -0.5148 -1.0222
 9992TIP3    H251392   3.305   2.995   2.641  1.1553  0.7348 -1.2752
 9993TIP3   OH251393   3.346   4.292  15.184  0.7507 -0.3340 -0.0453
 9993TIP3    H151394   3.420   4.353  15.187 -0.1034  0.7502  0.0206
 9993TIP3    H251395   3.375   4.222  15.126  1.6683  0.2857 -0.3732
 9994TIP3   OH251396   6.260   0.925  14.598 -0.0833 -0.0229  0.7120
 9994TIP3    H151397   6.253   0.842  14.645  0.7806 -0.5963 -0.1505
 9994TIP3    H251398   6.316   0.979  14.654  2.7764 -1.4506 -0.5908
 9995TIP3   OH251399   1.118   4.503   4.860 -0.3920 -0.0536  0.7171
 9995TIP3    H151400   1.191   4.482   4.918 -1.4268 -0.1728  2.0181
 9995TIP3    H251401   1.128   4.597   4.843  0.5931 -0.2547  0.0989
 9996TIP3   OH251402   6.734   6.426  13.662 -0.1153 -0.2617  0.3826
 9996TIP3    H151403   6.664   6.418  13.726  0.9762 -3.1132  1.3816
 9996TIP3    H251404   6.705   6.496  13.603 -2.1458  1.0008  2.7017
 9997TIP3   OH251405   1.148   6.297   3.420  0.7307 -0.0128  0.2503
 9997TIP3    H151406   1.080   6.335   3.365  0.6422  2.1803  1.7542
 9997TIP3    H251407   1.117   6.208   3.439 -1.4587  0.7327  0.4318
 9998TIP3   OH251408   6.734   5.935  14.869  0.1877  0.7064 -0.3059
 9998TIP3    H151409   6.640   5.955  14.873 -0.0025 -0.2419  0.2817
 9998TIP3    H251410   6.742   5.871  14.799  0.5897  1.6803 -1.1852
 9999TIP3   OH251411   5.312   2.561  13.762 -0.1359  0.4367  0.2228
 9999TIP3    H151412   5.329   2.632  13.824 -0.1900  1.6780 -1.1161
 9999TIP3    H251413   5.258   2.602  13.694 -1.7955 -1.3930  0.3657
10000TIP3   OH251414   0.435   4.230  15.352  0.3694 -0.1398  0.0961
10000TIP3    H151415   0.374   4.298  15.320 -2.8180 -2.1386  1.4367
10000TIP3    H251416   0.432   4.238  15.447  2.1166 -0.4906  0.2166
10001TIP3   OH251417   2.588   5.537   0.021 -0.4148 -0.1855  0.2450
10001TIP3    H151418   2.626   5.613  -0.024 -0.3830 -0.0550  0.4886
10001TIP3    H251419   2.562   5.478  -0.049  0.9643 -0.6296  0.0957
10002TIP3   OH251420   5.781   4.016   1.277 -0.0287  0.0528  0.4614
10002TIP3    H151421   5.830   3.999   1.196  0.3866 -0.5014  0.8173
10002TIP3    H251422   5.762   4.109   1.275 -0.5155 -0.0605 -0.5506
10003TIP3   OH251423   1.635   2.579  15.846  0.2134 -0.2263  0.4571
10003TIP3    H151424   1.728   2.564  15.868  0.2253 -0.6047  0.1681
10003TIP3    H251425   1.625   2.541  15.759  0.1195  1.1118 -0.1382
10004TIP3   OH251426   5.855   2.378  13.118 -0.5917 -0.3605 -0.0472
10004TIP3    H151427   5.914   2.453  13.109 -1.2637 -0.0087 -2.0561
10004TIP3    H251428   5.800   2.400  13.193 -1.4116  1.6559 -1.1715
10005TIP3   OH251429   1.415   2.311  16.201  0.0319  0.0769  0.4010
10005TIP3    H151430   1.501   2.324  16.241  0.2617  3.1899 -0.8663
10005TIP3    H251431   1.354   2.355  16.260 -0.3846 -0.1800  0.1654
10006TIP3   OH251432   0.979   0.037   2.224  0.2725 -0.0402 -0.7149
10006TIP3    H151433   0.927   0.091   2.283 -0.0132  0.1703 -1.1574
10006TIP3    H251434   0.930  -0.045   2.217  2.1254 -1.5750  2.2783
10007TIP3   OH251435   3.969   1.192  13.229  0.0341  0.3293 -0.0082
10007TIP3    H151436   3.934   1.173  13.141  0.9873 -0.1504 -0.2932
10007TIP3    H251437   4.060   1.218  13.213 -0.2492  1.8813  0.6953
10008TIP3   OH251438   6.672   1.642  12.018 -0.1883  0.1680 -0.2010
10008TIP3    H151439   6.717   1.673  11.940  0.8984  1.4229  0.8630
10008TIP3    H251440   6.657   1.549  12.002  0.8503  0.1965 -1.4999
10009TIP3   OH251441   4.339   2.217  13.289  0.0108 -0.2930 -0.0669
10009TIP3    H151442   4.256   2.204  13.335 -1.2188 -0.9414 -2.3067
10009TIP3    H251443   4.400   2.156  13.332 -1.0327 -0.7825  0.7602
10010TIP3   OH251444   5.705   6.747  14.300 -0.2540  0.3672  0.3110
10010TIP3    H151445   5.739   6.794  14.224 -0.3582  0.6560  0.4402
10010TIP3    H251446   5.734   6.657  14.288 -1.0380  0.2045 -0.5436
10011TIP3   OH251447   1.525   0.934   5.536 -0.2068  0.3996  0.0550
10011TIP3    H151448   1.459   0.874   5.570 -0.5230  1.2495  0.9920
10011TIP3    H251449   1.607   0.885   5.539 -0.2483  0.4023  1.9605
10012TIP3   OH251450   1.574   6.127  12.606 -0.2269  0.6184 -0.5928
10012TIP3    H151451   1.483   6.126  12.576 -0.9111  0.8211  1.3219
10012TIP3    H251452   1.568   6.152  12.698  1.9198  2.4454 -0.8699
10013TIP3   OH251453   2.837   2.657  11.726  0.6831  0.0246  0.0136
10013TIP3    H151454   2.848   2.572  11.769 -1.7856  0.8515  2.6000
10013TIP3    H251455   2.787   2.638  11.647 -0.3934 -0.8964  0.8805
10014TIP3   OH251456   3.656   1.341  11.477 -0.2469 -0.4867 -0.3192
10014TIP3    H151457   3.584   1.396  11.446  1.2024  2.0193  0.4841
10014TIP3    H251458   3.657   1.353  11.572  1.4791 -0.1245 -0.3606
10015TIP3   OH251459   6.486   3.501  13.680  0.6598 -0.4898 -0.2298
10015TIP3    H151460   6.564   3.449  13.660  1.3079  0.8723 -1.3849
10015TIP3    H251461   6.414   3.453  13.639  1.1423 -0.8426 -0.6718
10016TIP3   OH251462   4.711   5.847  12.296 -0.3990  0.0025  0.0186
10016TIP3    H151463   4.629   5.808  12.325 -0.7498  0.6597 -0.0768
10016TIP3    H251464   4.692   5.940  12.287  0.7262  0.3828  1.3036
10017TIP3   OH251465   3.184   5.496   1.597 -0.0250  0.1330 -0.7381
10017TIP3    H151466   3.213   5.587   1.598 -3.5160  1.3588 -0.4543
10017TIP3    H251467   3.161   5.477   1.688 -0.8511 -0.4732 -1.0606
10018TIP3   OH251468   2.266   0.044   0.161  0.2464  0.5368 -0.6725
10018TIP3    H151469   2.223   0.015   0.242 -3.5647  1.5977 -2.1033
10018TIP3    H251470   2.342   0.095   0.191  1.0130 -1.9138  2.0587
10019TIP3   OH251471   4.999   6.022   5.356  0.6941 -0.1669 -0.0447
10019TIP3    H151472   5.046   5.938   5.357  0.6659 -0.1780  0.1980
10019TIP3    H251473   4.937   6.016   5.428  2.4757  1.1041  1.7018
10020TIP3   OH251474   5.425   1.439  13.115 -0.3075  0.2461  0.2217
10020TIP3    H151475   5.330   1.435  13.122 -0.4022  1.3337 -0.1805
10020TIP3    H251476   5.457   1.375  13.178 -1.2811  1.9924  2.6429
10021TIP3   OH251477   4.631   4.886  12.099  0.1793 -0.0474  0.2804
10021TIP3    H151478   4.710   4.840  12.125 -0.7509 -1.1068  1.3242
10021TIP3    H251479   4.593   4.918  12.181 -0.8762 -0.2184 -0.1255
10022TIP3   OH251480   5.118   3.929   3.770  0.5885  0.0890 -0.1295
10022TIP3    H151481   5.032   3.888   3.767  0.8601 -0.4185 -1.4261
10022TIP3    H251482   5.176   3.869   3.723  1.8240  0.0498  1.3357
10023TIP3   OH251483   0.314   0.555  15.815  0.1521 -0.0334  0.1091
10023TIP3    H151484   0.239   0.503  15.786  0.5097 -0.7373  0.4261
10023TIP3    H251485   0.363   0.496  15.873  1.9209 -0.2474 -1.4971
10024TIP3   OH251486   3.124   3.022   0.796 -0.5494  0.3753 -0.4556
10024TIP3    H151487   3.050   3.068   0.834 -0.9257  0.7041 -1.5562
10024TIP3    H251488   3.089   2.938   0.767  0.1825 -0.7823  1.7577
10025TIP3   OH251489   3.408   4.199   5.786 -0.2766 -0.4480  0.5624
10025TIP3    H151490   3.441   4.109   5.779  0.8704  0.0352 -0.8611
10025TIP3    H251491   3.487   4.253   5.790 -0.9481  0.5271  1.2135
10026TIP3   OH251492   4.097   3.925  16.435  0.3261  0.4386 -0.0693
10026TIP3    H151493   4.074   3.832  16.426 -1.2163  0.7001  0.7551
10026TIP3    H251494   4.156   3.943  16.362 -0.4203 -0.8592 -1.0295
10027TIP3   OH251495   6.279   0.238  13.682  0.0707  0.0857 -0.2224
10027TIP3    H151496   6.214   0.232  13.613 -1.1841 -2.5949  1.0267
10027TIP3    H251497   6.363   0.248  13.636 -0.9344  0.7318 -1.9838
10028TIP3   OH251498   0.825   6.186  12.458 -0.4136 -0.2310  0.4604
10028TIP3    H151499   0.806   6.275  12.429 -0.2794 -0.6522 -0.9856
10028TIP3    H251500   0.888   6.152  12.394 -1.7152 -1.9348 -0.0002
10029TIP3   OH251501   4.742   1.432   4.621  0.0321 -0.4115  0.3149
10029TIP3    H151502   4.712   1.484   4.547  2.2855  0.8737  0.2242
10029TIP3    H251503   4.803   1.368   4.583  1.2641  0.3044  1.0256
10030TIP3   OH251504   1.512   3.050   3.434  0.2416  0.0622  0.1172
10030TIP3    H151505   1.521   3.145   3.445 -1.3172  0.1021  1.4406
10030TIP3    H251506   1.578   3.012   3.491 -2.7018  0.3813  4.1432
10031TIP3   OH251507   2.418   1.108   5.113 -0.2430 -0.3269 -0.4187
10031TIP3    H151508   2.438   1.036   5.053  0.2416  0.3635 -1.1137
10031TIP3    H251509   2.363   1.167   5.062  0.5072  0.4685 -0.3436
10032TIP3   OH251510   6.527   1.000  16.174  0.4175 -0.7054 -0.3803
10032TIP3    H151511   6.545   0.906  16.182 -1.7802 -1.1548 -0.1478
10032TIP3    H251512   6.481   1.023  16.255 -0.7203  0.1401 -1.2353
10033TIP3   OH251513   4.053   6.783   2.136  0.2218  0.3467 -0.1727
10033TIP3    H151514   3.973   6.833   2.152  0.3719  1.5089 -2.5497
10033TIP3    H251515   4.123   6.837   2.172  0.1013  0.2721  0.1725
10034TIP3   OH251516   0.650   4.497   5.878 -0.1053  0.1789  0.3262
10034TIP3    H151517   0.579   4.546   5.836 -1.3139 -1.6907  0.0680
10034TIP3    H251518   0.619   4.480   5.967 -0.2121 -1.0591  0.0693
10035TIP3   OH251519   5.749   3.236   0.685 -0.1068 -0.1499 -0.3465
10035TIP3    H151520   5.829   3.207   0.729  0.0402  0.1118 -0.4369
10035TIP3    H251521   5.743   3.181   0.607  0.0799 -0.0531 -0.4300
10036TIP3   OH251522   3.470   2.215  15.705 -0.5603  0.1339  0.0519
10036TIP3    H151523   3.403   2.158  15.743 -0.4762 -0.1986 -0.2916
10036TIP3    H251524   3.551   2.164  15.710 -0.8432 -0.5893 -2.0632
10037TIP3   OH251525   4.991   0.442  12.454 -0.3509  0.3812 -0.3170
10037TIP3    H151526   4.908   0.396  12.438  0.6922 -1.2761 -1.1984
10037TIP3    H251527   4.999   0.441  12.550  0.2928 -2.6377 -0.3053
10038TIP3   OH251528   1.654   5.465  15.657 -0.1749 -0.1871 -0.0151
10038TIP3    H151529   1.699   5.385  15.684  0.5688 -0.3528 -1.6470
10038TIP3    H251530   1.724   5.522  15.625 -0.9035  0.3556 -0.6750
10039TIP3   OH251531   2.736   2.109   2.645  0.1967  0.0318 -0.0932
10039TIP3    H151532   2.687   2.114   2.564 -0.9704 -2.2435  0.3993
10039TIP3    H251533   2.826   2.095   2.618 -0.3838 -2.2527 -1.0555
10040TIP3   OH251534   0.545   5.803   2.203  0.7034  0.1193  0.2100
10040TIP3    H151535   0.451   5.796   2.219  0.6125  0.6434 -0.0762
10040TIP3    H251536   0.552   5.850   2.120  1.2064 -0.6640 -0.2064
10041TIP3   OH251537   6.687   3.951   0.391  0.0096  0.4201  0.4547
10041TIP3    H151538   6.697   4.045   0.409  0.6700  0.3508  0.4566
10041TIP3    H251539   6.775   3.915   0.403 -0.2324 -0.1917  0.3985
10042TIP3   OH251540   5.013   6.645  10.802 -0.2476  0.1883 -0.3987
10042TIP3    H151541   5.083   6.677  10.746  0.4752 -0.9569 -0.1663
10042TIP3    H251542   5.052   6.636  10.888 -0.7301 -0.2620 -0.2169
10043TIP3   OH251543   5.949   0.016  15.574 -0.0803  0.0476 -0.0981
10043TIP3    H151544   5.875   0.025  15.515  0.7507 -1.9780 -1.5824
10043TIP3    H251545   5.978   0.106  15.590 -1.2774  0.7396 -1.5536
10044TIP3   OH251546   2.435   3.129   0.254  0.3168  0.4186 -0.0753
10044TIP3    H151547   2.431   3.114   0.349  0.0144 -0.1681 -0.1728
10044TIP3    H251548   2.452   3.042   0.218 -2.1034  0.1403 -0.7235
10045TIP3   OH251549   2.131   5.459   0.129 -0.2819  0.5084  0.5883
10045TIP3    H151550   2.175   5.539   0.157 -0.9771  1.0922  0.0358
10045TIP3    H251551   2.091   5.425   0.210  1.3482 -0.1700  1.1497
10046TIP3   OH251552   5.626   5.324   3.898 -0.5071  0.2527  0.0339
10046TIP3    H151553   5.674   5.302   3.978  0.3332  0.5609 -0.3693
10046TIP3    H251554   5.632   5.245   3.844 -1.6174 -0.1775  0.5190
10047TIP3   OH251555   5.090   3.545  12.974  0.5597 -0.3024  0.1974
10047TIP3    H151556   5.177   3.583  12.963  0.6054 -0.5714 -0.4137
10047TIP3    H251557   5.035   3.591  12.910  0.2085 -0.0062  0.7051
10048TIP3   OH251558   1.395   5.171  13.455 -0.2801 -0.6302  0.4305
10048TIP3    H151559   1.466   5.223  13.492 -0.3944  1.3149 -1.8481
10048TIP3    H251560   1.437   5.091  13.424  1.0705  0.6989 -1.3110
10049TIP3   OH251561   4.522   6.562   5.870  0.4094  0.2448 -0.5273
10049TIP3    H151562   4.481   6.647   5.890  1.1293  0.1543  1.5064
10049TIP3    H251563   4.468   6.498   5.916  0.8840 -0.2214 -0.6125
10050TIP3   OH251564   3.403   3.228  12.700  0.6648  0.3227  0.0997
10050TIP3    H151565   3.425   3.192  12.614  0.0108 -0.0324  0.0691
10050TIP3    H251566   3.450   3.172  12.762  0.7271  0.2529 -0.0095
10051TIP3   OH251567   4.652   2.165   3.258  0.0606 -0.2236 -0.1855
10051TIP3    H151568   4.641   2.097   3.325 -1.2511 -1.4590 -1.5785
10051TIP3    H251569   4.589   2.233   3.283 -1.3215 -1.2343 -0.7806
10052TIP3   OH251570   5.642   1.507   1.081  0.6493  0.6533  0.3824
10052TIP3    H151571   5.717   1.536   1.133  1.0500 -0.1238  0.2456
10052TIP3    H251572   5.641   1.566   1.005  1.4376  0.3362  0.1185
10053TIP3   OH251573   1.347   2.012   2.235 -0.1972 -0.0640 -0.0137
10053TIP3    H151574   1.283   1.968   2.291  1.6161 -3.2252 -0.1614
10053TIP3    H251575   1.326   1.982   2.147 -1.0774  2.3574 -0.7044
10054TIP3   OH251576   3.256   6.160  12.161  0.1941 -0.5496  0.0145
10054TIP3    H151577   3.209   6.113  12.092 -1.3760 -0.0883  0.7008
10054TIP3    H251578   3.254   6.251  12.133  2.9248 -0.7786 -1.1448
10055TIP3   OH251579   6.264   4.639  15.691  0.3398  0.0951 -0.1949
10055TIP3    H151580   6.208   4.610  15.763  0.2658  0.1390 -0.2344
10055TIP3    H251581   6.340   4.582  15.696  1.6405  1.8298  1.6348
10056TIP3   OH251582   6.706   6.251  11.322 -0.3017  0.5053  0.0937
10056TIP3    H151583   6.691   6.186  11.390  0.8455  0.3298  0.2062
10056TIP3    H251584   6.782   6.301  11.353 -0.3858  1.0743 -0.5833
10057TIP3   OH251585   5.939   6.495   2.445  0.4502  0.2550 -1.1086
10057TIP3    H151586   5.886   6.557   2.496  3.3055  3.0436 -1.1666
10057TIP3    H251587   5.926   6.411   2.489 -2.3137  1.1744  0.0892
10058TIP3   OH251588   3.776   0.947   1.562  0.0956  0.2094 -0.2099
10058TIP3    H151589   3.759   0.960   1.469  1.3712 -1.2937 -0.7076
10058TIP3    H251590   3.711   0.882   1.589 -0.3551  0.7381 -0.0078
10059TIP3   OH251591   5.232   2.076   0.326  0.5499  0.4586 -0.3178
10059TIP3    H151592   5.212   2.024   0.248 -2.3209 -0.8320  1.1101
10059TIP3    H251593   5.202   2.164   0.305  0.6031  0.3221 -0.9753
10060TIP3   OH251594   1.888   3.737   0.699 -0.4879  1.2923  0.3786
10060TIP3    H151595   1.852   3.653   0.727  0.0327  0.9302 -0.0229
10060TIP3    H251596   1.865   3.798   0.769 -0.6927  0.7735  0.7673
10061TIP3   OH251597   2.020   1.531   5.732 -0.5164 -0.0119  0.7285
10061TIP3    H151598   2.094   1.475   5.710 -1.2253 -1.2951  1.4985
10061TIP3    H251599   1.957   1.517   5.661 -0.9722 -0.7381  1.2617
10062TIP3   OH251600   5.100   0.888  12.556 -0.0824 -0.0149  0.0517
10062TIP3    H151601   5.153   0.827  12.504  2.0125  2.6746 -1.2394
10062TIP3    H251602   5.141   0.889  12.642 -0.7140 -1.0449  0.3884
10063TIP3   OH251603   3.332   5.148   4.373  0.0386  0.2956  0.4391
10063TIP3    H151604   3.299   5.228   4.332  0.9779  0.5928  0.2321
10063TIP3    H251605   3.406   5.178   4.426  0.9540 -0.5441 -0.3255
10064TIP3   OH251606   0.436   6.318  13.274  0.0468 -0.2523 -0.6795
10064TIP3    H151607   0.465   6.229  13.293 -0.0369 -0.8376 -3.0041
10064TIP3    H251608   0.380   6.341  13.349 -0.0489 -2.1989 -0.0892
10065TIP3   OH251609   0.182   0.088   2.715 -0.4119 -0.4152  0.4834
10065TIP3    H151610   0.118   0.124   2.776 -0.0642  0.1599  0.5139
10065TIP3    H251611   0.243   0.160   2.699  0.1062 -0.8915  0.2922
10066TIP3   OH251612   4.562   5.929  14.315 -0.4158 -0.0873 -0.5925
10066TIP3    H151613   4.639   5.930  14.257 -0.8299  1.2807 -1.1744
10066TIP3    H251614   4.514   5.851  14.290  0.0764 -0.2070 -1.2056
10067TIP3   OH251615   4.931   0.669   2.871 -0.2055 -0.1609 -0.0621
10067TIP3    H151616   4.944   0.746   2.815  1.8815 -0.1361  0.3645
10067TIP3    H251617   4.873   0.613   2.821  1.8077 -0.2723 -2.4953
10068TIP3   OH251618   1.533   6.571   6.063  0.0133 -0.1753 -0.7889
10068TIP3    H151619   1.602   6.636   6.052  1.1253 -1.2078 -0.1025
10068TIP3    H251620   1.512   6.542   5.974 -1.5927  2.1609 -1.2667
10069TIP3   OH251621   3.390   5.363  16.952  0.3374  0.6463  0.4123
10069TIP3    H151622   3.416   5.275  16.926  0.8239  1.3309 -1.6401
10069TIP3    H251623   3.473   5.410  16.963  0.0718  1.4337 -0.8071
10070TIP3   OH251624   3.227   2.386  12.838 -0.2114  0.1994 -0.3045
10070TIP3    H151625   3.287   2.460  12.838 -0.1889  0.2134 -1.6110
10070TIP3    H251626   3.253   2.333  12.912  1.6168  0.0594 -1.0049
10071TIP3   OH251627   4.977   0.604   2.252  0.7015  0.1203 -0.0954
10071TIP3    H151628   4.923   0.564   2.184  0.8726  1.1621 -0.8778
10071TIP3    H251629   5.025   0.531   2.291 -0.9207 -0.7585  0.3049
10072TIP3   OH251630   1.348   2.777  10.919  0.0691 -0.0700  0.3534
10072TIP3    H151631   1.352   2.873  10.924  1.3500 -0.0873 -0.0833
10072TIP3    H251632   1.262   2.755  10.956 -0.0396  1.2076  0.9145
10073TIP3   OH251633   5.431   2.347   2.854 -0.4498  0.0509  0.2386
10073TIP3    H151634   5.468   2.281   2.914 -4.5373  0.3999  3.6165
10073TIP3    H251635   5.350   2.308   2.822 -1.2098  2.0993 -0.5085
10074TIP3   OH251636   3.236   1.868   4.286 -0.2465 -0.5595  0.1021
10074TIP3    H151637   3.273   1.955   4.271  0.5739 -0.8727  0.2729
10074TIP3    H251638   3.192   1.847   4.203 -0.2759 -0.0654 -0.0114
10075TIP3   OH251639   5.743   6.074  15.575  0.4017 -0.4291  0.2296
10075TIP3    H151640   5.651   6.049  15.562  0.7776 -0.5498 -2.9666
10075TIP3    H251641   5.791   5.991  15.568  0.8931 -0.1258  0.0167
10076TIP3   OH251642   1.480   0.560  16.455  0.0176 -0.1394  0.1623
10076TIP3    H151643   1.484   0.469  16.427 -0.9424  0.1007 -0.8552
10076TIP3    H251644   1.389   0.572  16.483  0.5924  0.0273  2.1122
10077TIP3   OH251645   5.746   2.940   1.260  0.1597 -0.4050  0.4148
10077TIP3    H151646   5.748   3.014   1.199  3.5823  1.7168  2.6898
10077TIP3    H251647   5.818   2.884   1.231 -0.6459 -1.4162  0.3299
10078TIP3   OH251648   4.473   2.160  16.657 -0.2126  0.3840 -0.5445
10078TIP3    H151649   4.395   2.107  16.640  0.4979 -0.5706 -0.9027
10078TIP3    H251650   4.458   2.241  16.607 -0.4360 -0.2881 -1.5958
10079TIP3   OH251651   6.724   4.242  14.155 -0.0041  0.4117 -0.4025
10079TIP3    H151652   6.711   4.276  14.244 -0.9545 -0.0477 -0.3464
10079TIP3    H251653   6.809   4.199  14.158 -0.9004 -1.3970  0.8959
10080TIP3   OH251654   5.611   0.112  15.908 -0.2699 -0.2564 -0.0136
10080TIP3    H151655   5.662   0.037  15.938 -0.1708 -0.5765 -0.9664
10080TIP3    H251656   5.544   0.124  15.976  2.5957  1.8437  2.7718
10081TIP3   OH251657   4.704   4.071  15.523  0.3838 -0.0689 -0.4521
10081TIP3    H151658   4.729   4.085  15.431  1.7564  1.6832  0.1234
10081TIP3    H251659   4.720   4.155  15.565 -1.8277 -0.3221  1.0962
10082TIP3   OH251660   0.618   2.909  11.439 -0.0306  0.4988  0.5526
10082TIP3    H151661   0.661   2.954  11.367  0.7966  0.4625  1.0156
10082TIP3    H251662   0.525   2.907  11.414  0.0063  1.8737  0.2234
10083TIP3   OH251663   2.381   3.102   2.345 -0.0113 -0.6437 -0.7924
10083TIP3    H151664   2.320   3.162   2.302  1.0113 -0.8694 -2.6842
10083TIP3    H251665   2.462   3.153   2.354  0.5074 -1.3509 -1.3498
10084TIP3   OH251666   3.109   0.611   3.333  1.1907 -0.0514 -0.3377
10084TIP3    H151667   3.199   0.616   3.363 -0.2875  0.8006  5.0325
10084TIP3    H251668   3.092   0.696   3.293  1.7746  1.6920  2.7492
10085TIP3   OH251669   4.769   3.891  10.815  0.1571 -0.1662  0.4207
10085TIP3    H151670   4.780   3.798  10.837 -0.0844 -0.0551  1.0416
10085TIP3    H251671   4.674   3.905  10.817  0.1025 -0.1902 -0.9205
10086TIP3   OH251672   0.713   3.985   0.193 -0.0233 -0.1864 -0.1267
10086TIP3    H151673   0.801   3.986   0.157 -0.1436 -1.7911 -0.5459
10086TIP3    H251674   0.707   4.065   0.245  2.2922 -0.9147  1.3723
10087TIP3   OH251675   4.407   4.988  13.427 -0.3577  0.2241 -0.0445
10087TIP3    H151676   4.383   5.078  13.451 -0.3534  0.0998  0.4397
10087TIP3    H251677   4.358   4.933  13.489  0.4273 -0.0643  0.3377
10088TIP3   OH251678   4.328   5.973  16.352 -0.4230 -0.9486  0.3561
10088TIP3    H151679   4.373   5.992  16.270 -1.8397 -2.5673 -0.8643
10088TIP3    H251680   4.398   5.958  16.416  0.7011 -0.3718 -0.7163
10089TIP3   OH251681   4.295   4.382   1.571  0.0004 -0.3209 -0.4152
10089TIP3    H151682   4.341   4.349   1.494  0.7550 -0.6183  0.1556
10089TIP3    H251683   4.204   4.357   1.557  0.3939 -1.8022 -0.4516
10090TIP3   OH251684   5.802   4.184  12.510 -0.1902 -0.1990 -0.0378
10090TIP3    H151685   5.785   4.099  12.469 -0.4831 -0.1032 -0.1207
10090TIP3    H251686   5.827   4.241  12.437 -2.1069  0.3475 -0.3259
10091TIP3   OH251687   5.206   4.021  12.474  0.3994 -0.4490 -0.1070
10091TIP3    H151688   5.225   4.115  12.469  1.4557 -0.5334  1.5230
10091TIP3    H251689   5.263   3.982  12.408 -0.9232  0.1249 -1.6506
10092TIP3   OH251690   1.445   5.003  12.245 -0.2561 -0.2277 -0.0811
10092TIP3    H151691   1.375   4.948  12.210  1.1018 -1.0443 -1.6363
10092TIP3    H251692   1.494   4.945  12.303  0.2414 -0.2030 -0.4773
10093TIP3   OH251693   2.930   1.436  10.983 -0.5080 -0.6755  0.0449
10093TIP3    H151694   2.898   1.349  11.004 -0.6332 -0.3443  1.3085
10093TIP3    H251695   2.856   1.480  10.941 -0.9167 -0.7262  0.6980
10094TIP3   OH251696   4.723   3.168   3.202 -0.4622 -0.1432  0.1910
10094TIP3    H151697   4.628   3.168   3.191 -0.3770  0.8372 -0.7804
10094TIP3    H251698   4.742   3.245   3.255 -0.2360 -0.5607  0.7262
10095TIP3   OH251699   2.155   0.846   0.501  0.0731  0.2361 -0.5158
10095TIP3    H151700   2.071   0.889   0.482 -0.1764  0.1396  0.3286
10095TIP3    H251701   2.151   0.763   0.453 -0.5421 -0.0053 -0.0607
10096TIP3   OH251702   4.811   6.587   5.853 -0.1974 -0.1063  0.3028
10096TIP3    H151703   4.719   6.612   5.863 -0.0482  1.3869 -1.5230
10096TIP3    H251704   4.850   6.658   5.803  2.3664  0.0970  2.3423
10097TIP3   OH251705   0.840   6.454  12.365 -0.0772  0.8557  0.0687
10097TIP3    H151706   0.804   6.460  12.276  0.1189  2.4780  0.0681
10097TIP3    H251707   0.795   6.523  12.414 -0.7255 -0.4959  1.4527
10098TIP3   OH251708   3.660   1.736  15.918 -0.3433  0.0165 -0.0643
10098TIP3    H151709   3.613   1.696  15.845  0.3779  0.6817 -0.9087
10098TIP3    H251710   3.752   1.724  15.898 -0.0262  2.9882 -0.9264
10099TIP3   OH251711   2.330   0.515   0.487  0.2247  0.1681  0.3923
10099TIP3    H151712   2.412   0.564   0.497  0.5006 -0.3298  0.5872
10099TIP3    H251713   2.280   0.566   0.424  0.6506  0.5273  0.3386
10100TIP3   OH251714   1.601   4.511   2.521  0.2147  0.1498 -0.4058
10100TIP3    H151715   1.677   4.513   2.578 -0.4105  0.6394  0.4239
10100TIP3    H251716   1.527   4.534   2.577 -0.5754 -0.4336 -1.1630
10101TIP3   OH251717   5.360   0.310  11.231  0.1604 -0.3650  0.0345
10101TIP3    H151718   5.381   0.379  11.169 -1.2643  0.5045  0.4710
10101TIP3    H251719   5.431   0.247  11.222  2.1599  1.6905  0.4284
10102TIP3   OH251720   0.479   0.897   1.639 -0.4636 -0.1886  0.1414
10102TIP3    H151721   0.509   0.841   1.711  0.9053 -1.9074 -1.6283
10102TIP3    H251722   0.548   0.889   1.573 -3.2331 -1.6774 -2.8697
10103TIP3   OH251723   6.788   6.652  14.052 -0.2492  0.0692  0.1162
10103TIP3    H151724   6.880   6.667  14.070 -0.1818  1.9511 -1.5050
10103TIP3    H251725   6.745   6.661  14.137  0.7526  2.2475  0.4571
10104TIP3   OH251726   6.568   4.056   6.281  0.1652  0.1315  0.1792
10104TIP3    H151727   6.625   4.133   6.278  0.0492  0.1853 -1.4254
10104TIP3    H251728   6.523   4.064   6.365  1.6039  0.7411  0.9422
10105TIP3   OH251729   5.577   4.576   6.311  0.2499  0.1180  0.5171
10105TIP3    H151730   5.516   4.595   6.382 -0.6169 -0.0358 -0.1758
10105TIP3    H251731   5.664   4.585   6.352 -0.1504  2.3683  1.0184
10106TIP3   OH251732   5.052   0.437  12.707  0.0743  0.2443 -0.2401
10106TIP3    H151733   4.999   0.406  12.780 -0.5521  0.0473 -0.7752
10106TIP3    H251734   5.137   0.395  12.721 -0.7524 -1.7913 -0.9665
10107TIP3   OH251735   3.754   0.080   2.679  0.9215  0.3092 -0.4077
10107TIP3    H151736   3.830   0.139   2.671  0.6227  0.6824 -0.4934
10107TIP3    H251737   3.755   0.054   2.772  3.3448 -2.6430 -1.0908
10108TIP3   OH251738   6.448   3.635  14.293  0.5288 -0.1126  0.0991
10108TIP3    H151739   6.421   3.641  14.385 -0.2318 -0.4232 -0.0915
10108TIP3    H251740   6.485   3.547  14.285  1.3066  0.1911  0.2807
10109TIP3   OH251741   6.254   1.163  15.069 -0.2241 -0.3484  0.1883
10109TIP3    H151742   6.298   1.224  15.009 -0.5427  0.3867  0.6883
10109TIP3    H251743   6.172   1.206  15.090  0.1902 -0.2737  1.7177
10110TIP3   OH251744   5.794   3.418   5.352  0.0379 -0.1111 -0.4669
10110TIP3    H151745   5.739   3.494   5.332 -2.8933 -2.0683 -0.4478
10110TIP3    H251746   5.794   3.367   5.270  1.5205 -0.3649 -0.3243
10111TIP3   OH251747   6.674   6.734  13.821 -0.5385  0.8874  0.2446
10111TIP3    H151748   6.712   6.695  13.900 -0.1174  0.8981  0.0510
10111TIP3    H251749   6.579   6.730  13.835 -0.5717 -1.2798 -0.2469
10112TIP3   OH251750   6.219   5.888  11.440 -0.5191  0.2274 -0.4063
10112TIP3    H151751   6.237   5.798  11.414  0.9074  0.8259 -1.6899
10112TIP3    H251752   6.141   5.883  11.495 -0.2122 -1.8228 -0.0980
10113TIP3   OH251753   0.293   2.597   0.604 -0.1957 -0.4319  0.1922
10113TIP3    H151754   0.214   2.547   0.626  0.2708 -1.8049 -1.0861
10113TIP3    H251755   0.276   2.631   0.516  0.2686  0.0449  0.2826
10114TIP3   OH251756   4.194   1.778  13.644  0.2560  0.7606 -0.3281
10114TIP3    H151757   4.260   1.717  13.611 -1.0300 -0.3640 -0.9156
10114TIP3    H251758   4.112   1.730  13.638 -0.8148  2.5523 -0.7968
10115TIP3   OH251759   6.763   5.170   4.419  0.4265  0.7215  0.1080
10115TIP3    H151760   6.795   5.237   4.480  0.4327  1.3991 -0.6133
10115TIP3    H251761   6.839   5.150   4.364  0.8623 -1.0425  1.3113
10116TIP3   OH251762   5.413   1.578  12.689 -0.5505  0.4644  0.4314
10116TIP3    H151763   5.421   1.663  12.646  0.6555  0.6715  1.0270
10116TIP3    H251764   5.411   1.598  12.782  2.6548 -0.2251  0.7877
10117TIP3   OH251765   2.048   1.595   4.382  0.7767 -0.7323 -0.0223
10117TIP3    H151766   1.979   1.529   4.371  1.2038 -1.0629 -0.7652
10117TIP3    H251767   2.128   1.543   4.395  1.1549 -0.3719 -0.8390
10118TIP3   OH251768   0.383   1.394   2.102  0.6395 -0.0155 -0.4205
10118TIP3    H151769   0.430   1.311   2.088  2.0319  0.8584 -1.1230
10118TIP3    H251770   0.450   1.461   2.090 -1.0692  1.3878 -3.0201
10119TIP3   OH251771   3.329   0.814   2.966 -0.2041 -0.4007 -0.0436
10119TIP3    H151772   3.411   0.852   2.932 -0.2014  0.0757  0.4785
10119TIP3    H251773   3.356   0.734   3.011 -0.0938 -0.5368 -0.3501
10120TIP3   OH251774   4.363   1.584  15.241 -0.4203 -0.1113  0.2328
10120TIP3    H151775   4.339   1.676  15.249  1.6907  0.4513  1.0344
10120TIP3    H251776   4.440   1.574  15.298 -0.5061 -2.3457  0.0797
10121TIP3   OH251777   1.208   2.955   5.174 -0.0307 -0.1632 -0.2441
10121TIP3    H151778   1.119   2.930   5.148 -0.5597  1.2542  0.1548
10121TIP3    H251779   1.250   2.982   5.092 -0.6527  1.1619 -0.1485
10122TIP3   OH251780   6.328   2.702   0.888 -0.4479 -0.2478  0.0798
10122TIP3    H151781   6.243   2.692   0.931 -1.2038 -1.0385 -1.4702
10122TIP3    H251782   6.340   2.619   0.841  0.5195  0.3922 -0.8354
10123TIP3   OH251783   2.917   4.347  11.470 -0.6797  0.4527 -0.5415
10123TIP3    H151784   2.910   4.415  11.537  0.9290  1.6791 -1.5418
10123TIP3    H251785   2.989   4.376  11.414  0.1789 -2.1624 -0.9322
10124TIP3   OH251786   6.484   4.296   4.767  0.6118  0.0203  0.5406
10124TIP3    H151787   6.458   4.222   4.713  0.4088 -0.9590  1.9396
10124TIP3    H251788   6.484   4.371   4.707 -0.4330 -0.8697 -0.6075
10125TIP3   OH251789   0.222   3.644  11.442 -0.2651  0.0140  0.0267
10125TIP3    H151790   0.223   3.555  11.477 -0.1656 -0.1378 -0.3537
10125TIP3    H251791   0.149   3.646  11.380 -0.3012  0.2135  0.0738
10126TIP3   OH251792   0.710   1.532   4.933 -0.2436  0.1599 -0.6898
10126TIP3    H151793   0.764   1.479   4.991 -1.9412 -5.3698 -3.4446
10126TIP3    H251794   0.630   1.549   4.982  0.9722  1.8827  0.8229
10127TIP3   OH251795   1.792   3.472  13.304 -0.0708 -0.2099  0.0608
10127TIP3    H151796   1.813   3.565  13.298 -0.3039 -0.0482  1.4887
10127TIP3    H251797   1.855   3.429  13.246  2.3060  0.5372  1.9381
10128TIP3   OH251798   6.398   6.351   3.350 -0.2882  0.2862 -0.5462
10128TIP3    H151799   6.315   6.354   3.302 -1.2403  0.6713  1.0675
10128TIP3    H251800   6.415   6.257   3.362 -2.4950  0.1319  2.3424
10129TIP3   OH251801   3.103   3.506   3.091 -0.1723  0.1393  0.0078
10129TIP3    H151802   3.072   3.420   3.061  0.2984  0.3095 -1.0058
10129TIP3    H251803   3.124   3.553   3.011  1.2559  0.5702  0.6017
10130TIP3   OH251804   4.059   4.956  15.872 -0.4159  0.2760  0.6916
10130TIP3    H151805   3.991   4.889  15.868  0.7847 -0.9435 -1.7365
10130TIP3    H251806   4.099   4.955  15.784  3.0771  0.4961  2.1041
10131TIP3   OH251807   6.110   3.929   3.876  0.0434 -0.1236 -0.0485
10131TIP3    H151808   6.088   3.961   3.964  1.5852  0.9039  0.0023
10131TIP3    H251809   6.058   3.984   3.817 -1.0177 -0.8353  0.1887
10132TIP3   OH251810   4.338   5.815   4.552  0.9494  0.0387  0.3199
10132TIP3    H151811   4.354   5.784   4.463  1.6494  1.6453 -0.1464
10132TIP3    H251812   4.375   5.746   4.608  0.6333 -0.9198 -0.6144
10133TIP3   OH251813   2.408   1.515  16.135  0.2432  0.1823 -0.1847
10133TIP3    H151814   2.373   1.553  16.216 -2.2974 -1.4241 -0.4374
10133TIP3    H251815   2.335   1.517  16.074  0.9205 -2.2311 -1.1789
10134TIP3   OH251816   6.276   2.734  16.671  0.0898  0.0927 -0.1396
10134TIP3    H151817   6.220   2.711  16.745 -0.5355 -0.7961 -0.8594
10134TIP3    H251818   6.332   2.657  16.659  3.4799  1.9529  2.2919
10135TIP3   OH251819   6.042   1.676  15.446  0.3606 -0.2421  0.1633
10135TIP3    H151820   6.059   1.749  15.386  0.5513 -0.0887  0.4052
10135TIP3    H251821   6.095   1.604  15.411 -2.3059 -1.3272 -2.0586
10136TIP3   OH251822   3.058   0.777   4.306 -0.1389  0.8913 -0.0229
10136TIP3    H151823   3.034   0.789   4.397 -1.0417 -2.2650  0.2875
10136TIP3    H251824   3.011   0.846   4.259 -0.3938  1.9995  1.7718
10137TIP3   OH251825   6.154   4.875   1.101  0.4253 -0.0993 -0.2362
10137TIP3    H151826   6.129   4.917   1.019 -0.0507 -1.2772 -0.7200
10137TIP3    H251827   6.243   4.907   1.119  0.4443  0.3461 -1.0734
10138TIP3   OH251828   3.991   2.382  16.693  0.3653  0.3295 -0.7547
10138TIP3    H151829   3.897   2.400  16.697  0.3056 -0.1166 -0.0584
10138TIP3    H251830   4.032   2.455  16.739  0.4477  1.0588 -1.9254
10139TIP3   OH251831   4.411   5.777   0.253  0.1675 -0.0268 -0.2303
10139TIP3    H151832   4.436   5.725   0.176  0.4512  0.3914 -0.4223
10139TIP3    H251833   4.482   5.841   0.263  0.9034 -1.0209  1.2781
10140TIP3   OH251834   5.104   4.268  14.408  0.0312 -0.0744  0.2015
10140TIP3    H151835   5.125   4.362  14.409  1.8853 -0.3599  3.9673
10140TIP3    H251836   5.168   4.230  14.348  0.7323  0.8380  0.3467
10141TIP3   OH251837   2.502   0.550   2.121 -0.3585 -0.1838 -0.7270
10141TIP3    H151838   2.426   0.496   2.143  1.3129 -2.2048  0.4603
10141TIP3    H251839   2.500   0.556   2.026 -0.5524 -2.5284 -0.9250
10142TIP3   OH251840   5.568   3.369   3.663  0.4138 -0.4289  0.3644
10142TIP3    H151841   5.482   3.329   3.650  0.0959  0.5181 -0.6148
10142TIP3    H251842   5.630   3.306   3.627  0.3078 -1.7784  2.3590
10143TIP3   OH251843   5.377   1.919  15.934  0.1588 -0.2754  0.4162
10143TIP3    H151844   5.445   1.877  15.880 -0.8565 -2.4082  0.6890
10143TIP3    H251845   5.396   2.013  15.927  0.4782 -0.4505 -3.1227
10144TIP3   OH251846   1.024   1.668   5.000 -0.6656  0.0375  0.1418
10144TIP3    H151847   1.066   1.754   4.996 -2.2704  0.8468 -0.2243
10144TIP3    H251848   0.967   1.665   4.923 -0.4738 -1.4570  0.0243
10145TIP3   OH251849   6.568   0.498  12.399 -1.1549  0.2620 -0.2078
10145TIP3    H151850   6.619   0.448  12.462 -1.2151 -0.2568 -0.5647
10145TIP3    H251851   6.629   0.563  12.364 -0.3717 -1.0780 -1.4692
10146TIP3   OH251852   2.635   5.933   6.568  0.3061  0.2985  0.1075
10146TIP3    H151853   2.718   5.900   6.603  1.4850  4.2739  1.6061
10146TIP3    H251854   2.655   6.021   6.537 -3.4935  1.9040  1.5510
10147TIP3   OH251855   2.328   1.686   4.010  1.0461  0.2516  0.4597
10147TIP3    H151856   2.345   1.649   3.923 -0.4962  1.2264 -0.3006
10147TIP3    H251857   2.238   1.660   4.029  0.7181  1.6525  0.9157
10148TIP3   OH251858   5.413   3.874   6.246 -0.2159  0.0282 -0.0750
10148TIP3    H151859   5.358   3.896   6.322 -0.4765  0.0722 -0.2746
10148TIP3    H251860   5.351   3.869   6.173  0.0158 -0.1420 -0.2605
10149TIP3   OH251861   2.491   1.047   5.385 -0.6296 -0.2243 -0.1302
10149TIP3    H151862   2.564   1.108   5.380 -0.5927 -0.0627  1.8127
10149TIP3    H251863   2.454   1.047   5.296 -0.3419  2.2474 -0.3192
10150TIP3   OH251864   6.609   4.850  13.260  0.2141  0.4808 -0.2794
10150TIP3    H151865   6.697   4.850  13.299  0.5622 -0.4642 -1.0339
10150TIP3    H251866   6.624   4.836  13.167 -0.7374  0.4861 -0.4426
10151TIP3   OH251867   0.254   2.820   3.512 -0.1164 -0.4979 -0.2418
10151TIP3    H151868   0.344   2.853   3.508 -0.1944  0.4046  2.8095
10151TIP3    H251869   0.231   2.824   3.605 -3.4464 -0.3715 -0.9411
10152TIP3   OH251870   6.393   6.326   2.012  0.1965 -0.2821 -0.1661
10152TIP3    H151871   6.423   6.237   2.032 -0.3118 -0.4563 -0.1578
10152TIP3    H251872   6.392   6.371   2.096  0.4076 -0.2814 -0.1630
10153TIP3   OH251873   1.173   4.177  17.124  0.1677  0.5457  0.4693
10153TIP3    H151874   1.155   4.233  17.199  0.2460  0.2029  0.7448
10153TIP3    H251875   1.222   4.233  17.063 -1.3304  1.3189 -0.0626
10154TIP3   OH251876   3.970   2.539   1.739 -0.1152 -0.8407 -0.0855
10154TIP3    H151877   3.957   2.454   1.781  1.8815  0.1322  2.8000
10154TIP3    H251878   3.898   2.593   1.771 -0.3898 -0.9408 -0.5199
10155TIP3   OH251879   0.575   5.593   0.352 -0.3725  0.3577  0.2451
10155TIP3    H151880   0.500   5.535   0.365 -0.6271  0.9397  1.5169
10155TIP3    H251881   0.596   5.625   0.439  0.7499  0.9704 -0.2287
10156TIP3   OH251882   4.397   1.212   1.566 -0.1836  0.2032  0.7749
10156TIP3    H151883   4.351   1.176   1.490  0.3142  1.7974 -0.3489
10156TIP3    H251884   4.481   1.166   1.568  0.2635  0.9266 -0.3581
10157TIP3   OH251885   4.558   1.843   2.871  0.3240  0.0462  0.3965
10157TIP3    H151886   4.563   1.774   2.805 -0.1688  0.0963  0.3033
10157TIP3    H251887   4.559   1.797   2.954 -0.0047 -0.0710  0.3344
10158TIP3   OH251888   6.775   3.654  14.443 -0.0788 -0.2222 -0.9645
10158TIP3    H151889   6.732   3.571  14.421  2.7459 -1.8443 -0.8559
10158TIP3    H251890   6.817   3.637  14.527  2.6421  0.4020 -2.1188
10159TIP3   OH251891   0.808   3.332  12.323 -0.2240  0.0703  0.4480
10159TIP3    H151892   0.807   3.398  12.392  2.0795 -0.5977  1.1864
10159TIP3    H251893   0.748   3.265  12.354  1.3827 -0.6158  2.2825
10160TIP3   OH251894   2.502   2.101   3.807  0.7632  0.1649 -0.7763
10160TIP3    H151895   2.500   2.095   3.712  1.0295 -0.5563 -0.7400
10160TIP3    H251896   2.592   2.128   3.827  0.7901  0.0327 -0.7171
10161TIP3   OH251897   5.023   2.511   3.431  0.3094 -0.5632  0.2010
10161TIP3    H151898   4.973   2.526   3.351 -1.5349  1.2295  1.5903
10161TIP3    H251899   5.007   2.419   3.452  0.2683 -0.8708 -1.1182
10162TIP3   OH251900   6.736   2.074  15.720  0.0209 -0.3097 -0.9592
10162TIP3    H151901   6.765   2.069  15.811 -1.6981 -1.6729 -0.4420
10162TIP3    H251902   6.642   2.088  15.725 -0.7043 -3.6114 -2.4047
10163TIP3   OH251903   4.559   5.852   1.797 -0.6939  1.0108  0.1212
10163TIP3    H151904   4.531   5.762   1.814  0.5869  0.6035  0.1411
10163TIP3    H251905   4.609   5.877   1.874 -0.9805  1.7317  0.0828
10164TIP3   OH251906   4.446   1.503  11.349 -0.0581  0.3070 -0.3396
10164TIP3    H151907   4.412   1.496  11.259  1.4049 -0.2714 -0.8851
10164TIP3    H251908   4.484   1.590  11.354  1.4772 -0.2816 -0.9296
10165TIP3   OH251909   2.603   0.088   5.501 -0.1114  0.0752  0.0476
10165TIP3    H151910   2.594   0.114   5.409  0.0138 -0.7373 -0.2029
10165TIP3    H251911   2.693   0.108   5.523 -0.0488 -0.0360 -0.1071
10166TIP3   OH251912   2.890   0.758  16.652  0.2869 -0.0107 -0.3178
10166TIP3    H151913   2.942   0.838  16.660  0.8390 -0.2386 -1.3884
10166TIP3    H251914   2.820   0.782  16.591 -2.1794  0.9073  2.6139
10167TIP3   OH251915   3.626   5.449   5.976 -0.3393 -0.0406 -0.3352
10167TIP3    H151916   3.607   5.385   6.044  0.9233 -0.4193 -0.3020
10167TIP3    H251917   3.641   5.531   6.024  0.7571 -0.3524 -0.1060
10168TIP3   OH251918   0.337   0.479   3.237  0.1007  0.6465 -0.3765
10168TIP3    H151919   0.277   0.404   3.242 -0.2994  1.0145  0.8035
10168TIP3    H251920   0.382   0.469   3.153  1.7594 -2.2262  0.6981
10169TIP3   OH251921   4.939   5.712   1.879 -0.2709 -0.1900  0.3275
10169TIP3    H151922   4.982   5.706   1.794 -0.9617 -1.1203  0.0211
10169TIP3    H251923   4.983   5.647   1.934 -1.2956 -1.2210 -0.0172
10170TIP3   OH251924   0.452   2.170  12.507 -0.0133 -0.9559  0.1241
10170TIP3    H151925   0.429   2.259  12.533 -0.1756 -0.4830 -1.5486
10170TIP3    H251926   0.374   2.119  12.529  0.1011 -0.7301  1.1476
10171TIP3   OH251927   3.712   5.434   4.182 -0.0840 -0.6472 -0.2574
10171TIP3    H151928   3.683   5.354   4.226 -0.3722 -1.3181 -1.6172
10171TIP3    H251929   3.747   5.404   4.098 -2.2692  0.8467 -1.7924
10172TIP3   OH251930   2.342   5.817   5.743  0.3480  0.5650  0.1549
10172TIP3    H151931   2.352   5.785   5.653  3.0476  0.7982  0.2902
10172TIP3    H251932   2.258   5.864   5.742 -0.0506 -0.0582 -2.0296
10173TIP3   OH251933   1.019   2.743  16.325 -0.0107 -0.9817  0.3000
10173TIP3    H151934   0.931   2.744  16.287 -0.1974  0.3708  0.7254
10173TIP3    H251935   1.009   2.690  16.405 -1.0520  1.1445  1.6634
10174TIP3   OH251936   3.596   6.188   4.776  0.3431 -0.1188  0.1264
10174TIP3    H151937   3.527   6.178   4.842  1.8344  1.0205  1.9576
10174TIP3    H251938   3.616   6.098   4.749 -0.4408 -0.6004  1.0743
10175TIP3   OH251939   3.958   2.866  12.764 -0.3698 -0.1502  0.1073
10175TIP3    H151940   4.014   2.841  12.690  1.6426 -1.9339  2.0920
10175TIP3    H251941   4.010   2.929  12.813 -0.8988 -0.3910  0.9871
10176TIP3   OH251942   0.256   0.852  15.353  0.1854  0.4596  0.6268
10176TIP3    H151943   0.258   0.760  15.328 -0.2664  0.7992 -0.7603
10176TIP3    H251944   0.250   0.851  15.448  0.7512 -0.9311  0.6807
10177TIP3   OH251945   1.079   0.090  11.102  0.6438 -0.4510  0.0324
10177TIP3    H151946   1.088  -0.005  11.111 -2.1406 -0.7381  0.9006
10177TIP3    H251947   1.081   0.123  11.192 -2.4157 -0.2902  0.1726
10178TIP3   OH251948   5.602   3.167  12.600  0.4235 -0.3986  0.1715
10178TIP3    H151949   5.674   3.219  12.636  1.8724 -1.2176 -1.4180
10178TIP3    H251950   5.530   3.182  12.661  1.3701  1.8726  0.8538
10179TIP3   OH251951   1.687   5.825   4.239  0.3284 -0.0047 -0.0259
10179TIP3    H151952   1.672   5.904   4.187  1.7722 -0.6347 -1.5193
10179TIP3    H251953   1.697   5.755   4.174  1.8741 -0.9010  1.0964
10180TIP3   OH251954   2.696   2.762  13.024 -0.0443  0.1998  0.4721
10180TIP3    H151955   2.605   2.733  13.014  0.1046 -0.2240  0.3313
10180TIP3    H251956   2.725   2.722  13.106 -0.2094  0.9305  0.8951
10181TIP3   OH251957   2.169   2.900   1.275 -0.1057 -0.5202  0.2902
10181TIP3    H151958   2.253   2.859   1.294 -0.0120 -0.9152 -0.9269
10181TIP3    H251959   2.171   2.983   1.324  2.4802  1.1768 -2.3982
10182TIP3   OH251960   0.472   4.813   3.039  0.2280 -0.1123 -0.2492
10182TIP3    H151961   0.455   4.848   2.952  0.3678  1.3510  0.2821
10182TIP3    H251962   0.567   4.810   3.046  0.2184 -0.5137 -0.2461
10183TIP3   OH251963   6.347   6.699  10.899  0.5571 -0.7672 -0.2371
10183TIP3    H151964   6.330   6.714  10.992 -0.9315 -0.7348 -0.4886
10183TIP3    H251965   6.419   6.636  10.898  1.1218 -0.1929  0.9122
10184TIP3   OH251966   2.092   0.008   5.613 -0.7146 -1.0521  0.4372
10184TIP3    H151967   2.020  -0.051   5.633 -0.9107 -1.2283 -0.7550
10184TIP3    H251968   2.168  -0.032   5.656 -1.3467 -0.7111  1.9572
10185TIP3   OH251969   4.197   0.012  16.147 -0.4538  0.3453  0.0635
10185TIP3    H151970   4.288   0.016  16.119 -0.1794 -0.2176  0.8195
10185TIP3    H251971   4.180   0.097  16.188 -0.0014  0.1524  0.6696
10186TIP3   OH251972   1.709   4.747  13.881  0.0087  0.1898  0.3279
10186TIP3    H151973   1.741   4.732  13.970  2.2437 -0.2310 -0.4814
10186TIP3    H251974   1.621   4.710  13.881  0.1232 -0.2095  2.2327
10187TIP3   OH251975   3.695   5.314   4.934 -0.0997  0.0029  0.6228
10187TIP3    H151976   3.622   5.313   4.873  2.3574  0.4504 -2.5707
10187TIP3    H251977   3.718   5.406   4.944  0.7342 -0.1953  0.6388
10188TIP3   OH251978   1.518   3.092  12.513 -0.3160 -0.0653 -0.1659
10188TIP3    H151979   1.523   3.046  12.596 -1.0869  0.5860  0.2531
10188TIP3    H251980   1.594   3.060  12.463  0.9367  0.5052  1.2867
10189TIP3   OH251981   3.296   5.782   3.686  0.1737 -0.1761 -0.1278
10189TIP3    H151982   3.271   5.720   3.755  0.0016 -0.4005 -0.3896
10189TIP3    H251983   3.299   5.729   3.606 -1.8525  0.5026 -0.7165
10190TIP3   OH251984   2.596   1.243  15.397 -0.9342 -0.1861 -0.1106
10190TIP3    H151985   2.518   1.297  15.406 -1.0322 -0.3798  0.2243
10190TIP3    H251986   2.562   1.154  15.385 -0.7794 -0.1415 -0.9003
10191TIP3   OH251987   6.555   0.641   0.093  0.5590 -0.7799 -0.3584
10191TIP3    H151988   6.632   0.619   0.144  0.4094 -1.8542 -0.5757
10191TIP3    H251989   6.588   0.696   0.021  1.0678 -0.9618 -0.2634
10192TIP3   OH251990   3.489   3.018   4.022  0.8620  0.1706 -0.2460
10192TIP3    H151991   3.473   3.110   4.039 -0.9155  0.1144 -1.3762
10192TIP3    H251992   3.582   3.013   3.998  1.1459  1.5369  0.5387
10193TIP3   OH251993   1.045   4.784   1.480 -0.0021 -0.1941 -0.2350
10193TIP3    H151994   1.112   4.773   1.413  1.3427  1.6644  0.7383
10193TIP3    H251995   0.965   4.804   1.431  1.0845  1.7771 -1.2891
10194TIP3   OH251996   3.302   6.454   3.015  0.2353  0.1357 -0.1791
10194TIP3    H151997   3.329   6.363   3.015 -0.4272 -0.0637  0.0226
10194TIP3    H251998   3.308   6.481   3.106 -0.4617  0.0200 -0.0939
10195TIP3   OH251999   5.320   5.003  15.510 -0.3147 -0.3683 -0.8846
10195TIP3    H152000   5.415   5.006  15.500 -0.1019  0.7696  0.8728
10195TIP3    H252001   5.288   5.079  15.461  0.1073  1.4489  1.4538
10196TIP3   OH252002   2.148   6.266   3.940  0.7240 -0.3741 -0.3732
10196TIP3    H152003   2.080   6.200   3.930  1.5865 -1.5177  1.0683
10196TIP3    H252004   2.205   6.254   3.863  0.9040 -1.3575 -0.0965
10197TIP3   OH252005   4.521   1.004  14.595  0.0100  0.1456  0.0904
10197TIP3    H152006   4.608   1.004  14.636  0.2534 -3.1664 -0.2169
10197TIP3    H252007   4.468   1.058  14.653  1.4406 -0.6334  2.2474
10198TIP3   OH252008   4.862   5.647  12.454  0.4228  0.3483 -0.2610
10198TIP3    H152009   4.836   5.727  12.409  0.0972  1.2567  1.4516
10198TIP3    H252010   4.786   5.590  12.448 -0.0125  0.8867  0.0554
10199TIP3   OH252011   3.045   3.061  11.778 -0.1243  0.1600 -0.1188
10199TIP3    H152012   2.951   3.075  11.788 -0.3257 -0.9699 -0.3216
10199TIP3    H252013   3.082   3.149  11.772 -1.1339  0.6196  0.2605
10200TIP3   OH252014   5.989   3.084   4.817 -0.0399 -0.3333 -0.0165
10200TIP3    H152015   6.081   3.059   4.827 -0.3563 -1.0475  1.4698
10200TIP3    H252016   5.952   3.073   4.905 -1.6413 -0.4467 -0.6727
10201TIP3   OH252017   1.041   5.816  15.108 -0.2865 -0.3252 -0.3278
10201TIP3    H152018   1.133   5.841  15.108 -0.0592 -1.1001 -0.9769
10201TIP3    H252019   0.994   5.897  15.127  0.5759 -0.1920  1.3659
10202TIP3   OH252020   5.060   3.111   4.307  0.0353  0.1608  0.0762
10202TIP3    H152021   5.075   3.017   4.314 -1.2037 -0.0027  0.6763
10202TIP3    H252022   5.148   3.149   4.308  0.5089 -0.9100  1.1026
10203TIP3   OH252023   6.637   4.221  15.672 -0.3805  0.3109 -0.0023
10203TIP3    H152024   6.698   4.294  15.687 -1.4090  1.1939  0.0355
10203TIP3    H252025   6.636   4.209  15.578  1.9765 -1.6218  0.1322
10204TIP3   OH252026   2.571   3.554  11.703  0.4037 -0.0501 -0.1178
10204TIP3    H152027   2.501   3.592  11.650 -0.4843  0.6662  1.4830
10204TIP3    H252028   2.567   3.603  11.786  1.6390 -1.2038  0.6587
10205TIP3   OH252029   6.038   1.346   5.932  0.3172  0.2656 -0.3994
10205TIP3    H152030   6.003   1.298   6.007 -1.7921  0.4288 -1.2081
10205TIP3    H252031   6.027   1.286   5.858  0.4236  0.8898 -0.9293
10206TIP3   OH252032   6.417   2.318   0.091 -0.1445 -0.4234  0.1502
10206TIP3    H152033   6.440   2.335   0.000  0.4002 -1.0360  0.1629
10206TIP3    H252034   6.379   2.400   0.123 -0.5155 -0.2693 -0.6821
10207TIP3   OH252035   5.526   4.811   3.725  0.0134  0.4968  0.0715
10207TIP3    H152036   5.549   4.902   3.742  2.3129  0.3464 -1.6376
10207TIP3    H252037   5.474   4.815   3.645 -1.2384  0.3970  0.8636
10208TIP3   OH252038   0.720   5.892  11.507 -0.1756  0.3833  0.2010
10208TIP3    H152039   0.661   5.871  11.434 -1.0696 -0.6438  1.1803
10208TIP3    H252040   0.726   5.987  11.506 -4.0013  0.8256  1.6314
10209TIP3   OH252041   5.486   5.749   5.046 -0.4046  0.0693 -0.0434
10209TIP3    H152042   5.503   5.669   5.095  1.5631  1.3316  1.5280
10209TIP3    H252043   5.426   5.723   4.977 -2.4845 -2.0818  2.3511
10210TIP3   OH252044   3.105   2.151  13.855  0.2068 -0.3381 -0.1196
10210TIP3    H152045   3.134   2.071  13.898 -2.0647 -1.2268 -0.1390
10210TIP3    H252046   3.174   2.215  13.875  0.7964 -1.5701  2.1443
10211TIP3   OH252047   3.640   2.453   1.922 -0.1419 -0.3382 -0.3710
10211TIP3    H152048   3.669   2.539   1.892  0.9026 -1.1027 -1.6811
10211TIP3    H252049   3.664   2.450   2.015  1.1798  0.2308 -0.6740
10212TIP3   OH252050   0.931   1.633  16.389  0.2556 -0.5948 -0.3621
10212TIP3    H152051   0.940   1.679  16.472  1.8102  1.1252 -1.4040
10212TIP3    H252052   0.963   1.545  16.407 -0.8943 -0.7537  1.1926
10213TIP3   OH252053   0.596   3.466  17.067 -0.5758 -0.3064  0.0433
10213TIP3    H152054   0.629   3.451  16.978 -1.0282  0.6904 -0.3043
10213TIP3    H252055   0.592   3.378  17.106 -1.0210 -0.8320 -1.1443
10214TIP3   OH252056   1.198   2.672   3.797 -0.3118 -0.1559 -0.9043
10214TIP3    H152057   1.148   2.734   3.850  0.0990  0.9552 -1.7806
10214TIP3    H252058   1.132   2.627   3.744 -0.5457  0.0566 -0.7921
10215TIP3   OH252059   3.853   2.164   2.691  0.2793 -0.4680  0.2155
10215TIP3    H152060   3.916   2.215   2.742 -0.9113  0.1572  1.1178
10215TIP3    H252061   3.773   2.217   2.691 -0.4872 -1.5819 -0.2212
10216TIP3   OH252062   5.853   4.044  14.377 -0.4130  0.5212 -1.2232
10216TIP3    H152063   5.877   4.133  14.352 -0.0065  0.4468 -1.1088
10216TIP3    H252064   5.757   4.046  14.386 -0.4276  0.8844 -1.4491
10217TIP3   OH252065   4.939   5.333  16.636  0.1859  0.3310 -0.0460
10217TIP3    H152066   4.913   5.425  16.647  0.2605  0.4284 -0.6612
10217TIP3    H252067   5.001   5.317  16.708 -1.8164 -0.0295  1.7268
10218TIP3   OH252068   2.881   3.008  14.465 -0.4457  0.6987 -0.4507
10218TIP3    H152069   2.824   3.066  14.516  0.1547  0.2912  0.7436
10218TIP3    H252070   2.900   2.936  14.525  1.7220  1.0666 -0.6183
10219TIP3   OH252071   1.716   2.911   0.067 -0.0308  0.0079  0.2937
10219TIP3    H152072   1.800   2.880   0.034  0.6471  1.3731  0.6617
10219TIP3    H252073   1.701   2.994   0.021 -2.2283 -1.1869 -1.3700
10220TIP3   OH252074   5.630   2.055  13.627 -0.2161  0.3433 -0.3250
10220TIP3    H152075   5.557   1.998  13.653 -0.7266  0.3473 -1.6695
10220TIP3    H252076   5.699   2.035  13.690 -1.6750  1.0571  1.6281
10221TIP3   OH252077   6.586   4.440   1.145 -0.6152  0.2938 -0.0521
10221TIP3    H152078   6.538   4.384   1.084 -0.2996  0.1919 -0.2116
10221TIP3    H252079   6.552   4.416   1.231  0.3704 -1.0453  0.0050
10222TIP3   OH252080   0.623   0.790  12.999 -0.0275  0.3251  0.0187
10222TIP3    H152081   0.573   0.861  12.959  1.2639  0.5176 -1.3689
10222TIP3    H252082   0.603   0.714  12.944 -0.1402 -0.0008  0.5062
10223TIP3   OH252083   5.343   0.232   2.160 -0.4828  1.0578  0.4392
10223TIP3    H152084   5.307   0.143   2.167 -0.6269  0.9619 -1.2297
10223TIP3    H252085   5.266   0.289   2.164 -0.5175  1.0336  0.0825
10224TIP3   OH252086   3.914   4.851   3.332  0.1109  0.3658  0.3333
10224TIP3    H152087   3.895   4.854   3.238 -0.2683 -2.6858  0.1834
10224TIP3    H252088   3.832   4.878   3.374 -0.5291 -0.5391 -0.2762
10225TIP3   OH252089   1.330   4.051  12.021  0.3508 -0.3310 -0.0134
10225TIP3    H152090   1.308   4.121  11.959 -0.3351 -0.2573  0.3099
10225TIP3    H252091   1.348   3.975  11.965  1.2021  0.1184 -0.3713
10226TIP3   OH252092   6.490   2.164   3.159  0.0065  0.5466  0.1648
10226TIP3    H152093   6.568   2.120   3.125 -0.9599 -0.9199 -0.2841
10226TIP3    H252094   6.470   2.231   3.094 -0.1022 -0.2458 -0.6359
10227TIP3   OH252095   5.229   3.683  12.150  0.1489  0.4562 -0.2499
10227TIP3    H152096   5.209   3.681  12.056  0.5687  1.7040 -0.3866
10227TIP3    H252097   5.197   3.600  12.183 -1.3393  0.5971 -1.2364
10228TIP3   OH252098   6.754   4.481   6.063 -0.0969  0.1244 -0.5035
10228TIP3    H152099   6.749   4.574   6.038 -1.2940  0.0241 -0.6708
10228TIP3    H252100   6.664   4.449   6.057 -0.1693 -0.3899  2.0953
10229TIP3   OH252101   2.648   1.157  11.856 -0.8129 -0.4091 -0.4464
10229TIP3    H152102   2.578   1.204  11.810 -2.3190 -3.4878 -1.5818
10229TIP3    H252103   2.718   1.150  11.791  0.1163  1.5753  0.2735
10230TIP3   OH252104   5.697   0.626  12.151  0.3543 -0.0245  0.0383
10230TIP3    H152105   5.668   0.550  12.100 -1.0558  0.7975 -0.4426
10230TIP3    H252106   5.764   0.667  12.097 -0.2900  0.1637 -0.6428
10231TIP3   OH252107   2.867   1.990   5.453 -0.1351 -0.2271 -0.3754
10231TIP3    H152108   2.776   2.016   5.469  0.0560 -0.1236  0.6127
10231TIP3    H252109   2.861   1.925   5.383 -1.0013 -0.4040 -0.1525
10232TIP3   OH252110   4.040   6.128   2.446  0.6013  0.6439 -0.1829
10232TIP3    H152111   4.088   6.059   2.493 -0.7642  0.1179  0.5106
10232TIP3    H252112   4.046   6.102   2.354  2.7171  1.3034 -0.2783
10233TIP3   OH252113   2.350   0.886   4.296 -0.7675 -0.0444 -0.5665
10233TIP3    H152114   2.297   0.807   4.300 -0.6826 -0.0620  0.5942
10233TIP3    H252115   2.293   0.955   4.332  0.0471 -0.1134  0.9284
10234TIP3   OH252116   5.714   1.144  13.981  0.4192 -0.1156 -0.0211
10234TIP3    H152117   5.655   1.131  13.906 -0.4929  5.1201 -0.5814
10234TIP3    H252118   5.656   1.165  14.054  1.4531 -1.0173  1.0930
10235TIP3   OH252119   6.260   0.814   0.464  0.1444  0.8942  0.1484
10235TIP3    H152120   6.174   0.803   0.425 -0.3023 -0.7950  1.4740
10235TIP3    H252121   6.257   0.900   0.506  0.3001  2.3112 -2.5186
10236TIP3   OH252122   3.222   0.202  16.869  0.4447  0.5091  0.2331
10236TIP3    H152123   3.258   0.238  16.950  0.1902  0.1381  0.5193
10236TIP3    H252124   3.224   0.107  16.883  0.5860  0.4372 -0.2775
10237TIP3   OH252125   2.450   4.562   0.135 -0.2074  0.6109 -0.3364
10237TIP3    H152126   2.459   4.538   0.228 -0.1929  0.1925 -0.4440
10237TIP3    H252127   2.418   4.482   0.093  1.2668  0.3224 -0.9642
10238TIP3   OH252128   2.162   6.455  13.982 -0.4900  0.0001 -0.5916
10238TIP3    H152129   2.219   6.428  13.909  0.4675  1.1238 -0.2874
10238TIP3    H252130   2.196   6.408  14.058 -0.9845 -0.5537 -0.7063
10239TIP3   OH252131   1.373   4.510   5.258  0.5011  0.3443  0.3836
10239TIP3    H152132   1.337   4.486   5.172 -1.5389  1.0342  1.0077
10239TIP3    H252133   1.419   4.592   5.242  1.8313 -0.5174 -0.4122
10240TIP3   OH252134   3.015   6.027  14.646 -0.7807  0.3719  0.0315
10240TIP3    H152135   2.972   5.963  14.703 -2.3400  1.7669  0.5015
10240TIP3    H252136   2.990   6.112  14.683  0.6292  1.2727 -1.0062
10241TIP3   OH252137   2.089   0.859  12.016  0.1166 -0.2508  0.1877
10241TIP3    H152138   2.066   0.811  12.096  2.9112 -0.5997  0.8689
10241TIP3    H252139   2.099   0.950  12.044 -0.2462 -0.1288 -0.0680
10242TIP3   OH252140   1.801   5.240   2.557  0.2472  0.2881 -0.1858
10242TIP3    H152141   1.753   5.286   2.625 -0.1087 -0.7987  0.3090
10242TIP3    H252142   1.741   5.174   2.525  0.9602 -0.2400 -0.4616
10243TIP3   OH252143   2.212   4.079  13.044 -0.1294  0.3240 -0.2913
10243TIP3    H152144   2.294   4.030  13.050 -0.2626  0.2401  1.4577
10243TIP3    H252145   2.230   4.150  12.982  1.1241  0.0314 -0.2769
10244TIP3   OH252146   1.525   0.353   0.403  0.0764 -0.1558  0.0214
10244TIP3    H152147   1.557   0.432   0.360  1.3105 -0.6256  0.0304
10244TIP3    H252148   1.488   0.384   0.485  2.3086  0.2734  0.9500
10245TIP3   OH252149   4.628   6.737  16.206 -0.5475  0.2507  0.1365
10245TIP3    H152150   4.636   6.689  16.123  0.0213 -2.3196  1.5654
10245TIP3    H252151   4.544   6.783  16.199  0.2891  1.5828 -2.5212
10246TIP3   OH252152   3.038   6.264   1.087  0.1847 -0.5486 -0.4411
10246TIP3    H152153   3.061   6.281   1.178  1.2018  0.6329 -0.8842
10246TIP3    H252154   3.034   6.169   1.080 -1.9863 -0.6691  1.2939
10247TIP3   OH252155   2.123   4.649  12.460  0.0384 -0.2363  0.1876
10247TIP3    H152156   2.173   4.730  12.447  0.9883 -0.8999 -0.4255
10247TIP3    H252157   2.058   4.650  12.389 -1.0838  0.7869  1.1773
10248TIP3   OH252158   3.078   6.596   2.175 -0.3648 -0.0762  0.0772
10248TIP3    H152159   2.999   6.572   2.223  1.0363 -0.9719  2.0260
10248TIP3    H252160   3.071   6.549   2.092 -1.9425  0.0311  0.1127
10249TIP3   OH252161   1.643   6.184  14.364 -0.3461  0.3230  0.5906
10249TIP3    H152162   1.722   6.130  14.373  0.0955  1.0911  1.6611
10249TIP3    H252163   1.677   6.272  14.345 -0.9318  0.6690  1.1118
10250TIP3   OH252164   1.107   4.724   5.597  0.2049 -0.4834 -0.7977
10250TIP3    H152165   1.127   4.688   5.683 -1.8596 -1.7655 -0.7761
10250TIP3    H252166   1.170   4.795   5.585  2.5369 -2.2157  0.4426
10251TIP3   OH252167   6.146   0.153   6.063 -0.3135  0.4087  0.0815
10251TIP3    H152168   6.089   0.077   6.078 -1.9071  0.5026 -4.2232
10251TIP3    H252169   6.146   0.200   6.147 -3.3877 -1.6774  1.4274
10252TIP3   OH252170   6.087   3.975   1.760  0.3360  0.5079  0.0557
10252TIP3    H152171   6.026   4.041   1.727  1.0012  0.7339 -0.7670
10252TIP3    H252172   6.038   3.893   1.757  1.3472 -0.2495 -5.0653
10253TIP3   OH252173   0.694   0.068  16.062  0.8174  0.2236 -0.0326
10253TIP3    H152174   0.683   0.061  15.967 -1.6285 -0.9740  0.2576
10253TIP3    H252175   0.765   0.007  16.083  0.4014 -0.6037 -0.9653
10254TIP3   OH252176   1.403   2.761   5.163 -0.2997  0.8290  0.2304
10254TIP3    H152177   1.345   2.829   5.195 -0.9946  0.2155  0.2968
10254TIP3    H252178   1.362   2.679   5.190  0.0697  0.3575 -0.5897
10255TIP3   OH252179   2.676   5.352  14.027 -0.1221  0.1758  0.7948
10255TIP3    H152180   2.770   5.332  14.029 -0.0862  0.3165  3.2168
10255TIP3    H252181   2.657   5.387  14.114 -1.8068  3.1659 -0.5969
10256TIP3   OH252182   6.402   5.976   6.171  0.2073 -0.6750 -0.0571
10256TIP3    H152183   6.443   5.898   6.209 -1.6118 -1.4403  0.4049
10256TIP3    H252184   6.471   6.043   6.175  0.7995 -1.3017  2.6648
10257TIP3   OH252185   5.240   4.297  16.604 -0.0505 -0.5075  0.7131
10257TIP3    H152186   5.302   4.312  16.533 -1.0992  1.2993  0.1157
10257TIP3    H252187   5.295   4.280  16.680  1.1164 -1.2992 -0.2565
10258TIP3   OH252188   5.433   1.440   3.973  0.0449 -0.5164 -0.4694
10258TIP3    H152189   5.397   1.529   3.967 -0.1165 -0.5536 -0.0539
10258TIP3    H252190   5.527   1.452   3.963 -0.0265 -0.3643 -1.0379
10259TIP3   OH252191   6.306   5.062  12.353  0.9865  0.0863 -0.4073
10259TIP3    H152192   6.312   5.151  12.389  0.6867 -0.3975  0.8868
10259TIP3    H252193   6.397   5.032  12.348  0.9732 -0.3697  1.3848
10260TIP3   OH252194   5.585   2.174  14.712  0.3313  0.3522  0.3996
10260TIP3    H152195   5.551   2.087  14.694  0.1955  0.5131 -0.1448
10260TIP3    H252196   5.621   2.168  14.801 -0.5170  0.0023  0.7288
10261TIP3   OH252197   4.065   4.116  14.371 -0.0541 -0.1951  0.3816
10261TIP3    H152198   4.024   4.136  14.287 -1.4770  1.6231  1.4435
10261TIP3    H252199   4.135   4.181  14.379 -0.5131  0.2327  0.9908
10262TIP3   OH252200   4.894   4.110   3.483 -0.7932  0.0161  0.5887
10262TIP3    H152201   4.837   4.079   3.413 -0.2642  0.7277 -0.1859
10262TIP3    H252202   4.935   4.030   3.517 -0.6753 -0.3052 -0.2664
10263TIP3   OH252203   4.472   2.690   2.023 -0.2540 -0.4209 -0.3818
10263TIP3    H152204   4.390   2.667   2.067  0.6282 -1.2573  0.8897
10263TIP3    H252205   4.494   2.613   1.971 -1.9662  1.0087 -3.5429
10264TIP3   OH252206   1.310   2.167  11.543 -0.0160 -0.0264  0.2395
10264TIP3    H152207   1.255   2.090  11.529  1.7131 -1.2219 -0.4271
10264TIP3    H252208   1.301   2.218  11.462  0.3231 -0.5326 -0.1221
10265TIP3   OH252209   6.072   4.950   3.588 -0.2769  0.1351 -0.2230
10265TIP3    H152210   6.133   4.909   3.527 -1.7942 -0.6792 -1.2786
10265TIP3    H252211   6.007   4.882   3.606 -0.2862  0.6186  1.7307
10266TIP3   OH252212   1.078   6.441   3.631  0.3142  0.0434  0.1382
10266TIP3    H152213   1.110   6.388   3.559 -1.6652 -0.4297 -0.4433
10266TIP3    H252214   0.995   6.401   3.656 -0.6656  2.1384  0.4759
10267TIP3   OH252215   5.996   3.049  17.100  0.0626  0.3694  0.6942
10267TIP3    H152216   5.926   3.055  17.164 -1.8051  2.1039 -1.3549
10267TIP3    H252217   5.952   3.025  17.018  2.2776 -1.3206 -0.1155
10268TIP3   OH252218   2.585   1.096   1.697 -0.2323  0.1866 -0.1161
10268TIP3    H152219   2.643   1.020   1.693  0.7884  0.9811 -0.9539
10268TIP3    H252220   2.525   1.077   1.769 -0.6109 -1.8322 -0.8785
10269TIP3   OH252221   4.464   3.125  13.295 -0.1499 -0.1435  0.2784
10269TIP3    H152222   4.487   3.054  13.355 -0.8707  0.5545  1.4261
10269TIP3    H252223   4.539   3.184  13.299 -0.7562  0.5882  1.6083
10270TIP3   OH252224   5.097   1.651  16.269  0.6917 -0.2734 -0.3680
10270TIP3    H152225   5.142   1.735  16.270 -0.9916  0.6922 -0.6293
10270TIP3    H252226   5.108   1.619  16.179  1.0053 -0.1556 -0.3719
10271TIP3   OH252227   0.106   5.412   0.438 -0.0607 -0.0547  0.3796
10271TIP3    H152228   0.187   5.393   0.391 -0.7465 -0.1966 -0.7843
10271TIP3    H252229   0.047   5.445   0.370 -0.2453  2.2847  1.5805
10272TIP3   OH252230   1.813   1.601   3.516 -0.1817  0.2998  0.4983
10272TIP3    H152231   1.723   1.605   3.482 -0.7166  0.4276  1.8394
10272TIP3    H252232   1.862   1.662   3.461 -1.0936  0.8161  0.2279
10273TIP3   OH252233   5.129   6.135  10.374 -0.0054  0.1749  0.5405
10273TIP3    H152234   5.120   6.223  10.336  1.8129 -1.0062 -3.1353
10273TIP3    H252235   5.041   6.098  10.369 -0.5870  1.4077  1.1918
10274TIP3   OH252236   1.050   1.598  13.289 -0.5128  0.3412 -0.4810
10274TIP3    H152237   1.131   1.636  13.254  0.1057  0.4944  1.0253
10274TIP3    H252238   0.983   1.663  13.269 -0.1640  0.4778 -1.2427
10275TIP3   OH252239   4.181   2.234  11.850  0.6863 -0.2430  0.2655
10275TIP3    H152240   4.235   2.271  11.780 -0.0509  0.8773  0.2673
10275TIP3    H252241   4.190   2.296  11.923 -1.4074  0.5682 -0.0836
10276TIP3   OH252242   3.562   6.730  13.983 -0.1740 -0.2602  0.3055
10276TIP3    H152243   3.573   6.817  13.945  0.8490 -0.8643 -0.8139
10276TIP3    H252244   3.541   6.674  13.909  1.8076 -1.4519  0.5901
10277TIP3   OH252245   5.333   2.056   0.927 -0.7006 -0.5766  0.4266
10277TIP3    H152246   5.298   2.109   0.855 -0.2363  0.0097  0.6280
10277TIP3    H252247   5.275   2.075   1.001 -2.1257 -2.3466 -0.1553
10278TIP3   OH252248   4.459   2.087  16.200  0.1429 -0.2548 -0.0745
10278TIP3    H152249   4.437   2.050  16.114  0.7757 -1.6773  0.3355
10278TIP3    H252250   4.378   2.081  16.250 -0.8878  2.6795 -1.1988
10279TIP3   OH252251   0.448   2.917  15.033  0.0040  0.3839 -0.1525
10279TIP3    H152252   0.539   2.923  15.003 -0.0714 -0.5222 -0.5887
10279TIP3    H252253   0.410   2.847  14.980 -0.8223  0.4368  0.3569
10280TIP3   OH252254   1.364   5.382  15.862 -0.3211  0.1028 -0.0933
10280TIP3    H152255   1.358   5.289  15.885  1.3177 -0.4647 -1.6622
10280TIP3    H252256   1.337   5.385  15.770 -2.1556  1.5189  0.4439
10281TIP3   OH252257   6.479   5.132   4.150  0.0315  0.1116  1.1728
10281TIP3    H152258   6.558   5.088   4.118  0.2857  1.2010  0.2362
10281TIP3    H252259   6.512   5.206   4.201 -0.3751  0.7770  0.4870
10282TIP3   OH252260   3.654   1.629   5.955  0.0327  0.3657  0.2152
10282TIP3    H152261   3.726   1.672   6.001  0.4691  0.2439 -0.3331
10282TIP3    H252262   3.639   1.549   6.005  0.2450  0.4179  0.3665
10283TIP3   OH252263   4.026   6.348  16.395 -0.7988  0.4277  0.6166
10283TIP3    H152264   4.033   6.443  16.389  0.4594  0.2843 -0.8028
10283TIP3    H252265   4.101   6.322  16.448 -1.3888  0.2358  1.3780
10284TIP3   OH252266   5.465   2.332  10.738 -0.1162 -0.0818  0.1840
10284TIP3    H152267   5.383   2.283  10.726 -0.0297  0.0951 -1.2266
10284TIP3    H252268   5.526   2.293  10.675 -0.1883  2.1161 -1.3525
10285TIP3   OH252269   5.360   0.465  11.469  0.1981 -0.1087  0.6418
10285TIP3    H152270   5.308   0.404  11.521 -2.6762  0.3038 -1.5036
10285TIP3    H252271   5.384   0.415  11.391 -0.8621  0.9965 -0.4281
10286TIP3   OH252272   2.539   0.410   0.022  0.3182  0.0559 -0.4711
10286TIP3    H152273   2.479   0.423   0.095 -2.6073 -1.0291 -2.4869
10286TIP3    H252274   2.595   0.488   0.021  2.0896 -0.8661  4.1463
10287TIP3   OH252275   1.745   3.443  16.874 -0.1134 -0.1704 -0.0945
10287TIP3    H152276   1.736   3.376  16.806  0.8038 -0.2284 -0.1678
10287TIP3    H252277   1.839   3.447  16.892 -0.3769 -0.4604  1.4753
10288TIP3   OH252278   5.714   1.114   0.865  0.4400 -0.3770  0.1035
10288TIP3    H152279   5.805   1.133   0.891  1.5571 -1.1311 -2.8928
10288TIP3    H252280   5.683   1.195   0.826  1.8524 -1.5428 -3.8563
10289TIP3   OH252281   3.212   4.633   5.092  0.3461 -0.1479  0.1646
10289TIP3    H152282   3.255   4.550   5.113 -1.3656 -0.7494  1.5240
10289TIP3    H252283   3.232   4.690   5.166 -0.1024 -0.0161  0.1896
10290TIP3   OH252284   0.957   5.465  12.759  0.0257 -0.1371 -0.1959
10290TIP3    H152285   0.930   5.380  12.725  0.6106  0.6035 -2.7514
10290TIP3    H252286   0.881   5.497  12.807 -1.5462 -0.5896 -2.2399
10291TIP3   OH252287   0.943   4.974   1.645  0.6936  0.4452  0.1593
10291TIP3    H152288   0.903   5.023   1.573  0.9510  0.1258 -0.2044
10291TIP3    H252289   0.981   4.897   1.603 -0.7096 -0.6820  0.8544
10292TIP3   OH252290   2.158   5.759   3.474 -0.2564 -0.4299  0.5988
10292TIP3    H152291   2.213   5.682   3.490  0.3317 -0.5855 -1.8707
10292TIP3    H252292   2.214   5.833   3.497 -0.0279 -0.6668  0.8229
10293TIP3   OH252293   6.520   2.216  14.546 -0.3549 -0.2539 -0.2181
10293TIP3    H152294   6.601   2.166  14.548  0.6793  1.3657  0.8710
10293TIP3    H252295   6.469   2.177  14.474  1.2769 -1.4357 -0.7846
10294TIP3   OH252296   2.333   3.535   0.698  0.7700  0.3869  0.2119
10294TIP3    H152297   2.263   3.492   0.649  1.8297 -2.3611  0.9333
10294TIP3    H252298   2.299   3.623   0.716 -2.2431 -0.6252  0.0509
10295TIP3   OH252299   4.694   1.877  13.602 -0.2336  0.2310  0.1360
10295TIP3    H152300   4.726   1.907  13.687 -0.7708 -0.2368  0.5142
10295TIP3    H252301   4.690   1.782  13.610 -1.8727  0.2686  0.1861
10296TIP3   OH252302   4.860   1.563   5.088  0.2602  0.4703  0.4220
10296TIP3    H152303   4.923   1.491   5.082  0.6141  0.8012  0.1362
10296TIP3    H252304   4.822   1.554   5.175  0.4119  0.0286  0.4479
10297TIP3   OH252305   3.416   4.612  15.799  0.2291  0.0722  0.5084
10297TIP3    H152306   3.381   4.637  15.884  0.0255 -0.5901  0.6261
10297TIP3    H252307   3.357   4.543  15.768  1.2760 -0.8927  0.5936
10298TIP3   OH252308   6.530   4.913  11.058  0.4915 -0.7707 -0.5139
10298TIP3    H152309   6.588   4.921  10.982  1.3643 -2.6148 -0.1089
10298TIP3    H252310   6.447   4.883  11.021 -0.2205  1.6937 -1.0738
10299TIP3   OH252311   3.157   6.107   3.171 -0.6823  0.0086 -0.2435
10299TIP3    H152312   3.125   6.092   3.260  1.2692 -1.8071  0.2298
10299TIP3    H252313   3.247   6.138   3.182 -0.8571  1.0552 -1.5733
10300TIP3   OH252314   0.838   2.472  13.370  0.0000 -0.0215  0.5167
10300TIP3    H152315   0.838   2.457  13.464  0.8857  0.4010  0.5979
10300TIP3    H252316   0.883   2.395  13.333  0.8378  0.4303  0.5677
10301TIP3   OH252317   2.180   4.999  11.739 -0.5152  0.3445  0.5773
10301TIP3    H152318   2.137   5.080  11.768 -1.0924  0.0794  0.4748
10301TIP3    H252319   2.111   4.949  11.697 -0.2361 -0.3476  0.9239
10302TIP3   OH252320   2.033   5.425  16.282 -0.6363 -0.6087  0.1670
10302TIP3    H152321   1.983   5.466  16.211  0.2382 -1.4989 -1.0054
10302TIP3    H252322   1.971   5.365  16.323 -1.3890  0.5011  0.7163
10303TIP3   OH252323   6.131   0.826   4.450 -0.3627 -0.2375  0.2808
10303TIP3    H152324   6.042   0.794   4.465 -0.2591 -0.6446  0.0489
10303TIP3    H252325   6.158   0.782   4.369  0.6631 -1.4077  1.2258
10304TIP3   OH252326   1.336   4.400  12.647  0.3947  0.0596  0.1157
10304TIP3    H152327   1.344   4.370  12.557 -0.4152 -0.4744  0.2060
10304TIP3    H252328   1.418   4.445  12.666  0.1721  1.1011 -1.2225
10305TIP3   OH252329   1.657   4.142  11.028 -0.7043 -0.0821  0.5591
10305TIP3    H152330   1.625   4.152  10.938  0.9054 -0.5203 -0.1016
10305TIP3    H252331   1.705   4.223  11.045  1.1545 -1.0134  0.0422
10306TIP3   OH252332   0.389   3.742   0.518  0.0856 -0.1880  0.2235
10306TIP3    H152333   0.392   3.828   0.477 -1.2434 -0.4564 -0.4997
10306TIP3    H252334   0.355   3.684   0.450 -0.1817 -1.0495  1.0698
10307TIP3   OH252335   5.508   2.507   0.292  0.6041  0.0736 -0.2174
10307TIP3    H152336   5.446   2.526   0.362 -2.3413 -0.9953 -2.3244
10307TIP3    H252337   5.519   2.412   0.296  1.3911  0.1555 -0.4138
10308TIP3   OH252338   6.566   4.828   3.944 -0.4675  0.3005  0.4562
10308TIP3    H152339   6.609   4.888   4.005 -0.3608 -1.3877  2.1661
10308TIP3    H252340   6.528   4.761   4.001 -1.6494 -0.5737 -1.2872
10309TIP3   OH252341   4.996   2.605  13.956 -0.2991 -0.4845  0.4325
10309TIP3    H152342   5.064   2.663  13.990  1.1576 -2.3060  0.7872
10309TIP3    H252343   4.952   2.656  13.888  1.2403  0.8367  0.3883
10310TIP3   OH252344   1.705   0.931  12.171 -0.4475 -0.6157 -0.2656
10310TIP3    H152345   1.624   0.973  12.202 -1.7246 -1.9951 -1.5197
10310TIP3    H252346   1.719   0.858  12.230  1.2768  0.9658  1.3821
10311TIP3   OH252347   4.569   3.095  15.491  0.1572  0.0666 -0.9827
10311TIP3    H152348   4.567   3.012  15.537  0.2621  0.4554 -0.2587
10311TIP3    H252349   4.508   3.084  15.418  0.2064 -0.6524 -0.9209
10312TIP3   OH252350   4.888   3.675  13.323  0.1492  0.0198 -0.4179
10312TIP3    H152351   4.846   3.639  13.401 -0.2235 -1.6463 -1.3579
10312TIP3    H252352   4.835   3.643  13.250  1.4906  0.1138 -1.4634
10313TIP3   OH252353   1.883   1.001   1.520 -0.1520 -0.3573 -0.5761
10313TIP3    H152354   1.936   0.925   1.544 -1.0722 -1.8948 -3.0778
10313TIP3    H252355   1.801   0.989   1.569 -0.0216 -0.5582 -0.4041
10314TIP3   OH252356   3.077   0.428   3.091  0.4886 -0.0804  0.0412
10314TIP3    H152357   3.114   0.489   3.155  1.4539 -0.3521 -0.2402
10314TIP3    H252358   3.090   0.342   3.130 -0.0837 -0.1688  0.0455
10315TIP3   OH252359   5.200   4.493  10.891  0.2040 -0.1987  0.1342
10315TIP3    H152360   5.105   4.486  10.882  0.0766  0.6534  0.7218
10315TIP3    H252361   5.215   4.582  10.924  1.0022 -1.2070  2.7092
10316TIP3   OH252362   3.002   3.696  13.421 -0.1548 -0.5576 -0.0229
10316TIP3    H152363   3.097   3.689  13.434 -0.2774 -1.3710  0.5311
10316TIP3    H252364   2.973   3.605  13.409 -0.3900 -0.1207 -3.9093
10317TIP3   OH252365   0.920   1.727   2.331 -0.5084 -0.2756 -0.4590
10317TIP3    H152366   1.014   1.737   2.349 -0.5609  1.4182 -0.8962
10317TIP3    H252367   0.879   1.790   2.390 -1.1886  0.5347 -1.7541
10318TIP3   OH252368   5.451   3.371  13.563 -0.2207  0.3395  0.1314
10318TIP3    H152369   5.533   3.398  13.605  0.4348 -1.6706  0.2584
10318TIP3    H252370   5.385   3.379  13.632  0.5749 -1.5189  1.1739
10319TIP3   OH252371   0.847   4.824   4.550  0.0821  0.1422  0.8600
10319TIP3    H152372   0.883   4.749   4.503 -0.0665  0.0376  0.9136
10319TIP3    H252373   0.781   4.786   4.608 -2.5633  0.6600 -1.5997
10320TIP3   OH252374   0.723   4.466   0.381  0.7385 -0.0793  0.3264
10320TIP3    H152375   0.715   4.439   0.473  0.0178  0.4028  0.4160
10320TIP3    H252376   0.745   4.385   0.334  0.2384 -0.5105  0.8097
10321TIP3   OH252377   3.174   2.697   6.518 -0.3949  0.6473  0.1057
10321TIP3    H152378   3.171   2.625   6.455  0.3050  2.1560 -1.7624
10321TIP3    H252379   3.256   2.743   6.498  0.9308  0.1002  3.4889
10322TIP3   OH252380   5.893   1.171  16.085 -0.7548  0.1098  0.1340
10322TIP3    H152381   5.945   1.247  16.058 -0.8564  0.1463  0.0390
10322TIP3    H252382   5.804   1.193  16.058 -0.7006 -0.2659 -0.3655
10323TIP3   OH252383   1.295   2.007  10.871 -0.6990  0.4020  0.4320
10323TIP3    H152384   1.355   2.066  10.827 -0.0676  1.2021  2.2852
10323TIP3    H252385   1.226   1.990  10.806  0.2652  1.3687 -0.8934
10324TIP3   OH252386   2.178   1.608   5.144  0.2482 -0.1460  0.4818
10324TIP3    H152387   2.130   1.685   5.173  1.0987  3.0692 -5.0655
10324TIP3    H252388   2.120   1.566   5.080  0.9553 -2.5134  1.2815
10325TIP3   OH252389   0.008   4.146  11.270  0.5445 -0.1220 -0.3440
10325TIP3    H152390   0.064   4.175  11.197  0.2423  2.0619  0.2347
10325TIP3    H252391  -0.049   4.079  11.231  0.5247  0.8469 -2.0781
10326TIP3   OH252392   3.852   2.298   1.863  0.0740  0.3415  0.1685
10326TIP3    H152393   3.756   2.296   1.861  0.0413 -0.1108  1.3623
10326TIP3    H252394   3.875   2.265   1.950  1.2901  1.8901  0.4719
10327TIP3   OH252395   1.036   5.976  12.347  0.2204 -0.3174  0.1317
10327TIP3    H152396   1.123   6.012  12.330  0.7470 -2.3124 -1.7803
10327TIP3    H252397   1.052   5.886  12.374 -1.2274 -0.2911  1.2291
10328TIP3   OH252398   2.432   5.459  10.326  0.0408 -0.0330  0.4917
10328TIP3    H152399   2.458   5.508  10.404 -1.7120  0.7975  0.6108
10328TIP3    H252400   2.444   5.367  10.350  0.4157  0.2422  1.3885
10329TIP3   OH252401   6.013   5.879   3.040 -0.3816  0.1540  0.1306
10329TIP3    H152402   6.050   5.865   3.127 -0.0185  0.3002 -0.0001
10329TIP3    H252403   5.961   5.959   3.049 -1.5566 -0.6244  0.5912
10330TIP3   OH252404   4.959   1.117   3.085 -0.0958 -0.0155 -0.0248
10330TIP3    H152405   4.887   1.107   3.022 -0.5474 -0.0825  0.4965
10330TIP3    H252406   4.918   1.159   3.161  0.6920  1.1318 -0.2129
10331TIP3   OH252407   5.518   4.805   4.723  0.0056  0.2976  0.4560
10331TIP3    H152408   5.557   4.760   4.798  0.0229 -0.6205 -0.0889
10331TIP3    H252409   5.593   4.842   4.676  0.0555  0.2307  0.4830
10332TIP3   OH252410   5.797   3.721  13.648  0.0251  0.2131 -0.2497
10332TIP3    H152411   5.824   3.678  13.567  0.3355 -0.8279  0.3897
10332TIP3    H252412   5.704   3.739  13.636 -0.1104 -0.6397 -0.5457
10333TIP3   OH252413   4.626   3.840   1.041 -0.1000  0.2448  0.2205
10333TIP3    H152414   4.609   3.914   1.099  0.7682 -0.1668  1.0197
10333TIP3    H252415   4.650   3.880   0.957  0.7225  0.8777  0.7471
10334TIP3   OH252416   3.032   3.716   5.168  0.2925  0.3688  0.3115
10334TIP3    H152417   3.044   3.630   5.129 -0.2048  0.3394  0.2164
10334TIP3    H252418   2.942   3.741   5.146 -0.4434 -0.1726  2.4216
10335TIP3   OH252419   4.640   3.379  15.895  0.1833 -0.1620  0.4010
10335TIP3    H152420   4.608   3.445  15.957 -0.2172  0.2925 -0.2728
10335TIP3    H252421   4.730   3.406  15.876 -0.5061  1.2244 -1.1746
10336TIP3   OH252422   4.359   1.516   3.590 -0.0512  0.0091 -0.2999
10336TIP3    H152423   4.451   1.510   3.614  0.0310  1.7327 -0.0461
10336TIP3    H252424   4.330   1.425   3.580  1.3581 -0.5831  0.7817
10337TIP3   OH252425   1.935   1.450   3.700  0.1752  0.2798  0.0065
10337TIP3    H152426   1.873   1.507   3.653 -0.9277  0.2256  1.3332
10337TIP3    H252427   1.991   1.511   3.748 -0.0513  0.2907  0.2603
10338TIP3   OH252428   6.724   3.115   0.383  0.0675  0.0118 -0.4944
10338TIP3    H152429   6.743   3.124   0.289 -0.7098 -0.6698 -0.7364
10338TIP3    H252430   6.752   3.197   0.422 -0.4765  0.6865 -1.4876
10339TIP3   OH252431   2.146   4.719   2.401  0.7622  0.3847 -0.6923
10339TIP3    H152432   2.151   4.811   2.428 -0.7020  0.4759 -0.6429
10339TIP3    H252433   2.114   4.723   2.311  0.9096 -0.0723 -0.7652
10340TIP3   OH252434   1.181   3.261  13.195  0.1995  0.5126  0.3868
10340TIP3    H152435   1.257   3.314  13.215  0.0034  1.4323 -1.1450
10340TIP3    H252436   1.113   3.324  13.171 -0.3208 -0.3561 -0.5270
10341TIP3   OH252437   3.184   0.629  13.390 -0.2979 -0.1584 -0.0818
10341TIP3    H152438   3.088   0.623  13.381 -0.4495  0.1459  1.1265
10341TIP3    H252439   3.201   0.723  13.399  0.5184  0.1984 -3.8185
10342TIP3   OH252440   2.775   5.260   3.371  0.0083  0.2715 -0.3591
10342TIP3    H152441   2.843   5.219   3.318  0.4662 -1.2357  1.2999
10342TIP3    H252442   2.702   5.274   3.311  1.6145  1.6566 -2.1292
10343TIP3   OH252443   3.145   2.572   6.270 -0.0297  0.3129  0.6721
10343TIP3    H152444   3.196   2.525   6.204 -0.8557 -1.9824  1.5442
10343TIP3    H252445   3.105   2.502   6.322 -1.4632  2.0437  1.9933
10344TIP3   OH252446   3.401   0.854   4.891  0.0183  0.1555  0.1416
10344TIP3    H152447   3.312   0.834   4.864  0.0528  0.6207 -0.3376
10344TIP3    H252448   3.456   0.799   4.835  0.0164 -0.5726  0.8464
10345TIP3   OH252449   6.066   3.500  14.125 -0.8866 -0.3186 -0.2472
10345TIP3    H152450   6.145   3.465  14.084 -0.3724 -1.2358  1.4026
10345TIP3    H252451   6.085   3.593  14.138  0.8560 -0.8686  1.9268
10346TIP3   OH252452   4.052   5.734   6.135 -0.1637  0.8091 -0.4211
10346TIP3    H152453   4.095   5.658   6.174  0.3105  1.3910  0.2139
10346TIP3    H252454   4.120   5.774   6.079  0.0181  1.5062  0.2791
10347TIP3   OH252455   0.814   2.991   6.083  0.0297 -0.1302  0.2469
10347TIP3    H152456   0.862   2.921   6.127  1.1942  0.7922  0.5296
10347TIP3    H252457   0.843   3.071   6.129 -0.7064  0.5919 -0.5266
10348TIP3   OH252458   6.642   6.405  12.223 -0.8959  0.0938 -0.2980
10348TIP3    H152459   6.725   6.385  12.180  0.5469  2.3197  1.2229
10348TIP3    H252460   6.637   6.344  12.296 -0.9784 -0.4916 -0.7793
10349TIP3   OH252461   6.368   0.083  14.479  0.1866  0.0284 -0.4214
10349TIP3    H152462   6.439   0.022  14.502  0.6871  0.3282 -1.1116
10349TIP3    H252463   6.414   0.163  14.453 -0.4126  0.2772 -0.7234
10350TIP3   OH252464   5.510   1.448   6.444  0.0578 -0.2423  0.0594
10350TIP3    H152465   5.512   1.431   6.538  2.4420  1.1357  0.3479
10350TIP3    H252466   5.564   1.380   6.405 -0.5119 -0.5172 -0.2585
10351TIP3   OH252467   5.245   5.482  14.823  0.0100  0.1138  0.4802
10351TIP3    H152468   5.264   5.396  14.788 -0.1202  0.1512  0.3163
10351TIP3    H252469   5.323   5.534  14.804 -0.8297  0.6962 -1.5775
10352TIP3   OH252470   2.002   3.974   3.472  0.1677 -0.0252 -0.1338
10352TIP3    H152471   2.047   3.907   3.420  0.2013 -1.0781  1.2191
10352TIP3    H252472   2.073   4.022   3.514  0.1037  0.1337 -0.2073
10353TIP3   OH252473   2.151   4.935  16.040 -0.8405 -0.5597 -0.3131
10353TIP3    H152474   2.172   4.900  16.127 -1.6947 -0.3313 -0.0036
10353TIP3    H252475   2.132   4.857  15.987  0.4258 -0.7475 -0.5131
10354TIP3   OH252476   5.001   4.692  11.015 -0.3779 -0.2759  0.4598
10354TIP3    H152477   5.000   4.770  10.959  0.2162 -0.4329  0.2163
10354TIP3    H252478   4.964   4.622  10.961 -0.6131 -0.2335  0.5662
10355TIP3   OH252479   5.132   0.379  13.689  0.0910  0.3657  0.5728
10355TIP3    H152480   5.221   0.368  13.655  0.0633 -1.3361  0.9577
10355TIP3    H252481   5.123   0.473  13.704  1.5455  0.6541 -0.2102
10356TIP3   OH252482   3.293   0.955  16.458  0.2244 -0.3828  0.0713
10356TIP3    H152483   3.353   0.924  16.526 -0.3033 -1.1307  0.2013
10356TIP3    H252484   3.261   1.039  16.491 -0.3976 -0.9624  0.9967
10357TIP3   OH252485   3.371   4.193  11.030  0.0438 -0.6261 -0.6137
10357TIP3    H152486   3.449   4.143  11.005 -0.6161 -1.1245 -1.7670
10357TIP3    H252487   3.354   4.167  11.121  1.2607 -0.4483 -0.3243
10358TIP3   OH252488   2.628   4.343  15.580  0.1150 -0.0586  0.3809
10358TIP3    H152489   2.555   4.397  15.610 -0.9340 -0.0818 -1.9505
10358TIP3    H252490   2.588   4.262  15.548  1.2529 -0.4882 -0.0469
10359TIP3   OH252491   1.062   4.511  10.950 -0.5659  0.2549 -0.0750
10359TIP3    H152492   0.976   4.534  10.914 -1.2515  1.4277  2.1027
10359TIP3    H252493   1.108   4.595  10.954  0.1287 -0.1359  0.1005
10360TIP3   OH252494   2.633   5.689  16.922 -0.6278  0.0610 -0.3430
10360TIP3    H152495   2.626   5.784  16.917 -1.2974  0.1076  0.9854
10360TIP3    H252496   2.552   5.657  16.883 -2.5112  0.2149  3.1098
10361TIP3   OH252497   0.968   5.506  10.394  0.1897  0.0419 -0.1321
10361TIP3    H152498   0.960   5.439  10.327 -0.1071  2.4776 -2.6951
10361TIP3    H252499   0.882   5.506  10.438 -0.0617 -0.7262 -0.6060
10362TIP3   OH252500   5.265   2.388  13.485  0.0165  0.3243 -0.6266
10362TIP3    H152501   5.280   2.458  13.421 -1.5215  0.8868 -0.4217
10362TIP3    H252502   5.214   2.430  13.555  1.4844 -0.3158  0.9125
10363TIP3   OH252503   0.204   3.662  12.685 -0.0228  0.2847  0.6180
10363TIP3    H152504   0.198   3.684  12.592 -1.3461  1.4366  0.9425
10363TIP3    H252505   0.297   3.647  12.700 -0.0274 -2.8071 -1.4917
10364TIP3   OH252506   3.482   6.423   1.705  0.2436  0.8791  0.2088
10364TIP3    H152507   3.549   6.396   1.643 -0.1166  0.8843 -0.1824
10364TIP3    H252508   3.526   6.422   1.790  0.1762 -1.2020  0.2663
10365TIP3   OH252509   4.935   0.346  13.504 -0.3317  0.4871  0.2564
10365TIP3    H152510   5.012   0.353  13.560 -0.0920 -2.2887  0.3639
10365TIP3    H252511   4.969   0.323  13.417 -0.9878 -0.0167  0.1198
10366TIP3   OH252512   1.000   3.531   6.060 -0.4634  0.7582 -0.5762
10366TIP3    H152513   1.051   3.463   6.103 -2.3129 -0.3472 -0.0341
10366TIP3    H252514   1.022   3.612   6.107  0.8946  0.3563 -0.4982
10367TIP3   OH252515   3.359   3.911  11.699 -0.0113 -0.1570  0.0035
10367TIP3    H152516   3.330   3.877  11.615 -2.9302 -0.7622  1.1363
10367TIP3    H252517   3.286   3.964  11.730  1.2727  0.6463  1.8609
10368TIP3   OH252518   6.185   3.661   0.702 -0.0285  0.0273 -0.0446
10368TIP3    H152519   6.196   3.707   0.785 -0.5965 -0.2211  0.1748
10368TIP3    H252520   6.141   3.724   0.645 -0.6387 -0.1754  0.1967
10369TIP3   OH252521   1.275   0.284  15.986 -0.0721 -0.3509  0.4364
10369TIP3    H152522   1.306   0.199  15.954  2.0981  0.8925 -0.9590
10369TIP3    H252523   1.183   0.269  16.008  0.4430 -3.2568  1.0348
10370TIP3   OH252524   1.170   4.935  15.301  0.6646 -0.4315 -0.4836
10370TIP3    H152525   1.187   5.028  15.316 -0.2285 -0.3357  0.0144
10370TIP3    H252526   1.236   4.889  15.353  0.7308 -0.0750 -0.2530
10371TIP3   OH252527   3.424   1.165  14.657 -0.0182 -0.2500 -0.3371
10371TIP3    H152528   3.329   1.164  14.650 -0.0974 -0.1942  0.6003
10371TIP3    H252529   3.455   1.144  14.569 -0.8788  0.8738 -0.9398
10372TIP3   OH252530   5.673   4.606   2.093 -0.0354 -0.2719 -0.0638
10372TIP3    H152531   5.645   4.692   2.125 -1.1879 -0.3509 -0.8324
10372TIP3    H252532   5.765   4.601   2.118 -0.6475 -0.0005  2.5428
10373TIP3   OH252533   6.029   3.062  14.301 -0.1186  1.0287  0.0905
10373TIP3    H152534   5.951   3.080  14.353 -1.0368  1.2896 -1.3345
10373TIP3    H252535   6.001   3.074  14.210  0.9418 -1.2308 -0.6057
10374TIP3   OH252536   4.614   3.485   6.601 -0.6607  0.5476 -0.6047
10374TIP3    H152537   4.521   3.499   6.616 -1.1716 -1.0700 -1.9574
10374TIP3    H252538   4.632   3.400   6.642  0.5287  1.3973  0.7145
10375TIP3   OH252539   4.875   2.286   3.216  0.8389  0.7425  0.5473
10375TIP3    H152540   4.798   2.229   3.217  0.0697  1.5353 -2.7069
10375TIP3    H252541   4.939   2.239   3.269 -0.6632 -1.8036  0.3227
10376TIP3   OH252542   6.079   5.336  12.214 -0.2124 -0.2136 -0.0493
10376TIP3    H152543   6.114   5.407  12.161  0.3951 -1.7726 -1.8398
10376TIP3    H252544   5.984   5.345  12.207 -0.1535  0.7209  0.2023
10377TIP3   OH252545   4.360   6.051  13.269  0.3086 -0.0809 -0.0330
10377TIP3    H152546   4.393   6.100  13.194  0.3776  0.7551  0.5343
10377TIP3    H252547   4.290   5.997  13.233  2.4964 -2.2473 -1.3777
10378TIP3   OH252548   3.533   3.164  14.450 -0.4128 -0.0290  0.4702
10378TIP3    H152549   3.525   3.180  14.356 -1.0551  0.8947  0.6662
10378TIP3    H252550   3.495   3.242  14.491  0.1165 -0.2875  1.4967
10379TIP3   OH252551   3.578   2.429   5.934 -0.0131 -0.1732  0.3506
10379TIP3    H152552   3.672   2.415   5.942  0.2289  0.3808 -1.1051
10379TIP3    H252553   3.554   2.478   6.012  1.2344  1.1084 -0.0134
10380TIP3   OH252554   3.215   1.768   0.238 -0.1005 -0.0259 -0.1982
10380TIP3    H152555   3.141   1.708   0.220 -0.9007  0.9995 -0.4223
10380TIP3    H252556   3.248   1.740   0.323 -1.1763 -0.0827  0.2143
10381TIP3   OH252557   1.750   6.629   4.137 -0.1865 -0.4781  0.1802
10381TIP3    H152558   1.683   6.560   4.135 -1.0304  0.3245 -1.3442
10381TIP3    H252559   1.753   6.661   4.047 -0.5576  2.1508  1.0185
10382TIP3   OH252560   4.843   1.240   3.619  0.2916 -0.0070  0.9285
10382TIP3    H152561   4.760   1.192   3.628  1.7719 -2.9770  0.0972
10382TIP3    H252562   4.883   1.235   3.706  0.7040 -0.8484  0.6983
10383TIP3   OH252563   1.648   0.085   5.991  0.3107  0.3069  0.3782
10383TIP3    H152564   1.715   0.030   6.031  0.4204 -1.6879 -2.2512
10383TIP3    H252565   1.686   0.113   5.908 -1.4882  0.5326 -0.4203
10384TIP3   OH252566   2.867   6.169   0.506 -0.1329  0.6549 -0.0720
10384TIP3    H152567   2.919   6.214   0.573 -0.7456 -0.5365  1.2676
10384TIP3    H252568   2.787   6.143   0.551 -1.6442  1.8624 -1.9099
10385TIP3   OH252569   2.975   3.703  10.894 -0.5945 -0.5010  0.3363
10385TIP3    H152570   3.039   3.648  10.940 -0.9187  0.2538  1.7168
10385TIP3    H252571   2.943   3.763  10.960  0.0162  1.6385 -1.2049
10386TIP3   OH252572   2.659   3.495   4.131 -0.2455  0.5182 -0.4261
10386TIP3    H152573   2.744   3.524   4.099  0.1498 -0.2355 -0.0894
10386TIP3    H252574   2.642   3.548   4.208 -0.1111  0.7110 -0.5284
10387TIP3   OH252575   1.279   4.940   4.816  0.0073  0.4653 -0.4305
10387TIP3    H152576   1.346   4.873   4.831  1.0700  1.3102 -1.2458
10387TIP3    H252577   1.326   5.011   4.773 -1.0188  1.8776  0.6864
10388TIP3   OH252578   3.428   6.780   3.276  0.0299  0.5731 -0.1311
10388TIP3    H152579   3.415   6.875   3.286 -1.0173  0.3119  1.4146
10388TIP3    H252580   3.507   6.762   3.327  0.1374  0.5960 -0.2905
10389TIP3   OH252581   2.783   3.091  15.217  0.1828 -0.0031  0.8395
10389TIP3    H152582   2.828   3.034  15.278  2.4609  0.5988 -0.1580
10389TIP3    H252583   2.716   3.135  15.270  0.6452 -1.0695  2.3758
10390TIP3   OH252584   5.894   2.508   4.875  0.1433 -0.3119  0.2698
10390TIP3    H152585   5.884   2.533   4.783 -0.0413 -0.0841  0.3502
10390TIP3    H252586   5.956   2.571   4.910  0.5916 -0.7033  0.1811
10391TIP3   OH252587   5.405   4.053   4.981 -0.1699 -0.1784  0.3683
10391TIP3    H152588   5.472   3.985   4.972 -0.8819 -0.8860  0.2550
10391TIP3    H252589   5.375   4.045   5.071  0.8065  1.0259  0.8234
10392TIP3   OH252590   5.069   0.352  11.174  0.1116  0.7614  0.4657
10392TIP3    H152591   5.155   0.330  11.212 -0.5803  1.7776  2.8118
10392TIP3    H252592   5.067   0.448  11.175 -1.1708  0.7457  0.8025
10393TIP3   OH252593   2.334   4.673  11.527  0.2295  0.8932 -0.0790
10393TIP3    H152594   2.370   4.760  11.544 -0.1814  1.0852 -0.1770
10393TIP3    H252595   2.242   4.680  11.551 -0.4217  1.2057 -2.4147
10394TIP3   OH252596   5.356   1.852   1.154 -0.1582 -0.4274  0.0050
10394TIP3    H152597   5.305   1.932   1.148  0.0921 -0.0727  1.9702
10394TIP3    H252598   5.298   1.789   1.196  0.4288 -0.5366  0.6728
10395TIP3   OH252599   5.498   4.437   0.747 -0.0448  0.2638  0.0856
10395TIP3    H152600   5.581   4.390   0.738 -0.5251 -0.4694 -0.7804
10395TIP3    H252601   5.455   4.395   0.822  0.6889  1.1755  1.0337
10396TIP3   OH252602   6.772   6.275   5.277 -0.4093 -0.1748 -0.0609
10396TIP3    H152603   6.747   6.367   5.275 -2.2850 -0.6589 -1.1899
10396TIP3    H252604   6.868   6.276   5.273 -0.4428  1.6929 -2.0240
10397TIP3   OH252605   1.482   3.151  11.376 -0.7238 -0.7806  0.8208
10397TIP3    H152606   1.500   3.219  11.311 -1.5756 -2.3361 -1.1677
10397TIP3    H252607   1.543   3.168  11.447 -0.7300  1.8690  0.2715
10398TIP3   OH252608   5.386   5.932   5.361 -0.3461 -0.6625  0.4463
10398TIP3    H152609   5.480   5.941   5.345 -0.3511 -0.5648  0.4731
10398TIP3    H252610   5.365   6.004   5.421 -0.9350  0.9563 -1.5815
10399TIP3   OH252611   0.295   4.758   1.809 -0.1848 -0.2506 -0.1659
10399TIP3    H152612   0.245   4.724   1.884  0.1130 -0.8340 -0.2286
10399TIP3    H252613   0.316   4.848   1.835  1.1849 -0.8957  1.1196
10400TIP3   OH252614   2.368   5.855  15.147  0.0713 -0.3679 -0.4616
10400TIP3    H152615   2.278   5.875  15.121 -0.5235 -0.4184  1.3633
10400TIP3    H252616   2.371   5.759  15.151 -0.3125 -0.3442  1.0098
10401TIP3   OH252617   4.323   4.235  12.354  0.0591  0.3142  0.0426
10401TIP3    H152618   4.388   4.303  12.372  0.5266 -0.3633  0.9445
10401TIP3    H252619   4.347   4.202  12.267 -1.2176  2.4473 -1.2419
10402TIP3   OH252620   0.641   6.549   5.977 -0.2854 -0.0107  0.2054
10402TIP3    H152621   0.588   6.531   6.054 -1.1042  1.9399  0.1545
10402TIP3    H252622   0.731   6.538   6.007 -0.6224 -0.3433  1.1372
10403TIP3   OH252623   2.056   4.889   3.447 -0.1943 -0.9648  0.0547
10403TIP3    H152624   2.110   4.958   3.408  0.5479 -1.4536  0.2087
10403TIP3    H252625   2.012   4.933   3.520  0.6643 -0.7581  0.4663
10404TIP3   OH252626   5.463   1.971   3.408 -0.3504  0.1665  0.1101
10404TIP3    H152627   5.522   2.030   3.360  0.3611  0.6936  1.5612
10404TIP3    H252628   5.453   1.895   3.350  0.6448  0.6787 -0.7778
10405TIP3   OH252629   0.982   0.261   4.861 -0.2650  0.0293  0.5158
10405TIP3    H152630   0.976   0.276   4.956  0.5110 -0.2780  0.6177
10405TIP3    H252631   1.033   0.335   4.828  0.1115 -0.2589  0.4477
10406TIP3   OH252632   6.744   3.428  12.643  0.9619 -0.1005  0.4017
10406TIP3    H152633   6.797   3.389  12.574  1.9025  1.1431  0.3783
10406TIP3    H252634   6.759   3.522  12.635 -0.3463  0.2028  1.1523
10407TIP3   OH252635   2.028   1.696  15.385  0.0416  0.1415  0.1664
10407TIP3    H152636   2.063   1.610  15.410 -0.8634  0.0202  1.0868
10407TIP3    H252637   1.955   1.710  15.445  0.3931  1.7210  0.2578
10408TIP3   OH252638   0.752   2.838   1.431 -0.4680  0.1223  0.1406
10408TIP3    H152639   0.781   2.753   1.400  0.3582  0.2156  0.6269
10408TIP3    H252640   0.698   2.819   1.508 -0.4470  0.0246  0.1308
10409TIP3   OH252641   1.446   3.900   6.473  1.0485  0.1761  0.6107
10409TIP3    H152642   1.424   3.977   6.525  0.0513 -1.2149  2.3918
10409TIP3    H252643   1.390   3.907   6.395  1.0771  1.3141  0.6828
10410TIP3   OH252644   5.150   4.561   1.288  0.4470  0.6037  0.4646
10410TIP3    H152645   5.172   4.587   1.198 -0.8740  0.4988  0.0909
10410TIP3    H252646   5.214   4.493   1.310  0.8352  0.6858 -0.3615
10411TIP3   OH252647   2.591   4.419  16.531 -0.2128  0.0403  0.0857
10411TIP3    H152648   2.636   4.416  16.615  0.1258  1.4405 -0.0224
10411TIP3    H252649   2.513   4.365  16.543  0.4036 -0.6846  0.9362
10412TIP3   OH252650   2.143   2.462   1.849 -0.0645 -0.1358 -0.8763
10412TIP3    H152651   2.164   2.543   1.894  3.6949  0.0916 -2.6356
10412TIP3    H252652   2.095   2.489   1.771  2.0592  0.6506 -1.9924
10413TIP3   OH252653   3.910   6.537  14.615 -0.1343  0.2339 -0.2455
10413TIP3    H152654   3.824   6.495  14.626  0.0457 -1.5645 -4.0558
10413TIP3    H252655   3.973   6.469  14.637  0.2270  0.1291 -1.5434
10414TIP3   OH252656   0.207   5.539   4.189  0.7381 -0.1716 -0.0199
10414TIP3    H152657   0.221   5.449   4.220 -0.9110 -0.2355  0.6267
10414TIP3    H252658   0.158   5.529   4.107 -0.6703  0.1446  0.7582
10415TIP3   OH252659   0.423   6.373   1.557 -0.4781  0.2821 -0.0611
10415TIP3    H152660   0.503   6.406   1.518 -1.9733  1.9038 -2.0002
10415TIP3    H252661   0.412   6.285   1.521 -1.3961  1.4257 -2.8582
10416TIP3   OH252662   0.175   3.594  16.837 -0.2857  0.0743 -0.2997
10416TIP3    H152663   0.096   3.593  16.783 -0.5892  1.1855  0.0994
10416TIP3    H252664   0.145   3.621  16.923  0.8389  3.2366 -0.7538
10417TIP3   OH252665   1.497   0.296   3.262  0.8183  0.2914 -0.4486
10417TIP3    H152666   1.584   0.260   3.278  0.5143  0.5148  2.1875
10417TIP3    H252667   1.440   0.252   3.325 -0.8130  0.8340 -1.4610
10418TIP3   OH252668   0.633   1.865   5.861 -0.2464 -0.5513 -0.2283
10418TIP3    H152669   0.721   1.841   5.889 -0.2272 -3.2370 -2.1649
10418TIP3    H252670   0.645   1.900   5.773 -1.0719 -0.4544 -0.3103
10419TIP3   OH252671   4.380   0.508   2.698  0.2212  0.3596  0.7190
10419TIP3    H152672   4.417   0.421   2.684 -0.5215 -0.0162  1.0065
10419TIP3    H252673   4.451   0.568   2.678  0.5130 -0.2863 -0.2503
10420TIP3   OH252674   4.635   6.242   2.018  0.7220 -0.1970  0.4172
10420TIP3    H152675   4.697   6.204   1.956  0.4963 -0.5585  0.4092
10420TIP3    H252676   4.650   6.193   2.099  2.7901  1.9225  1.4400
10421TIP3   OH252677   4.509   1.352  16.771  0.3741  0.3012 -0.9121
10421TIP3    H152678   4.550   1.375  16.854 -1.2278  2.4785 -0.6239
10421TIP3    H252679   4.559   1.400  16.705 -0.2778  1.1391 -0.8129
10422TIP3   OH252680   6.576   0.739  16.126  0.7927  0.0395 -0.1942
10422TIP3    H152681   6.653   0.743  16.070  0.2958  0.8420 -0.8458
10422TIP3    H252682   6.588   0.660  16.179 -0.4475 -3.0052 -3.9604
10423TIP3   OH252683   2.314   6.528   0.717  0.3334 -0.7293  0.0256
10423TIP3    H152684   2.298   6.610   0.764 -1.3315 -0.3589 -1.1356
10423TIP3    H252685   2.362   6.555   0.639  0.7994 -1.0257  0.2041
10424TIP3   OH252686   5.070   1.788  13.504 -0.3566 -0.2614 -0.1744
10424TIP3    H152687   5.019   1.867  13.525  1.5848  0.6436  1.4196
10424TIP3    H252688   5.147   1.820  13.459  0.8370 -1.1227  1.1617
10425TIP3   OH252689   4.642   4.686  15.890  0.3778  0.4199  0.5907
10425TIP3    H152690   4.556   4.728  15.898  0.4132  0.8668 -0.9877
10425TIP3    H252691   4.687   4.709  15.971 -0.3811  1.6422  0.6965
10426TIP3   OH252692   4.582   1.573   4.448 -0.5057  0.4299  0.6310
10426TIP3    H152693   4.561   1.661   4.480 -1.0610  0.5382 -0.0136
10426TIP3    H252694   4.558   1.574   4.355  0.9539  0.0788  0.2231
10427TIP3   OH252695   3.339   4.285   1.875 -0.4933  0.4879 -0.7751
10427TIP3    H152696   3.412   4.223   1.870 -1.8594 -1.3294  0.4536
10427TIP3    H252697   3.377   4.369   1.849  1.6091 -0.7054 -1.8637
10428TIP3   OH252698   3.585   4.444  14.566 -0.4596  0.3675 -0.1435
10428TIP3    H152699   3.568   4.350  14.556 -1.0283  0.4151  0.3482
10428TIP3    H252700   3.677   4.449  14.593 -1.2043 -0.2410  2.8113
10429TIP3   OH252701   0.537   1.170   0.676  0.4074  0.0351 -0.6458
10429TIP3    H152702   0.534   1.077   0.654  0.2691 -0.7039  2.1441
10429TIP3    H252703   0.600   1.176   0.748 -0.0524  2.0109 -0.3475
10430TIP3   OH252704   6.402   5.296  11.362  0.4751  0.3852  0.4133
10430TIP3    H152705   6.343   5.360  11.401  0.8603 -0.0019  1.6718
10430TIP3    H252706   6.395   5.311  11.267 -1.4624  0.4921  0.5459
10431TIP3   OH252707   0.970   0.580   3.514  0.1609 -0.4734  0.4055
10431TIP3    H152708   0.881   0.549   3.533 -1.0465  1.2797 -1.8868
10431TIP3    H252709   0.968   0.603   3.421  2.8206  0.3318  0.4768
10432TIP3   OH252710   0.532   6.690  11.810 -0.1402  0.2091 -0.3116
10432TIP3    H152711   0.517   6.609  11.859  0.2516 -0.0668 -0.6322
10432TIP3    H252712   0.587   6.743  11.868  1.3393 -0.6114 -0.9133
10433TIP3   OH252713   3.264   2.330   5.208 -0.6470 -0.0249 -0.2010
10433TIP3    H152714   3.350   2.371   5.212  0.2629 -1.5031 -2.4393
10433TIP3    H252715   3.213   2.387   5.149 -0.1654 -0.7355 -1.3443
10434TIP3   OH252716   1.560   1.300   4.675  0.0233 -0.3294  0.4385
10434TIP3    H152717   1.546   1.210   4.647 -1.3480  0.0962 -0.3348
10434TIP3    H252718   1.479   1.346   4.651  1.2512  1.4373 -0.5864
10435TIP3   OH252719   5.841   2.407   3.490 -0.0645 -0.6231  0.3453
10435TIP3    H152720   5.880   2.363   3.566 -0.3439 -0.6647  0.4683
10435TIP3    H252721   5.901   2.480   3.471 -1.2890  1.0092  2.2443
10436TIP3   OH252722   1.127   3.638  12.785 -0.0417 -0.3258 -0.0371
10436TIP3    H152723   1.050   3.693  12.798 -0.0307 -0.5303  0.9991
10436TIP3    H252724   1.164   3.628  12.873 -0.1355 -2.0898 -0.1602
10437TIP3   OH252725   0.104   4.439   4.006 -0.2152 -0.0586 -0.1463
10437TIP3    H152726   0.091   4.359   3.955  0.7413 -0.7381  0.6475
10437TIP3    H252727   0.035   4.436   4.073 -1.4053  0.7818 -1.2906
10438TIP3   OH252728   3.517   6.271   3.027  0.3856 -0.8335 -0.7307
10438TIP3    H152729   3.590   6.327   3.000 -0.6926  0.8263 -0.3473
10438TIP3    H252730   3.527   6.262   3.121  0.0523 -0.5108 -0.6612
10439TIP3   OH252731   4.215   0.188   0.571  0.0218  0.5998 -0.5363
10439TIP3    H152732   4.204   0.167   0.664  0.2551 -0.0628 -0.6521
10439TIP3    H252733   4.264   0.270   0.570 -2.8634  2.4621 -0.0316
10440TIP3   OH252734   5.151   3.536  14.655  0.0923  0.1233 -0.1248
10440TIP3    H152735   5.238   3.497  14.646  1.0261  1.9233  0.6362
10440TIP3    H252736   5.131   3.569  14.567  0.2774 -0.0797 -0.2462
10441TIP3   OH252737   0.368   0.159  15.863 -0.7000 -0.2200  0.0431
10441TIP3    H152738   0.362   0.160  15.768 -3.8609  2.3890  0.1280
10441TIP3    H252739   0.422   0.235  15.885  1.2462 -1.6239  0.4082
10442TIP3   OH252740   2.904   3.138   3.858  0.0282  0.6106 -0.3904
10442TIP3    H152741   2.812   3.147   3.881  0.3318  0.4104  0.9572
10442TIP3    H252742   2.927   3.222   3.818 -0.9692  0.3127 -1.6559
10443TIP3   OH252743   3.296   4.387  12.667 -0.0035  0.1042  0.3733
10443TIP3    H152744   3.359   4.458  12.652  0.2180  0.0729  1.1318
10443TIP3    H252745   3.283   4.348  12.580  1.9051 -0.6444  0.3824
10444TIP3   OH252746   2.235   0.092  16.509 -0.3894 -0.2865 -0.3465
10444TIP3    H152747   2.303   0.131  16.563 -0.1380 -0.0956 -0.7923
10444TIP3    H252748   2.233   0.000  16.535 -1.4139  0.1169  1.1530
10445TIP3   OH252749   0.883   4.808   3.352 -0.3136 -0.3981  0.1020
10445TIP3    H152750   0.831   4.729   3.339 -0.5653 -0.4613  1.3757
10445TIP3    H252751   0.841   4.874   3.298 -0.8793 -0.8128  0.0275
10446TIP3   OH252752   4.845   0.574   2.009  0.1392 -0.0858 -0.4200
10446TIP3    H152753   4.780   0.642   1.991  1.0082  0.7998 -0.3212
10446TIP3    H252754   4.805   0.493   1.978 -1.6610  0.1716  1.1112
10447TIP3   OH252755   3.136   6.320  13.036 -0.5350 -0.2387 -0.7271
10447TIP3    H152756   3.119   6.231  13.065 -0.6338 -0.9468 -2.7837
10447TIP3    H252757   3.208   6.311  12.973 -1.0080  1.0370 -1.4783
10448TIP3   OH252758   4.072   0.306   3.615  0.8275  0.5776  0.1403
10448TIP3    H152759   4.103   0.392   3.643  0.7159  0.6174  0.1420
10448TIP3    H252760   3.985   0.323   3.578  0.8820  0.4916 -0.0245
10449TIP3   OH252761   5.793   1.796  16.636  0.3573  0.1275 -0.0667
10449TIP3    H152762   5.887   1.801  16.649  0.3236  0.2646  0.1397
10449TIP3    H252763   5.765   1.720  16.688  0.2507  0.5499  0.5012
10450TIP3   OH252764   4.934   6.711   2.152 -0.2847  0.0117  0.7721
10450TIP3    H152765   4.876   6.694   2.226  0.4671  0.2111  1.4249
10450TIP3    H252766   4.942   6.627   2.108 -0.4063 -0.2091  1.1651
10451TIP3   OH252767   6.651   3.012   6.518 -0.2963 -0.0099  0.1255
10451TIP3    H152768   6.715   2.946   6.491 -1.1555 -1.1163  0.7252
10451TIP3    H252769   6.633   2.992   6.610 -0.0704  1.4946  0.5261
10452TIP3   OH252770   3.936   3.210   3.773 -0.8775  0.2817 -0.0659
10452TIP3    H152771   3.978   3.290   3.805  0.0816 -0.6963  1.2410
10452TIP3    H252772   3.938   3.218   3.677  3.4688 -0.1600 -0.2226
10453TIP3   OH252773   6.632   5.503  17.090 -0.2337 -0.1268 -0.4273
10453TIP3    H152774   6.704   5.554  17.052 -0.7939  0.0551 -1.2926
10453TIP3    H252775   6.596   5.454  17.016 -1.6851  0.6292 -0.2582
10454TIP3   OH252776   2.124   6.333   0.655  0.0405  0.1587 -0.0613
10454TIP3    H152777   2.190   6.388   0.697 -0.5557 -0.7779  2.2465
10454TIP3    H252778   2.050   6.332   0.716 -0.0367 -3.0086 -0.0052
10455TIP3   OH252779   2.943   5.455  15.897 -0.1958  0.1831 -0.2313
10455TIP3    H152780   3.003   5.525  15.871  1.1751 -0.1910  1.6566
10455TIP3    H252781   2.901   5.428  15.816  1.6777  0.9676 -1.5493
10456TIP3   OH252782   1.603   4.497   4.961 -0.7167 -0.3708  0.1116
10456TIP3    H152783   1.643   4.563   4.904  1.8150 -0.4127  1.6963
10456TIP3    H252784   1.544   4.547   5.017  1.4131  0.7529  1.5251
10457TIP3   OH252785   3.686   5.083   1.085 -0.3608  0.0081 -0.0172
10457TIP3    H152786   3.684   5.158   1.025  0.8673 -1.4729 -2.0307
10457TIP3    H252787   3.630   5.018   1.045  2.0033 -1.7450 -0.7187
10458TIP3   OH252788   3.535   5.475   2.971  0.0841  0.5778 -0.0007
10458TIP3    H152789   3.452   5.488   2.925  0.2938  3.7139  0.3017
10458TIP3    H252790   3.602   5.492   2.904  0.4976 -0.2952  0.1718
10459TIP3   OH252791   5.235   0.155   1.353 -0.2645  0.4028  0.4092
10459TIP3    H152792   5.202   0.199   1.431  0.2768  0.1967  0.7559
10459TIP3    H252793   5.279   0.224   1.303  1.1477  0.1465  1.2627
10460TIP3   OH252794   6.111   5.495  11.333  0.4477  0.4586 -0.1137
10460TIP3    H152795   6.164   5.516  11.257  0.5402  0.5416 -0.0274
10460TIP3    H252796   6.029   5.543  11.320  0.2121 -0.0338 -0.4695
10461TIP3   OH252797   5.077   6.388   4.699  0.7531  0.4292 -0.2487
10461TIP3    H152798   4.987   6.411   4.722  0.9423  1.2837 -0.3294
10461TIP3    H252799   5.128   6.409   4.777  1.2859  2.6386 -1.0915
10462TIP3   OH252800   0.124   1.202   5.717  0.1486 -0.3117 -0.4910
10462TIP3    H152801   0.139   1.130   5.778 -1.6711  0.7461  1.3150
10462TIP3    H252802   0.052   1.172   5.661 -0.7252  0.1027  0.3720
10463TIP3   OH252803   4.334   5.892  12.022  0.1152  0.1012 -0.2810
10463TIP3    H152804   4.339   5.966  11.961  1.1242 -0.9703 -1.5616
10463TIP3    H252805   4.352   5.931  12.108 -0.0129  1.4380 -0.8357
10464TIP3   OH252806   1.682   2.271   5.370  0.1614  0.0591  0.0795
10464TIP3    H152807   1.727   2.355   5.378  1.1720 -0.5170  0.6954
10464TIP3    H252808   1.596   2.293   5.334 -0.3210  1.5978  1.9737
10465TIP3   OH252809   0.173   4.178   0.515  0.2067  0.2272  0.2835
10465TIP3    H152810   0.166   4.250   0.579 -0.0450 -0.7154  1.3587
10465TIP3    H252811   0.262   4.144   0.529 -0.6558 -1.5401  1.9178
10466TIP3   OH252812   4.776   0.523   0.439  0.2580 -0.3655  0.1335
10466TIP3    H152813   4.777   0.533   0.534  2.0585  0.2963  0.0946
10466TIP3    H252814   4.683   0.527   0.415 -0.1192  2.0517  1.6360
10467TIP3   OH252815   1.250   0.634   4.341  0.4529 -0.2967  0.0868
10467TIP3    H152816   1.314   0.566   4.362 -0.3147 -1.2634 -0.5660
10467TIP3    H252817   1.170   0.607   4.387  0.6290  1.1983  1.3664
10468TIP3   OH252818   4.578   4.217   6.362 -0.2838 -0.1912 -0.0103
10468TIP3    H152819   4.606   4.289   6.306 -0.3173 -2.1756 -2.8089
10468TIP3    H252820   4.483   4.227   6.370  0.0232  1.7221  2.2810
10469TIP3   OH252821   4.460   2.422  16.880 -0.1663  0.7225  0.0015
10469TIP3    H152822   4.385   2.366  16.897  1.6216 -1.6069  0.7570
10469TIP3    H252823   4.467   2.424  16.784  0.3821 -1.4084 -0.0607
10470TIP3   OH252824   0.277   6.583   1.350  0.0212 -0.1811  0.3990
10470TIP3    H152825   0.320   6.529   1.283  0.4722  0.3802  0.2273
10470TIP3    H252826   0.234   6.520   1.407  1.6250 -0.8286  0.9602
10471TIP3   OH252827   0.093   0.339   5.874  0.3605  0.7755  0.0185
10471TIP3    H152828   0.145   0.419   5.875  0.6583  0.5816  1.6345
10471TIP3    H252829   0.097   0.306   5.963 -1.1807 -0.1357 -0.2063
10472TIP3   OH252830   4.596   5.472   5.145 -0.0148 -0.2417  0.0647
10472TIP3    H152831   4.583   5.417   5.068  2.3539  0.0420 -0.6424
10472TIP3    H252832   4.548   5.552   5.126 -0.1163 -0.4900 -0.7787
10473TIP3   OH252833   1.159   2.281   0.558 -0.3103  0.6463 -0.1413
10473TIP3    H152834   1.106   2.202   0.547  0.2448  0.3561 -0.8679
10473TIP3    H252835   1.121   2.344   0.497 -1.4545  1.3323  1.2512
10474TIP3   OH252836   0.162   5.572   4.895  0.3546  0.0518  0.1847
10474TIP3    H152837   0.221   5.572   4.970 -0.6313  0.8851  0.9973
10474TIP3    H252838   0.149   5.480   4.874 -0.5517 -0.2973  2.0326
10475TIP3   OH252839   0.181   0.650   2.068 -0.6992 -0.5504  0.4866
10475TIP3    H152840   0.232   0.625   1.991 -0.5392  1.5840 -0.1630
10475TIP3    H252841   0.090   0.645   2.039 -0.7212 -1.3034  0.6711
10476TIP3   OH252842   5.894   0.113  14.971  0.0629 -0.0494 -0.5271
10476TIP3    H152843   5.821   0.164  14.936 -0.7060 -1.6553 -1.3623
10476TIP3    H252844   5.968   0.136  14.914 -0.3475 -0.0733 -1.0797
10477TIP3   OH252845   3.721   3.068  16.384 -0.2133  0.6847 -0.3393
10477TIP3    H152846   3.642   3.014  16.379  0.0551  0.1629  0.6549
10477TIP3    H252847   3.767   3.052  16.302  1.0295 -2.5053  0.8168
10478TIP3   OH252848   3.171   4.981   3.308  0.2379  0.2420 -0.0012
10478TIP3    H152849   3.199   5.073   3.302 -0.3085  0.3199 -3.4339
10478TIP3    H252850   3.077   4.985   3.327  0.4356  0.3293  0.9939
10479TIP3   OH252851   2.443   4.500   0.422 -0.6041 -0.1853  0.3002
10479TIP3    H152852   2.362   4.462   0.389 -0.6776  0.8896 -0.8593
10479TIP3    H252853   2.415   4.557   0.494 -0.8417 -0.0400  0.0929
10480TIP3   OH252854   2.276   5.802   1.896  0.2067  0.0820  0.5548
10480TIP3    H152855   2.265   5.707   1.887 -1.6696  0.2968  0.0107
10480TIP3    H252856   2.250   5.837   1.810  4.7163  0.9423 -0.7163
10481TIP3   OH252857   5.050   1.412   4.898 -0.0833  0.5549  0.5797
10481TIP3    H152858   5.059   1.466   4.820 -0.4401 -1.5151 -0.9822
10481TIP3    H252859   5.139   1.380   4.916  0.2272  1.9657  1.8192
10482TIP3   OH252860   5.367   0.223   1.866 -0.3605 -0.0460 -0.2131
10482TIP3    H152861   5.416   0.305   1.863 -0.2556 -0.1411 -1.5292
10482TIP3    H252862   5.338   0.216   1.957 -0.7026  1.6518 -0.1475
10483TIP3   OH252863   4.668   1.751   2.077 -0.2613 -0.6039  0.2781
10483TIP3    H152864   4.635   1.760   2.166  1.2021 -0.6086  0.8560
10483TIP3    H252865   4.604   1.696   2.033 -1.1804 -0.3310  1.2204
10484TIP3   OH252866   6.483   3.252  11.364 -0.0733  0.3869 -0.3555
10484TIP3    H152867   6.412   3.255  11.301 -0.0125 -1.4416 -0.5894
10484TIP3    H252868   6.456   3.184  11.427  0.4718  1.2172  0.8223
10485TIP3   OH252869   2.714   4.435  13.503 -0.2262 -0.5611 -0.4501
10485TIP3    H152870   2.786   4.383  13.465  0.5637 -0.5232  0.9031
10485TIP3    H252871   2.660   4.370  13.548  0.0071 -0.3867  0.0950
10486TIP3   OH252872   5.708   6.074  11.826  0.0916 -0.4660 -0.5454
10486TIP3    H152873   5.743   6.104  11.742  0.4595  0.4465 -0.0741
10486TIP3    H252874   5.784   6.072  11.884 -0.7315  2.5647  0.8007
10487TIP3   OH252875   6.010   4.766  14.197  0.0088  0.3236  0.0301
10487TIP3    H152876   5.939   4.818  14.158 -0.4907 -0.8044 -0.6017
10487TIP3    H252877   6.058   4.829  14.250 -0.6935  1.4017 -0.5575
10488TIP3   OH252878   2.882   0.222   6.065 -0.3133  0.7546  0.1201
10488TIP3    H152879   2.833   0.143   6.085 -0.8892  0.3220 -2.5818
10488TIP3    H252880   2.969   0.206   6.101  0.0111 -1.7832 -1.4984
10489TIP3   OH252881   0.030   6.604   1.694  1.0681  0.0269 -0.1504
10489TIP3    H152882   0.007   6.545   1.765  2.1103 -0.0690  0.1230
10489TIP3    H252883   0.016   6.692   1.729  0.2334 -0.0378 -0.3074
10490TIP3   OH252884   3.335   5.188  10.551 -0.2396  0.4986  0.3361
10490TIP3    H152885   3.251   5.235  10.554 -0.7180 -0.3426  0.3102
10490TIP3    H252886   3.350   5.162  10.642  0.2833  1.1260  0.4403
10491TIP3   OH252887   5.325   2.439   2.057 -0.6229  0.2146 -0.3199
10491TIP3    H152888   5.292   2.357   2.095  1.1246 -1.1183 -1.5120
10491TIP3    H252889   5.266   2.457   1.984 -2.0501  1.0368  0.9539
10492TIP3   OH252890   4.625   3.674  14.496 -0.4625  0.1722  0.7099
10492TIP3    H152891   4.654   3.584  14.479 -0.1276  0.2147  1.0587
10492TIP3    H252892   4.654   3.693  14.585 -0.9958  0.4422  0.8362
10493TIP3   OH252893   2.181   2.750  15.546  0.3194 -0.3532 -0.1447
10493TIP3    H152894   2.226   2.666  15.552 -2.0294 -1.6077  1.3815
10493TIP3    H252895   2.191   2.789  15.633 -1.0301 -0.4166  0.0623
10494TIP3   OH252896   5.738   1.187  11.957 -0.1585  0.1400 -0.3773
10494TIP3    H152897   5.707   1.234  12.035  0.3146  1.4122 -0.9345
10494TIP3    H252898   5.721   1.247  11.885  0.8560 -0.3838 -1.0647
10495TIP3   OH252899   3.399   2.228  11.196  0.0688 -0.8288  0.3336
10495TIP3    H152900   3.487   2.265  11.197  0.6567 -2.0418 -1.2334
10495TIP3    H252901   3.342   2.303  11.175  0.6016  0.1000  2.0389
10496TIP3   OH252902   0.625   1.032   4.183 -0.1333 -0.0966 -0.2514
10496TIP3    H152903   0.630   1.105   4.121 -0.6070 -1.0340 -1.4060
10496TIP3    H252904   0.591   1.072   4.263 -2.4961  0.5665 -1.5192
10497TIP3   OH252905   1.593   2.758   0.478 -0.1774 -0.4819  0.3443
10497TIP3    H152906   1.610   2.678   0.528  0.9784 -0.5157 -0.0751
10497TIP3    H252907   1.498   2.758   0.466 -0.2165 -1.7267  0.4589
10498TIP3   OH252908   6.625   1.182  16.959 -0.3114  0.9494 -0.1764
10498TIP3    H152909   6.673   1.198  16.878  1.0572 -0.0671  0.3984
10498TIP3    H252910   6.548   1.132  16.932  0.3651  0.2190 -0.8102
10499TIP3   OH252911   2.680   3.011   0.729 -0.2384  0.4699  0.6623
10499TIP3    H152912   2.748   3.010   0.662 -1.3815  1.3079 -0.5864
10499TIP3    H252913   2.727   3.009   0.812  1.2412 -0.3331 -0.1594
10500TIP3   OH252914   0.579   4.885  14.403 -0.1872  0.4502  0.0665
10500TIP3    H152915   0.496   4.913  14.441  0.3416  1.9151  0.2059
10500TIP3    H252916   0.568   4.898  14.309 -0.0740  0.7705  0.0973
10501TIP3   OH252917   6.762   3.936   1.937 -0.1834 -0.2678  0.2337
10501TIP3    H152918   6.826   3.865   1.929  0.0333 -0.1161  0.6122
10501TIP3    H252919   6.805   4.001   1.992  0.0411  0.6452 -0.9752
10502TIP3   OH252920   4.247   0.434   1.836  0.0298  0.1225  0.3242
10502TIP3    H152921   4.242   0.355   1.782  0.5573  0.2171  0.1334
10502TIP3    H252922   4.161   0.439   1.879  0.4211 -1.2414  1.3121
10503TIP3   OH252923   2.707   3.708   3.814 -0.2763 -0.0864  0.0862
10503TIP3    H152924   2.762   3.786   3.809 -0.7546  0.4734  2.4871
10503TIP3    H252925   2.765   3.636   3.787  0.4192  0.9564 -1.3050
10504TIP3   OH252926   1.924   2.331  16.570  0.1206 -0.1271 -0.6158
10504TIP3    H152927   1.922   2.427  16.576  1.2789 -0.1501  0.6812
10504TIP3    H252928   2.018   2.309  16.566 -0.1458 -1.1857 -1.6393
10505TIP3   OH252929   1.295   5.732   2.287 -0.0570 -0.3313  0.4309
10505TIP3    H152930   1.362   5.745   2.354 -0.5472 -1.4619  1.1836
10505TIP3    H252931   1.273   5.639   2.293 -0.5984 -0.3128 -0.8559
10506TIP3   OH252932   3.414   2.853   6.431 -0.1643 -0.3209  0.5499
10506TIP3    H152933   3.460   2.879   6.510 -0.9515  1.4288  0.4769
10506TIP3    H252934   3.482   2.844   6.364  0.3851 -0.8222  1.1696
10507TIP3   OH252935   0.375   0.894  17.085  0.0587  0.2505  0.0884
10507TIP3    H152936   0.464   0.923  17.065  0.2171 -0.6581 -0.5791
10507TIP3    H252937   0.328   0.974  17.107  0.6359  0.9483 -1.1204
10508TIP3   OH252938   5.900   2.848  13.256 -0.1204 -0.6124 -0.2870
10508TIP3    H152939   5.955   2.899  13.197  0.5985  0.7486  1.4624
10508TIP3    H252940   5.819   2.898  13.263 -0.5539 -1.2214 -0.7496
10509TIP3   OH252941   4.048   6.718   5.269  0.0710  0.2721 -0.0160
10509TIP3    H152942   3.978   6.683   5.324  0.8832 -0.3592  0.6560
10509TIP3    H252943   4.095   6.640   5.239  0.8801  0.7160  0.0841
10510TIP3   OH252944   3.927   3.903  12.313  0.0532 -0.8860 -0.5231
10510TIP3    H152945   3.843   3.932  12.349 -0.1016  0.5981 -1.9552
10510TIP3    H252946   3.989   3.916  12.385 -0.5202  0.4775 -0.2311
10511TIP3   OH252947   2.245   5.147   4.939 -0.6824  0.8707  0.2340
10511TIP3    H152948   2.312   5.216   4.941 -0.6991  0.8727  1.0743
10511TIP3    H252949   2.268   5.090   5.012 -1.5780  0.8511  0.5082
10512TIP3   OH252950   2.271   6.288  11.994  0.1248 -0.2551 -0.2702
10512TIP3    H152951   2.308   6.200  12.001 -1.1339 -0.6851  1.5502
10512TIP3    H252952   2.306   6.334  12.070  0.5514  0.7596 -1.0635
10513TIP3   OH252953   2.480   4.145  16.476  0.8156 -0.2799  0.1708
10513TIP3    H152954   2.441   4.109  16.397 -1.2235  0.6684  0.6704
10513TIP3    H252955   2.414   4.130  16.544  1.4507  1.1377  1.1423
10514TIP3   OH252956   1.070   4.522  11.856  0.3782 -0.7287  0.2103
10514TIP3    H152957   1.146   4.579  11.870 -0.0238  0.0206 -0.5850
10514TIP3    H252958   1.034   4.550  11.772 -0.6501 -1.2283  0.4706
10515TIP3   OH252959   0.534   5.357  16.250  0.4771  0.1824 -0.0069
10515TIP3    H152960   0.499   5.348  16.161  0.1482 -0.5502  0.1835
10515TIP3    H252961   0.465   5.320  16.306  0.6236  0.7689  0.5648
10516TIP3   OH252962   0.005   5.032  11.852  0.2394 -0.3864 -0.0237
10516TIP3    H152963   0.038   5.030  11.941 -1.7392  1.4741  0.8397
10516TIP3    H252964  -0.081   5.073  11.859 -0.8821 -2.0379 -2.5287
10517TIP3   OH252965   3.519   5.078  13.786 -0.1613  0.5355  0.1267
10517TIP3    H152966   3.609   5.054  13.765 -0.4649  0.5211 -1.2797
10517TIP3    H252967   3.510   5.061  13.879  1.2063  0.2677  0.2254
10518TIP3   OH252968   5.219   4.651  14.778  0.0428  0.1616 -0.0761
10518TIP3    H152969   5.294   4.678  14.831 -0.8203 -0.1955  1.3801
10518TIP3    H252970   5.146   4.648  14.840 -0.8782 -0.8810 -1.1695
10519TIP3   OH252971   3.477   0.656  16.517  0.4425  0.2732 -0.0541
10519TIP3    H152972   3.443   0.588  16.576  0.7604 -0.5071 -0.7557
10519TIP3    H252973   3.399   0.706  16.492  0.0150 -0.5749 -0.4726
10520TIP3   OH252974   0.967   4.624  13.610  0.5730 -0.5666  0.0927
10520TIP3    H152975   0.930   4.536  13.602  2.4574 -1.3333 -0.8321
10520TIP3    H252976   0.891   4.682  13.617 -0.7004 -2.2958  1.3535
10521TIP3   OH252977   0.458   3.384   0.294  0.0727 -0.0273  0.3122
10521TIP3    H152978   0.515   3.375   0.217 -1.6131 -1.1699 -0.8707
10521TIP3    H252979   0.519   3.400   0.367  1.7243  1.1098 -1.2200
10522TIP3   OH252980   3.574   4.121   1.877  0.2259  0.0410 -0.1052
10522TIP3    H152981   3.536   4.100   1.963 -0.5432  0.5833 -0.2961
10522TIP3    H252982   3.554   4.046   1.822 -0.4984  0.2720 -0.1715
10523TIP3   OH252983   3.873   0.040  12.185 -0.0163  0.5712 -0.4439
10523TIP3    H152984   3.965   0.037  12.211  0.5034 -0.4885 -2.2293
10523TIP3    H252985   3.837   0.115  12.232  1.5955  0.6407  0.7647
10524TIP3   OH252986   3.297   0.139  14.636  0.1448 -0.2267 -0.0047
10524TIP3    H152987   3.341   0.191  14.568  0.0692 -1.5336 -1.1008
10524TIP3    H252988   3.210   0.122  14.601  0.3791 -1.6073  0.0262
10525TIP3   OH252989   1.520   2.707   0.176  0.2176 -0.2043  0.8284
10525TIP3    H152990   1.442   2.743   0.219 -1.1838  0.1211 -1.7771
10525TIP3    H252991   1.572   2.784   0.153  0.0212 -0.2251  0.2974
10526TIP3   OH252992   4.514   4.598  17.068  0.1719  0.0689 -0.8318
10526TIP3    H152993   4.517   4.672  17.129  2.7999  0.1810 -0.9846
10526TIP3    H252994   4.486   4.636  16.985 -3.4150 -0.0812  0.1436
10527TIP3   OH252995   1.771   6.267  15.770  0.0719  0.0079  0.3457
10527TIP3    H152996   1.759   6.340  15.710  0.0103 -0.0963  0.2285
10527TIP3    H252997   1.685   6.224  15.772 -0.4612  1.0793  1.9445
10528TIP3   OH252998   3.460   6.125   5.786 -0.0858  0.1289 -0.7680
10528TIP3    H152999   3.512   6.049   5.759 -1.3791 -1.9219  2.0026
10528TIP3    H253000   3.372   6.106   5.754 -0.3409  0.6670 -0.3990
10529TIP3   OH253001   1.948   0.589   0.321 -0.1854 -0.4417  0.1203
10529TIP3    H153002   1.882   0.523   0.301 -1.0941  0.8605 -1.3514
10529TIP3    H253003   1.958   0.585   0.416 -3.0914 -0.0221  0.5253
10530TIP3   OH253004   2.956   2.752   4.947  0.0593  0.0203  0.5697
10530TIP3    H153005   3.028   2.816   4.954  0.5210 -0.5051  0.7332
10530TIP3    H253006   2.941   2.743   4.853  1.6837 -1.4553  0.4006
10531TIP3   OH253007   6.113   1.522   5.754 -0.1588  0.4431  0.2448
10531TIP3    H153008   6.162   1.574   5.818 -1.1021  0.7712  0.7222
10531TIP3    H253009   6.060   1.463   5.807 -1.4894  1.2095 -0.1916
10532TIP3   OH253010   0.133   6.166   1.382  0.2983 -0.8943  0.1701
10532TIP3    H153011   0.084   6.107   1.439  0.6231 -1.0198  0.3201
10532TIP3    H253012   0.135   6.249   1.429 -0.5809 -0.6104 -0.2569
10533TIP3   OH253013   0.876   6.782   5.471  0.3054 -0.0970  0.0059
10533TIP3    H153014   0.922   6.721   5.413  1.9717 -0.0565  1.2190
10533TIP3    H253015   0.925   6.864   5.464  1.1177 -0.3344  2.0989
10534TIP3   OH253016   5.881   2.567   6.170  0.7066 -0.2906  0.0729
10534TIP3    H153017   5.845   2.488   6.131  1.7937 -0.1345 -1.3225
10534TIP3    H253018   5.804   2.618   6.196 -0.0434 -0.8819 -0.9111
10535TIP3   OH253019   2.211   1.679  12.223 -0.6354 -0.4850 -0.0449
10535TIP3    H153020   2.252   1.671  12.309  2.1777 -0.0979 -1.2161
10535TIP3    H253021   2.180   1.591  12.203  2.1119 -1.5420 -0.1185
10536TIP3   OH253022   2.799   3.274  16.773 -0.9511 -0.1050 -0.3832
10536TIP3    H153023   2.884   3.284  16.730 -1.5124 -0.1116 -1.5607
10536TIP3    H253024   2.774   3.183  16.755 -1.1698 -0.1259  0.0214
10537TIP3   OH253025   0.731   2.137   0.116  0.2246  0.1712 -0.4970
10537TIP3    H153026   0.639   2.110   0.122  0.3684 -0.2051  0.1813
10537TIP3    H253027   0.780   2.056   0.129  0.6558  0.5063  0.0135
10538TIP3   OH253028   0.625   4.478   2.550 -0.0468  0.3745 -0.2295
10538TIP3    H153029   0.601   4.528   2.628 -0.1434  2.0039 -1.2694
10538TIP3    H253030   0.657   4.394   2.585 -0.3620  0.9418  1.5342
10539TIP3   OH253031   1.553   5.456  11.933  0.2556  0.1965 -0.4130
10539TIP3    H153032   1.541   5.391  12.002  0.5402 -0.4902 -1.0048
10539TIP3    H253033   1.594   5.531  11.977 -0.4178  0.1260  0.3436
10540TIP3   OH253034   6.504   0.704   4.424 -0.1734  0.2194  0.4815
10540TIP3    H153035   6.552   0.716   4.507  1.8872 -1.6617 -0.3361
10540TIP3    H253036   6.475   0.613   4.425  2.5961 -0.8592 -2.0605
10541TIP3   OH253037   1.402   3.068  14.278 -0.5687  0.0897  0.4251
10541TIP3    H153038   1.441   3.056  14.365  0.3561 -0.7735 -0.0962
10541TIP3    H253039   1.308   3.061  14.294 -0.5208  1.4832  1.5908
10542TIP3   OH253040   6.289   3.510   3.891  0.2800  0.2633 -0.4423
10542TIP3    H153041   6.238   3.480   3.967 -0.2013 -1.1003 -1.2776
10542TIP3    H253042   6.245   3.591   3.864 -0.4853 -0.0554 -0.1993
10543TIP3   OH253043   4.532   2.277   4.837 -0.3980 -0.1099 -0.1659
10543TIP3    H153044   4.447   2.232   4.836 -1.1893  1.3355 -0.2535
10543TIP3    H253045   4.538   2.319   4.752  1.1098 -1.3887 -0.7422
10544TIP3   OH253046   6.804   2.786   3.477  0.7857  0.9821  0.6823
10544TIP3    H153047   6.896   2.798   3.498  0.5653  2.6003  0.8311
10544TIP3    H253048   6.794   2.692   3.464  2.2713  0.6909  1.5121
10545TIP3   OH253049   2.280   3.907  11.528  0.1871 -0.0459 -0.1355
10545TIP3    H153050   2.205   3.957  11.560  0.0897 -0.2104 -0.1094
10545TIP3    H253051   2.354   3.967  11.538  0.3286 -0.4156  1.3061
10546TIP3   OH253052   1.982   1.007   0.367  0.1511  1.0087 -0.0016
10546TIP3    H153053   1.921   0.933   0.364  0.7737  0.4145  1.1439
10546TIP3    H253054   1.926   1.082   0.386 -0.2741  0.5045  0.8156
10547TIP3   OH253055   2.947   0.495  13.348  0.1762  0.4177 -0.2729
10547TIP3    H153056   2.963   0.401  13.337 -0.1697  0.1277  1.4360
10547TIP3    H253057   2.898   0.502  13.430  0.4429  2.1198 -0.2173
10548TIP3   OH253058   2.686   4.182   2.028  0.9978  0.1556  0.2571
10548TIP3    H153059   2.610   4.234   2.002  1.6711  1.6890  1.1703
10548TIP3    H253060   2.652   4.121   2.093  0.5880  1.0778  0.9379
10549TIP3   OH253061   5.488   3.261   1.676 -0.0114  0.5385  0.0338
10549TIP3    H153062   5.454   3.319   1.745 -1.2090  0.6586 -0.6118
10549TIP3    H253063   5.491   3.317   1.598 -0.5195 -0.0667 -0.4371
10550TIP3   OH253064   5.214   0.180   3.234 -0.1366  0.1316  0.2003
10550TIP3    H153065   5.266   0.237   3.291 -1.1393  0.8276  0.4310
10550TIP3    H253066   5.162   0.128   3.295 -0.7212  0.4052 -0.0627
10551TIP3   OH253067   3.434   6.628  15.545  0.2875  0.7588  0.2894
10551TIP3    H153068   3.456   6.540  15.575 -0.2682  0.8161  0.8910
10551TIP3    H253069   3.345   6.619  15.509  0.9372  0.6786 -1.4179
10552TIP3   OH253070   2.815   3.530  15.382 -0.0337  0.0039  0.0416
10552TIP3    H153071   2.814   3.472  15.306  0.1848  1.8837 -1.4491
10552TIP3    H253072   2.842   3.615  15.348 -1.3984  1.2887  1.9541
10553TIP3   OH253073   6.273   5.074   4.363 -0.2074 -0.5777 -0.9244
10553TIP3    H153074   6.340   5.091   4.429 -1.3433  1.3672 -0.1722
10553TIP3    H253075   6.317   5.089   4.279  0.1678  1.4149 -0.4205
10554TIP3   OH253076   5.769   5.880   3.445 -0.0522 -0.3755  0.3105
10554TIP3    H153077   5.807   5.862   3.531  0.4410 -0.1140  0.1484
10554TIP3    H253078   5.821   5.952   3.410  0.0868 -0.8243 -0.4245
10555TIP3   OH253079   6.685   0.188   3.771 -0.0390  0.4003  0.1192
10555TIP3    H153080   6.732   0.219   3.848  0.1064  1.9482 -0.5428
10555TIP3    H253081   6.649   0.103   3.797 -1.1225  1.4434  2.3743
10556TIP3   OH253082   2.925   2.544   0.087  0.4616 -0.7795  0.1587
10556TIP3    H153083   2.874   2.607   0.037 -0.4452 -1.0340  0.7462
10556TIP3    H253084   2.932   2.468   0.030  1.2102 -0.3267 -0.3877
10557TIP3   OH253085   0.039   3.298   3.908  0.0308  0.6225 -0.5981
10557TIP3    H153086   0.021   3.285   4.001 -0.7038 -1.9661 -1.0321
10557TIP3    H253087  -0.044   3.329   3.872 -0.4335 -0.7814 -0.7779
10558TIP3   OH253088   2.826   5.023   0.907 -1.2040 -0.0401 -0.4051
10558TIP3    H153089   2.874   5.104   0.886 -0.2782 -0.6874 -0.8466
10558TIP3    H253090   2.852   4.962   0.838 -2.0926 -0.6434 -0.2114
10559TIP3   OH253091   3.597   1.782   1.777 -0.2473 -0.1720  0.6682
10559TIP3    H153092   3.690   1.786   1.798  0.6434  0.7249 -2.7490
10559TIP3    H253093   3.590   1.829   1.694 -3.9595  0.7013  1.3100
10560TIP3   OH253094   0.400   6.103   1.497 -0.0172  0.4782  0.1946
10560TIP3    H153095   0.308   6.129   1.496  0.0558  0.9194 -2.4870
10560TIP3    H253096   0.416   6.069   1.409  1.9654 -1.2125  1.1395
10561TIP3   OH253097   4.991   3.386  15.556 -0.4935 -0.4748 -0.0274
10561TIP3    H153098   5.038   3.394  15.473  2.1072  1.6802  1.4880
10561TIP3    H253099   4.930   3.313  15.542  1.4198 -1.7044 -3.0553
10562TIP3   OH253100   0.721   2.885   3.593  0.0169  0.4001 -0.4544
10562TIP3    H153101   0.735   2.957   3.655 -0.1982 -0.8277  1.0567
10562TIP3    H253102   0.809   2.864   3.561  0.2230  0.5247  0.0237
10563TIP3   OH253103   3.924   2.718   1.532 -0.5718 -0.6190  0.4324
10563TIP3    H153104   3.979   2.708   1.455 -0.5793  1.7233  0.0423
10563TIP3    H253105   3.947   2.644   1.588  2.7760  0.0487  0.1456
10564TIP3   OH253106   5.415   5.536   1.599  0.3222 -0.3477  0.3414
10564TIP3    H153107   5.432   5.591   1.676  1.9702 -0.8421  0.3715
10564TIP3    H253108   5.451   5.451   1.623 -2.2904 -1.5522  0.3490
10565TIP3   OH253109   5.278   2.125   1.948  0.3909 -0.1339  0.2422
10565TIP3    H153110   5.191   2.089   1.964 -1.2025  2.7842 -1.0033
10565TIP3    H253111   5.323   2.118   2.032 -1.1792 -1.3213  1.0369
10566TIP3   OH253112   1.054   3.118   1.922  0.1043  0.1743 -0.1088
10566TIP3    H153113   1.106   3.074   1.989 -0.3954 -1.1392 -0.5722
10566TIP3    H253114   1.119   3.149   1.859  0.4661  0.2378  0.2818
10567TIP3   OH253115   1.792   2.193   2.975 -0.7188 -0.1628 -0.1153
10567TIP3    H153116   1.850   2.201   2.899  1.4840 -1.7522  1.2757
10567TIP3    H253117   1.738   2.117   2.956  0.0028 -0.7102  0.0132
10568TIP3   OH253118   3.278   5.691  14.787  0.4273 -0.3088  0.4298
10568TIP3    H153119   3.317   5.755  14.846 -1.4782  1.8906 -0.5339
10568TIP3    H253120   3.189   5.678  14.820  0.5677 -2.0774  0.2610
10569TIP3   OH253121   1.895   6.495   0.487 -0.3776 -0.1484  0.5278
10569TIP3    H153122   1.811   6.451   0.474 -1.4980  1.6613  1.1862
10569TIP3    H253123   1.947   6.470   0.411 -1.5741 -1.1719  0.0062
10570TIP3   OH253124   4.015   4.557   0.696  0.3128 -0.5218  0.0413
10570TIP3    H153125   4.016   4.515   0.782  1.5398 -1.0683 -0.2075
10570TIP3    H253126   4.106   4.553   0.667  0.2921  1.4780 -0.4247
10571TIP3   OH253127   2.090   4.681  14.249  0.5279 -0.8614  0.2297
10571TIP3    H153128   2.047   4.765  14.269 -0.2230 -1.3135  0.5545
10571TIP3    H253129   2.116   4.646  14.334  2.4037 -0.1747 -0.0198
10572TIP3   OH253130   4.337   1.233   3.570  0.3676 -0.0759  0.3646
10572TIP3    H153131   4.359   1.141   3.587  1.0720  0.3444  1.9007
10572TIP3    H253132   4.296   1.232   3.484 -0.5165 -1.9622  0.7561
10573TIP3   OH253133   3.365   3.459  12.431 -0.1685  0.3960 -0.6419
10573TIP3    H153134   3.341   3.381  12.381 -0.8352  0.2054 -0.0321
10573TIP3    H253135   3.358   3.531  12.368  0.2820 -0.0037 -1.1596
10574TIP3   OH253136   2.525   2.725  13.993  0.1084 -0.0859  0.8069
10574TIP3    H153137   2.520   2.810  14.036 -1.5326  0.1226  0.2773
10574TIP3    H253138   2.512   2.745  13.900 -2.0008 -1.0498  0.8611
10575TIP3   OH253139   4.489   4.979   1.126 -0.0506  0.3977  0.5710
10575TIP3    H153140   4.488   4.989   1.031  1.0875  2.7857  0.7334
10575TIP3    H253141   4.556   4.912   1.142 -0.6092 -0.3964 -0.3030
10576TIP3   OH253142   6.356   6.181   1.230 -0.4180  1.1500 -0.1867
10576TIP3    H153143   6.422   6.157   1.165 -1.2862  0.4642 -0.8291
10576TIP3    H253144   6.301   6.246   1.186 -1.5729 -0.0039 -0.4873
10577TIP3   OH253145   1.438   2.714   1.946  0.2722  0.2062 -0.0944
10577TIP3    H153146   1.366   2.758   1.902 -0.5510  0.2678  1.2563
10577TIP3    H253147   1.398   2.640   1.991  1.0427  0.2058  0.6231
10578TIP3   OH253148   4.326   6.367  15.262  0.0875 -0.1244 -0.4279
10578TIP3    H153149   4.333   6.353  15.168  2.2262 -3.9781  0.0730
10578TIP3    H253150   4.268   6.296  15.292 -3.3355  2.9462  0.9922
10579TIP3   OH253151   2.821   1.161   0.880  1.0424  0.3028  0.2137
10579TIP3    H153152   2.776   1.246   0.879  2.1326  0.9132 -0.5415
10579TIP3    H253153   2.914   1.184   0.870  1.1821 -1.0591 -2.5596
10580TIP3   OH253154   5.123   6.666   3.952  0.1280  0.0457  0.1555
10580TIP3    H153155   5.103   6.574   3.971  0.5959 -0.2857 -0.8801
10580TIP3    H253156   5.070   6.715   4.015 -2.2188 -0.8589 -0.9743
10581TIP3   OH253157   5.176   5.919   1.018  0.5551  0.0858  0.2322
10581TIP3    H153158   5.193   6.011   1.003 -0.9356  0.3140 -0.2749
10581TIP3    H253159   5.150   5.885   0.933 -0.7268 -0.3471  0.7602
10582TIP3   OH253160   2.136   3.040   2.198 -0.1037 -0.4574 -0.5314
10582TIP3    H153161   2.196   2.973   2.230  0.4230  0.9032  1.4962
10582TIP3    H253162   2.182   3.080   2.124 -0.1607 -1.8723 -1.3616
10583TIP3   OH253163   0.134   5.721  15.298 -0.0660  0.9048 -0.0734
10583TIP3    H153164   0.044   5.738  15.269 -0.6562 -0.2293  1.0166
10583TIP3    H253165   0.187   5.781  15.245 -1.3671  0.9952 -1.3551
10584TIP3   OH253166   5.590   0.145   4.673  0.1186  0.1337  0.2125
10584TIP3    H153167   5.517   0.207   4.677 -0.5999 -0.6237 -0.7020
10584TIP3    H253168   5.560   0.069   4.723  0.6149  0.1377  0.5274
10585TIP3   OH253169   2.392   4.643   4.049  0.6266  0.2141  0.3729
10585TIP3    H153170   2.349   4.583   3.988 -1.8391  0.2899  1.9098
10585TIP3    H253171   2.328   4.713   4.062  1.5024  0.7222  2.2222
10586TIP3   OH253172   3.324   2.661  14.192  0.4005 -0.6411 -0.2372
10586TIP3    H153173   3.286   2.601  14.257  1.7710  0.3771  1.5772
10586TIP3    H253174   3.409   2.686  14.228 -0.3294  2.8590 -0.5768
10587TIP3   OH253175   3.618   6.011   2.881  0.4810 -0.2533 -0.1272
10587TIP3    H153176   3.597   5.965   2.962  1.0264  0.5312  0.4841
10587TIP3    H253177   3.581   6.099   2.893 -1.1265 -0.6981 -1.5505
10588TIP3   OH253178   2.751   1.534  14.880  0.0408 -0.1668 -0.3774
10588TIP3    H153179   2.700   1.482  14.817 -1.3442 -0.1570  0.6707
10588TIP3    H253180   2.733   1.624  14.856 -0.5980 -0.1610  0.0744
10589TIP3   OH253181   1.627   3.310   1.037 -0.6049 -0.5810  0.3724
10589TIP3    H153182   1.611   3.219   1.062 -1.9291 -1.0940 -2.0249
10589TIP3    H253183   1.715   3.310   1.001 -1.0770 -1.2601 -0.8507
10590TIP3   OH253184   3.509   5.262   4.732 -0.3018 -0.1358 -0.7320
10590TIP3    H153185   3.431   5.248   4.786 -2.4633  0.5004 -3.4536
10590TIP3    H253186   3.537   5.174   4.707  0.0389 -0.3796  0.4501
10591TIP3   OH253187   5.671   2.274  12.921 -0.0787  0.0467 -0.1241
10591TIP3    H153188   5.604   2.207  12.933 -0.5683  0.4978 -0.2763
10591TIP3    H253189   5.704   2.292  13.009 -0.3176 -0.0153 -0.0223
10592TIP3   OH253190   0.445   4.173   0.210  0.8170 -0.2525 -0.5136
10592TIP3    H153191   0.495   4.183   0.129  0.2289  0.8865 -0.7577
10592TIP3    H253192   0.429   4.262   0.240  0.1619 -0.6336  0.3300
10593TIP3   OH253193   0.188   1.990   0.125  0.4169 -0.0286 -0.5707
10593TIP3    H153194   0.190   1.905   0.081  0.7433  0.4705 -1.5496
10593TIP3    H253195   0.101   1.994   0.165  0.2392 -0.6423 -0.8869
10594TIP3   OH253196   1.444   6.477  16.289  0.2555  0.4301 -0.5289
10594TIP3    H153197   1.474   6.556  16.244  1.5094 -0.8442 -2.0618
10594TIP3    H253198   1.371   6.445  16.236  0.3089  0.1046 -0.4078
10595TIP3   OH253199   0.118   5.525  15.843  0.0439  0.1720  0.1705
10595TIP3    H153200   0.149   5.583  15.773  1.6895  0.3054  0.9696
10595TIP3    H253201   0.035   5.491  15.810  1.8746 -1.7230 -2.9762
10596TIP3   OH253202   1.325   6.138  13.072  0.1105  0.2247 -0.6159
10596TIP3    H153203   1.244   6.089  13.055  0.5819 -1.2567  1.0768
10596TIP3    H253204   1.299   6.208  13.131  0.0378 -0.2037 -0.1351
10597TIP3   OH253205   1.421   1.990   3.855 -0.2666 -0.2390 -0.3865
10597TIP3    H153206   1.358   2.011   3.923  1.1905 -0.5387  1.1117
10597TIP3    H253207   1.380   2.021   3.774 -2.9228 -1.6484  0.2987
10598TIP3   OH253208   5.535   1.022   3.622 -0.1224  0.9092  0.8306
10598TIP3    H153209   5.477   1.098   3.615  0.8864  2.1273  3.6991
10598TIP3    H253210   5.564   1.005   3.533 -0.5456  3.8350  0.0120
10599TIP3   OH253211   0.185   6.778  12.941  0.4126  0.1622 -0.2780
10599TIP3    H153212   0.113   6.815  12.891  0.0622  1.2994  1.0012
10599TIP3    H253213   0.264   6.816  12.901  0.1105  1.5161  0.3585
10600TIP3   OH253214   3.195   0.859   2.325 -0.0291  0.0595  0.3491
10600TIP3    H153215   3.141   0.872   2.403  0.0287  2.2902  0.1013
10600TIP3    H253216   3.263   0.926   2.331  0.6217 -0.4143 -1.0862
10601TIP3   OH253217   4.342   1.394  10.947 -0.2619 -0.4478  0.5658
10601TIP3    H153218   4.257   1.395  10.990  0.1210  0.2200  1.3456
10601TIP3    H253219   4.325   1.424  10.858 -0.8088 -0.0472  0.8012
10602TIP3   OH253220   5.531   3.657  12.069  0.2662  0.0747  0.5850
10602TIP3    H153221   5.475   3.734  12.079  0.2275  0.3142 -1.1649
10602TIP3    H253222   5.481   3.585  12.107 -0.1513  0.7112  1.2639
10603TIP3   OH253223   1.062   1.579   2.030 -0.0632  0.3264  0.4072
10603TIP3    H153224   1.096   1.522   1.961  0.9810  0.6592  0.6288
10603TIP3    H253225   1.118   1.561   2.105 -0.1419  1.1683  0.6723
10604TIP3   OH253226   6.189   1.092  11.177  0.6523 -1.2599  0.3900
10604TIP3    H153227   6.126   1.120  11.244  0.6968  1.2840 -0.5213
10604TIP3    H253228   6.149   1.120  11.094  1.5008 -2.5590 -0.4914
10605TIP3   OH253229   2.025   2.609   2.763 -0.1279 -0.0577  0.5349
10605TIP3    H153230   1.968   2.677   2.800  0.0902 -0.5056  1.7592
10605TIP3    H253231   2.034   2.545   2.834 -1.2993 -1.9884 -0.9637
10606TIP3   OH253232   6.293   1.552   4.473 -0.1413 -0.1686  0.0780
10606TIP3    H153233   6.383   1.523   4.481 -0.4231 -0.4931  2.8405
10606TIP3    H253234   6.299   1.645   4.452  0.8710  0.1545  1.6944
10607TIP3   OH253235   5.007   1.334  11.528 -0.5416  0.2660 -0.3406
10607TIP3    H153236   4.918   1.344  11.495 -0.3731  0.0371 -0.8693
10607TIP3    H253237   5.061   1.320  11.450  0.2824  2.5667 -0.2694
10608TIP3   OH253238   2.100   0.633   1.048  0.1529 -0.0882 -0.3465
10608TIP3    H153239   2.043   0.688   1.101  1.2001 -3.1088  4.4935
10608TIP3    H253240   2.044   0.562   1.017  0.5131 -1.2855  1.6078
10609TIP3   OH253241   4.367   3.357  13.806 -0.1880 -0.3575 -0.0868
10609TIP3    H153242   4.370   3.339  13.900 -0.2123  0.3090  0.0477
10609TIP3    H253243   4.285   3.405  13.794  0.1155  0.0970 -0.3515
10610TIP3   OH253244   1.515   0.833  14.213 -0.0908  0.3098 -0.0306
10610TIP3    H153245   1.527   0.905  14.275 -0.4410  0.2283  0.1336
10610TIP3    H253246   1.470   0.873  14.138  0.8597  0.5362 -0.4880
10611TIP3   OH253247   0.544   1.825  10.753 -0.4056  0.0428  0.6511
10611TIP3    H153248   0.616   1.882  10.725 -0.4882 -0.3489 -0.4334
10611TIP3    H253249   0.534   1.842  10.846 -0.5401  1.9322  0.3360
10612TIP3   OH253250   1.241   0.204  11.854 -0.1234  0.6345  0.6597
10612TIP3    H153251   1.279   0.263  11.789  0.9265  1.4493  1.9454
10612TIP3    H253252   1.219   0.126  11.805 -0.0588  1.4923 -0.8111
10613TIP3   OH253253   6.194   2.444   3.580  0.6768  0.0012 -0.0330
10613TIP3    H153254   6.163   2.406   3.662  1.6728 -0.4112  0.1614
10613TIP3    H253255   6.283   2.473   3.598  0.5297  0.9013 -0.6662
10614TIP3   OH253256   2.503   0.121   2.727 -0.1421 -0.1828 -0.1501
10614TIP3    H153257   2.582   0.109   2.674 -0.2119 -1.0690 -0.0803
10614TIP3    H253258   2.517   0.064   2.803 -1.0637 -0.7573 -0.3934
10615TIP3   OH253259   6.793   5.431  14.576 -0.5431 -0.7392  0.5931
10615TIP3    H153260   6.819   5.351  14.532  3.0246 -0.1837  1.3849
10615TIP3    H253261   6.770   5.491  14.506  2.8446 -0.5677 -0.5347
10616TIP3   OH253262   1.295   3.889   1.625  0.1749 -0.2480  0.0693
10616TIP3    H153263   1.259   3.820   1.569 -0.5301 -0.1028  0.3223
10616TIP3    H253264   1.230   3.960   1.619  1.7876  1.1792 -1.6806
10617TIP3   OH253265   2.689   0.641   0.242 -0.5092 -0.2171  0.3109
10617TIP3    H153266   2.657   0.726   0.270  0.1541  0.4804 -0.9601
10617TIP3    H253267   2.679   0.641   0.147  0.5116 -1.1304  0.1792
10618TIP3   OH253268   6.003   0.006   4.320  0.0041  0.2114 -0.1769
10618TIP3    H153269   6.069   0.052   4.268 -0.2349  0.4364 -0.2799
10618TIP3    H253270   6.052  -0.062   4.366  0.6208  1.4645  1.1017
10619TIP3   OH253271   2.592   2.813  13.519  0.2831 -0.3683  0.3230
10619TIP3    H153272   2.677   2.786  13.485 -0.4002 -0.3051 -1.6008
10619TIP3    H253273   2.572   2.751  13.588  1.6003 -0.7793  0.3544
10620TIP3   OH253274   2.004   2.290  13.692  0.3435 -0.8757  0.7295
10620TIP3    H153275   1.936   2.226  13.673 -0.9421  0.7254 -0.4204
10620TIP3    H253276   1.986   2.363  13.632  3.0059 -0.3119  0.4806
10621TIP3   OH253277   0.998   5.654  11.031  0.2288 -0.1785  0.3809
10621TIP3    H153278   1.025   5.598  11.103 -1.1515  0.6776  1.6174
10621TIP3    H253279   1.062   5.725  11.030 -0.3563  0.3770  1.4842
10622TIP3   OH253280   0.251   5.983   3.712  0.4002  0.1853  0.2525
10622TIP3    H153281   0.185   6.049   3.693 -1.1781 -1.5555 -0.6673
10622TIP3    H253282   0.311   6.025   3.773 -0.5055  2.4430 -0.3421
10623TIP3   OH253283   3.486   0.265  12.396 -0.5964  0.1792  0.3368
10623TIP3    H153284   3.425   0.229  12.461 -1.0155  0.4535  0.1064
10623TIP3    H253285   3.536   0.330  12.444 -0.4099 -0.1247  0.5563
10624TIP3   OH253286   1.236   2.070   4.365  0.1355 -0.3286 -0.0578
10624TIP3    H153287   1.323   2.051   4.331  0.0391 -1.1471  0.1121
10624TIP3    H253288   1.196   2.127   4.300  1.2048  1.0234  0.4304
10625TIP3   OH253289   0.211   4.283   6.338 -0.1885  0.0125 -0.7531
10625TIP3    H153290   0.281   4.223   6.310 -0.6395 -0.6808 -0.4319
10625TIP3    H253291   0.247   4.370   6.323 -0.1846 -0.2953 -2.9878
10626TIP3   OH253292   0.958   0.960   2.473  0.5759  0.2934 -0.2847
10626TIP3    H153293   0.880   1.013   2.488 -1.2253 -2.2600  0.0157
10626TIP3    H253294   1.010   0.970   2.553 -0.2329  0.7669  0.1873
10627TIP3   OH253295   6.708   5.469  13.283 -0.3763  0.3026 -0.1815
10627TIP3    H153296   6.742   5.554  13.253  0.5393  0.4502  1.1759
10627TIP3    H253297   6.747   5.405  13.222 -2.5311  0.9310 -2.3746
10628TIP3   OH253298   2.604   6.527   4.257 -0.0494 -0.2296  0.4873
10628TIP3    H153299   2.628   6.601   4.313  0.8154 -0.5612  0.5633
10628TIP3    H253300   2.629   6.553   4.169  0.1278 -0.3789  0.4939
10629TIP3   OH253301   4.293   3.016  11.667  0.0348  0.0956  0.0976
10629TIP3    H153302   4.259   2.976  11.587 -0.9227  0.6171  0.2274
10629TIP3    H253303   4.223   3.004  11.732 -0.0826  1.5075  0.2694
10630TIP3   OH253304   0.757   4.820  12.120 -0.3534 -0.6460  0.0144
10630TIP3    H153305   0.806   4.802  12.200  0.2248 -0.0725 -0.2048
10630TIP3    H253306   0.675   4.773  12.131  0.3751 -1.8842  0.2408
10631TIP3   OH253307   2.171   5.397  15.579  0.8720  0.0594  0.1252
10631TIP3    H153308   2.263   5.411  15.554  0.6823  2.5419  0.5596
10631TIP3    H253309   2.129   5.367  15.498  2.1127 -1.5321  0.0249
10632TIP3   OH253310   2.049   4.116  16.499  0.3395 -0.6031  0.3908
10632TIP3    H153311   2.111   4.126  16.571  1.8194 -4.0675 -0.2002
10632TIP3    H253312   2.102   4.127  16.420 -0.3452 -1.0120 -0.1357
10633TIP3   OH253313   0.382   3.076   0.823 -0.1736  0.1682 -0.3709
10633TIP3    H153314   0.368   3.125   0.904  0.2434  1.6449 -1.1561
10633TIP3    H253315   0.437   3.002   0.848  1.2781  1.4741  0.4217
10634TIP3   OH253316   6.701   0.871   5.038 -0.2352 -0.1759 -0.9421
10634TIP3    H153317   6.789   0.907   5.043 -0.9660  1.8174 -1.2953
10634TIP3    H253318   6.708   0.799   4.976  1.0913  0.1258 -1.1727
10635TIP3   OH253319   4.838   1.030   1.489 -0.0373 -0.4827  0.7677
10635TIP3    H153320   4.761   1.036   1.546  0.9880 -2.1378  2.4685
10635TIP3    H253321   4.818   0.958   1.430  0.3015 -1.1375  1.4320
10636TIP3   OH253322   1.980   3.934  12.015 -0.1065 -0.2671  0.4122
10636TIP3    H153323   1.949   4.001  12.076  0.0615 -1.1157  1.4682
10636TIP3    H253324   1.903   3.912  11.962  0.7069  3.7109 -2.9813
10637TIP3   OH253325   5.068   0.428   5.328 -0.2124 -0.1465  0.0206
10637TIP3    H153326   5.061   0.357   5.392  0.2421  0.2129  0.4766
10637TIP3    H253327   4.989   0.480   5.341 -0.4088 -0.4019 -0.1237
10638TIP3   OH253328   3.732   0.597  14.446 -0.0727  0.0690  0.0876
10638TIP3    H153329   3.803   0.637  14.395  0.8406 -1.0641  0.4173
10638TIP3    H253330   3.777   0.541  14.509 -1.1811  1.1061  1.8818
10639TIP3   OH253331   3.582   1.905   3.002  0.4711  0.4808 -0.9195
10639TIP3    H153332   3.560   1.916   2.909  0.7701  0.3544 -1.0082
10639TIP3    H253333   3.555   1.816   3.022 -1.4225  1.1510 -0.3540
10640TIP3   OH253334   6.445   6.356   2.745  0.3011 -0.1930 -0.2357
10640TIP3    H153335   6.468   6.442   2.710  0.6307 -0.6964 -1.2849
10640TIP3    H253336   6.519   6.331   2.800 -0.2854  0.6672  1.0038
10641TIP3   OH253337   2.428   0.667   4.717  0.0103 -0.3663  0.1106
10641TIP3    H153338   2.442   0.724   4.642  0.5070  0.3291  0.7144
10641TIP3    H253339   2.457   0.581   4.688  1.1094  0.0937 -0.1850
10642TIP3   OH253340   3.552   0.159  14.727 -0.2143 -0.0815  0.4616
10642TIP3    H153341   3.534   0.170  14.820 -0.3557 -2.8427  0.8660
10642TIP3    H253342   3.466   0.137  14.689 -0.6958  3.4996 -0.9099
10643TIP3   OH253343   6.742   4.634  12.463 -0.8053 -0.4711  0.2181
10643TIP3    H153344   6.814   4.652  12.404 -0.4586 -0.8974  0.5029
10643TIP3    H253345   6.692   4.716  12.467 -1.1973 -0.6240 -1.1491
10644TIP3   OH253346   1.201   4.104  12.234  0.3259 -0.3982  0.5562
10644TIP3    H153347   1.228   4.040  12.300 -0.4567 -0.9852  0.3273
10644TIP3    H253348   1.217   4.060  12.151 -0.8365 -0.5731  0.4091
10645TIP3   OH253349   6.351   3.489  16.542 -0.3889 -0.0689  0.0150
10645TIP3    H153350   6.337   3.581  16.564  1.1349  1.4774 -4.4216
10645TIP3    H253351   6.269   3.462  16.501  0.2580  0.4908 -1.7409
10646TIP3   OH253352   3.474   6.548   3.648  0.0788 -0.3319  0.3389
10646TIP3    H153353   3.392   6.594   3.666 -0.8322 -1.3089 -1.1134
10646TIP3    H253354   3.537   6.618   3.630 -1.1947  0.4214 -1.5421
10647TIP3   OH253355   2.259   1.952   1.147  0.2516 -0.1134  0.0695
10647TIP3    H153356   2.273   1.894   1.071 -1.7997 -1.0418  0.3365
10647TIP3    H253357   2.164   1.965   1.149  0.6163  3.1264  0.1795
10648TIP3   OH253358   4.197   1.366  12.183 -0.2239 -0.4084  0.2005
10648TIP3    H153359   4.104   1.345  12.181 -0.0449 -1.3534  1.0432
10648TIP3    H253360   4.232   1.317  12.257  0.8141  0.5291  0.3664
10649TIP3   OH253361   5.029   0.536   3.091  0.3055 -0.4468 -0.3207
10649TIP3    H153362   5.013   0.587   3.011 -1.1714 -0.3468  0.0114
10649TIP3    H253363   4.963   0.467   3.089  0.1827 -0.3814  0.8585
10650TIP3   OH253364   4.680   1.911   2.549 -0.4583 -0.0791 -0.1098
10650TIP3    H153365   4.643   1.827   2.576  1.2256 -1.0540 -0.6876
10650TIP3    H253366   4.626   1.938   2.475 -1.1686 -0.5363  0.2370
10651TIP3   OH253367   1.266   5.370  12.215  0.0234  1.0786  0.5964
10651TIP3    H153368   1.358   5.395  12.222 -0.6931  3.8701  0.9553
10651TIP3    H253369   1.237   5.406  12.131 -0.4696 -0.9321 -0.1523
10652TIP3   OH253370   3.806   4.659  11.116  0.1917 -0.0014  0.6686
10652TIP3    H153371   3.720   4.619  11.126  0.1380  0.0662  0.4802
10652TIP3    H253372   3.795   4.724  11.047 -0.1700  1.6230  2.1843
10653TIP3   OH253373   0.388   5.907   2.968  0.0296 -0.2356  0.2616
10653TIP3    H153374   0.436   5.826   2.948  0.8633  0.7488 -2.1168
10653TIP3    H253375   0.301   5.892   2.933  0.1234 -0.1866  0.0047
10654TIP3   OH253376   3.083   5.671   3.442  0.0711 -0.1686  0.2079
10654TIP3    H153377   3.092   5.701   3.352 -0.0439  1.0514  0.5859
10654TIP3    H253378   3.089   5.575   3.436 -1.3311 -0.2122 -1.2629
10655TIP3   OH253379   6.265   2.432   3.289 -0.4898  0.1819  0.1285
10655TIP3    H153380   6.236   2.452   3.378  0.0104 -3.5722  1.2921
10655TIP3    H253381   6.359   2.417   3.297 -0.2110  0.9477 -1.3166
10656TIP3   OH253382   3.039   5.490  13.205 -0.1159 -0.2659  0.1447
10656TIP3    H153383   3.013   5.412  13.156 -0.9337 -0.8126  1.4163
10656TIP3    H253384   3.052   5.460  13.295 -3.2577  1.4811  1.3577
10657TIP3   OH253385   5.223   2.663   0.741 -0.0009  0.1493  0.3879
10657TIP3    H153386   5.266   2.745   0.765  1.7396 -0.5941 -0.0533
10657TIP3    H253387   5.275   2.595   0.784  0.0117 -0.8659 -1.1685
10658TIP3   OH253388   1.965   2.805   0.017  0.6457 -0.3485  0.2448
10658TIP3    H153389   2.028   2.800  -0.055 -0.4325 -0.4660 -0.7283
10658TIP3    H253390   1.950   2.713   0.041  1.8791 -0.2650  1.4413
10659TIP3   OH253391   3.552   1.022   5.396 -0.3625 -0.4776  0.1882
10659TIP3    H153392   3.632   1.017   5.449  1.0893  0.2770 -1.7788
10659TIP3    H253393   3.545   1.114   5.372 -1.9675 -0.4995  0.4821
10660TIP3   OH253394   1.134   4.138  14.390  0.4322 -0.4518 -0.0308
10660TIP3    H153395   1.180   4.179  14.463  1.1266 -1.7262  0.2829
10660TIP3    H253396   1.052   4.187  14.382  0.6166  0.0945  1.2078
10661TIP3   OH253397   0.496   2.711  12.848  0.6220  0.2343  0.3914
10661TIP3    H153398   0.573   2.654  12.855  0.2291 -0.4752 -0.7896
10661TIP3    H253399   0.526   2.787  12.799  0.7713  0.3252  0.6255
10662TIP3   OH253400   0.350   4.118   5.521 -0.0995 -0.2321  0.1859
10662TIP3    H153401   0.355   4.052   5.452  2.8359 -1.5680  1.5064
10662TIP3    H253402   0.296   4.078   5.588 -0.4595 -0.1972 -0.0801
10663TIP3   OH253403   1.488   6.394   3.465 -0.0345  0.6713  0.0334
10663TIP3    H153404   1.494   6.305   3.500  1.1118  0.9284  0.5270
10663TIP3    H253405   1.475   6.449   3.542  1.8388  1.1788  0.0321
10664TIP3   OH253406   5.651   4.084   4.186 -0.1685  0.0626 -0.1470
10664TIP3    H153407   5.704   4.139   4.128 -0.2190  0.9288  0.6118
10664TIP3    H253408   5.704   4.077   4.266 -1.0858  0.7389  0.5332
10665TIP3   OH253409   3.747   1.191   2.364 -0.0586  0.0435 -0.0009
10665TIP3    H153410   3.735   1.283   2.384 -1.7892 -0.5514  2.1572
10665TIP3    H253411   3.795   1.156   2.440 -1.6473 -1.2469  0.4814
10666TIP3   OH253412   0.727   2.144  12.608 -0.3909 -0.3840  0.1306
10666TIP3    H153413   0.636   2.131  12.581 -0.4483  2.1214 -1.1743
10666TIP3    H253414   0.779   2.101  12.541 -0.5885 -1.3292  0.5733
10667TIP3   OH253415   3.531   0.252  14.206 -0.3414  0.2303  0.1294
10667TIP3    H153416   3.605   0.219  14.155 -0.5598 -0.8269  0.4857
10667TIP3    H253417   3.455   0.205  14.172 -0.9371  1.5639 -0.4772
10668TIP3   OH253418   2.775   3.291   4.325 -0.3136  0.4922  0.1938
10668TIP3    H153419   2.727   3.249   4.254  1.6796 -0.5178 -0.6020
10668TIP3    H253420   2.748   3.383   4.321 -2.3967 -0.0663  0.0090
10669TIP3   OH253421   0.091   6.547  13.232  0.2671 -0.3111 -1.2095
10669TIP3    H153422   0.013   6.522  13.182 -1.4411  2.5500 -0.2226
10669TIP3    H253423   0.089   6.490  13.309 -0.8282 -0.3407 -1.2408
10670TIP3   OH253424   2.374   3.734  10.492  0.4428 -0.0946  0.6065
10670TIP3    H153425   2.280   3.743  10.505 -0.0575 -0.8848 -1.9680
10670TIP3    H253426   2.413   3.783  10.564 -1.9311  0.8259  1.3465
10671TIP3   OH253427   5.103   3.979  15.561 -0.0356  0.4745 -0.1312
10671TIP3    H153428   5.043   3.933  15.620 -1.0505 -1.0785 -2.2352
10671TIP3    H253429   5.067   4.068  15.556 -1.5347 -0.1186 -0.4727
10672TIP3   OH253430   1.803   5.687   2.112  0.3858 -0.3926  0.5812
10672TIP3    H153431   1.801   5.769   2.062 -1.0281 -1.3427 -0.9959
10672TIP3    H253432   1.804   5.618   2.045 -0.2702 -1.6929  1.8700
10673TIP3   OH253433   6.229   6.440  15.379  0.3977  0.3890  0.7645
10673TIP3    H153434   6.304   6.480  15.424  0.5713  0.1675  0.6742
10673TIP3    H253435   6.152   6.479  15.421  0.5576  0.1105  1.3179
10674TIP3   OH253436   2.256   1.357   5.729 -0.1384  0.4557  0.4902
10674TIP3    H153437   2.234   1.336   5.820 -4.0867  0.4618 -0.2609
10674TIP3    H253438   2.285   1.275   5.691 -1.2254 -0.2336  1.1071
10675TIP3   OH253439   0.178   1.333  13.503  0.5275 -0.3453  0.0352
10675TIP3    H153440   0.109   1.296  13.448  0.4281 -2.1299  1.2604
10675TIP3    H253441   0.258   1.291  13.472  0.5869 -0.7048  0.6506
10676TIP3   OH253442   3.677   0.457   0.066 -0.2949  0.2589  0.1621
10676TIP3    H153443   3.673   0.417   0.153 -0.5262  0.4233  0.2284
10676TIP3    H253444   3.713   0.545   0.081  0.4912 -0.0213 -0.0199
10677TIP3   OH253445   3.413   4.508  15.409  0.7961 -0.5482  0.3235
10677TIP3    H153446   3.437   4.498  15.501  0.2523 -0.6014  0.4604
10677TIP3    H253447   3.369   4.426  15.387 -0.1984 -0.0308  0.3626
10678TIP3   OH253448   2.914   1.639  16.978 -0.1583 -0.2985 -0.3180
10678TIP3    H153449   2.857   1.588  17.035 -1.8402  0.2752 -1.4189
10678TIP3    H253450   2.925   1.584  16.900 -1.5934  0.7287 -1.3114
10679TIP3   OH253451   5.645   3.346  15.970  0.6119  0.6397 -0.3375
10679TIP3    H153452   5.654   3.261  16.013  1.0903  0.9490  0.1809
10679TIP3    H253453   5.719   3.397  16.001  2.5715  0.0368 -3.5227
10680TIP3   OH253454   4.702   3.732  13.967 -0.6602 -0.2808  0.3143
10680TIP3    H153455   4.657   3.680  14.033 -0.0854 -0.5784  0.4764
10680TIP3    H253456   4.784   3.759  14.008 -1.5392  1.9833  0.7564
10681TIP3   OH253457   1.074   4.605   5.351 -0.0535 -0.1147 -0.4880
10681TIP3    H153458   1.153   4.552   5.343 -0.5845 -0.9258 -0.4690
10681TIP3    H253459   1.075   4.636   5.442  0.9596  1.0528 -0.8824
10682TIP3   OH253460   4.799   3.632  12.045  0.7073  0.1064 -0.0648
10682TIP3    H153461   4.753   3.688  12.108  0.2001  0.0036 -0.3435
10682TIP3    H253462   4.847   3.570  12.100 -0.4984 -0.5974  0.2251
10683TIP3   OH253463   1.228   3.719   2.119 -0.0909  0.3439  0.1201
10683TIP3    H153464   1.242   3.656   2.048  3.0859 -1.6043  2.2495
10683TIP3    H253465   1.142   3.695   2.155 -1.3075  0.7278 -2.3266
10684TIP3   OH253466   4.079   5.757  12.718 -0.4969 -0.2615 -0.0524
10684TIP3    H153467   4.168   5.771  12.752  0.7987 -1.8205 -2.5092
10684TIP3    H253468   4.050   5.844  12.692 -0.1799  0.4460  1.8090
10685TIP3   OH253469   4.676   2.228  16.882 -0.4154  0.0288  0.2067
10685TIP3    H153470   4.615   2.273  16.940 -0.9516 -0.6254  0.1638
10685TIP3    H253471   4.645   2.249  16.793 -0.9097 -0.7365  0.1905
10686TIP3   OH253472   6.097   4.579  10.886 -0.1597  0.0280  0.4231
10686TIP3    H153473   6.021   4.625  10.923  0.0983  0.4897  0.3805
10686TIP3    H253474   6.115   4.625  10.804  0.3410  0.1008  0.5697
10687TIP3   OH253475   1.902   2.548   0.025 -0.2210 -0.0868 -0.2391
10687TIP3    H153476   1.887   2.501  -0.057  1.1806 -1.5313  0.2687
10687TIP3    H253477   1.822   2.533   0.076 -0.1309 -1.2633 -0.4140
10688TIP3   OH253478   6.054   3.943  14.524 -0.5393 -0.8136 -0.1585
10688TIP3    H153479   6.061   3.850  14.506 -0.1698 -0.8218  0.0099
10688TIP3    H253480   5.981   3.973  14.470 -0.7135 -1.2140 -0.1482
10689TIP3   OH253481   4.716   6.534  13.580  0.0907 -0.3119 -0.2661
10689TIP3    H153482   4.654   6.463  13.564 -0.5847  0.3468 -0.6247
10689TIP3    H253483   4.662   6.611  13.596  0.7157  0.9734 -3.4982
10690TIP3   OH253484   0.031   3.308   1.357 -0.1182 -0.8483  0.1863
10690TIP3    H153485   0.000   3.365   1.428  1.1316  0.0315  0.0617
10690TIP3    H253486  -0.002   3.221   1.380  1.0756 -0.8024  2.4189
10691TIP3   OH253487   2.427   5.982   4.851 -0.2535 -0.2135  0.3647
10691TIP3    H153488   2.493   5.958   4.786 -0.6895  0.2700 -0.2720
10691TIP3    H253489   2.390   5.899   4.880  1.2440 -0.5666  1.4072
10692TIP3   OH253490   0.944   2.846  12.571  0.2262  0.1002 -0.2239
10692TIP3    H153491   0.864   2.797  12.590 -0.4384  1.6839  1.3851
10692TIP3    H253492   0.914   2.920  12.517  0.4835  0.9851  0.8168
10693TIP3   OH253493   5.409   4.583   1.978  0.1474 -0.2184 -0.5921
10693TIP3    H153494   5.448   4.613   1.896  0.6034 -0.9856 -0.6606
10693TIP3    H253495   5.479   4.590   2.042 -0.4487  1.1914 -0.0656
10694TIP3   OH253496   0.549   3.477   3.001  0.0052 -0.4135  0.2937
10694TIP3    H153497   0.597   3.455   2.921  1.5001  0.0310  1.0226
10694TIP3    H253498   0.575   3.410   3.064  0.1666  0.1922  0.8869
10695TIP3   OH253499   0.771   0.066  12.908  0.0477 -0.3105 -1.1385
10695TIP3    H153500   0.696   0.086  12.964 -0.2262 -0.2134 -1.5338
10695TIP3    H253501   0.793  -0.025  12.927  0.6493  0.0309 -0.0765
10696TIP3   OH253502   5.833   0.463   5.134  0.2106 -0.0079 -0.0212
10696TIP3    H153503   5.838   0.486   5.041  0.3457  3.2703  0.6763
10696TIP3    H253504   5.924   0.452   5.161  0.4082  1.9607  0.2735
10697TIP3   OH253505   4.468   5.004   2.262 -0.5257  0.2730  0.3480
10697TIP3    H153506   4.377   5.016   2.238 -0.3916 -1.3078 -1.1566
10697TIP3    H253507   4.514   4.995   2.178  0.4498 -2.4773  1.0781
10698TIP3   OH253508   6.205   0.189   4.202  0.3584  0.3214 -0.4904
10698TIP3    H153509   6.231   0.208   4.112 -1.2008 -0.2581 -1.0918
10698TIP3    H253510   6.288   0.170   4.247  1.0038 -2.0834 -2.4454
10699TIP3   OH253511   6.303   1.896   4.693 -0.1851 -0.4200  0.3732
10699TIP3    H153512   6.270   1.849   4.617 -0.4328  1.5166 -0.7874
10699TIP3    H253513   6.397   1.878   4.692 -0.4795 -2.1848  0.9516
10700TIP3   OH253514   5.327   3.841  11.332 -0.3691 -0.1389 -0.5304
10700TIP3    H153515   5.332   3.918  11.388 -0.1908  1.0894 -2.1636
10700TIP3    H253516   5.327   3.767  11.393 -1.2223  1.1470  1.1218
10701TIP3   OH253517   4.963   1.811   5.066  0.5461 -0.3759 -0.6966
10701TIP3    H153518   5.022   1.797   4.991  0.7973 -1.8703 -0.2560
10701TIP3    H253519   4.929   1.724   5.086 -1.3735  0.3607 -0.5422
10702TIP3   OH253520   4.184   2.182   0.665  0.4631 -0.5035 -0.7529
10702TIP3    H153521   4.144   2.096   0.676  0.1908 -0.1700  1.2346
10702TIP3    H253522   4.156   2.211   0.578 -2.5878 -0.8221  0.0130
10703TIP3   OH253523   3.769   5.499   2.830  0.4958 -0.6300 -0.2742
10703TIP3    H153524   3.856   5.515   2.869  0.8307 -2.0020 -0.4252
10703TIP3    H253525   3.774   5.540   2.744  0.5994  0.2815  0.1544
10704TIP3   OH253526   6.708   2.196   4.646 -0.0879  0.6120 -0.2024
10704TIP3    H153527   6.702   2.175   4.553  0.1416  1.8173 -0.5049
10704TIP3    H253528   6.618   2.195   4.677 -0.0893 -0.7962 -0.1866
10705TIP3   OH253529   6.302   5.248  15.268 -0.2490  0.1522  0.1577
10705TIP3    H153530   6.381   5.201  15.295  0.1496  0.8637  0.2626
10705TIP3    H253531   6.241   5.180  15.240 -0.2331 -0.5272  1.7055
10706TIP3   OH253532   1.068   2.018  13.578  0.3885 -0.6490 -0.0530
10706TIP3    H153533   0.984   1.976  13.556  0.4658 -0.3937 -0.8964
10706TIP3    H253534   1.133   1.950  13.564  0.5625 -0.1624 -1.8849
10707TIP3   OH253535   2.170   3.343   3.634 -0.0174  0.0139  0.5944
10707TIP3    H153536   2.220   3.308   3.708 -0.1478  0.1393  0.7392
10707TIP3    H253537   2.237   3.374   3.573  0.0825  0.1370  0.7674
10708TIP3   OH253538   5.366   4.325  11.831  0.3821  0.2406  0.3120
10708TIP3    H153539   5.299   4.367  11.777  1.2794 -0.1011 -1.1113
10708TIP3    H253540   5.344   4.352  11.921 -1.1940  0.7507 -0.1905
10709TIP3   OH253541   4.501   4.007  16.839 -0.3464 -0.3856  0.4345
10709TIP3    H153542   4.590   4.003  16.802 -0.1007 -0.8818  1.0694
10709TIP3    H253543   4.464   3.921  16.822 -0.6543 -0.2342  0.3241
10710TIP3   OH253544   2.738   5.595   3.894  0.0784 -0.7111 -0.3133
10710TIP3    H153545   2.817   5.614   3.944  0.0844 -0.7509 -0.3081
10710TIP3    H253546   2.718   5.504   3.913 -0.7612 -0.3222  0.8060
10711TIP3   OH253547   4.989   4.824  10.438  0.6364  0.6973  0.2578
10711TIP3    H153548   5.078   4.795  10.417  0.1782 -0.3401 -0.3294
10711TIP3    H253549   4.932   4.760  10.395 -0.4097  1.7994 -0.0537
10712TIP3   OH253550   4.820   4.375  15.598 -0.4466 -0.3804 -0.2866
10712TIP3    H153551   4.834   4.373  15.503  0.7336 -0.2989 -0.1359
10712TIP3    H253552   4.814   4.468  15.618 -0.2312 -0.3803 -0.2234
10713TIP3   OH253553   2.674   2.726   6.112  0.0770 -0.3207 -0.1810
10713TIP3    H153554   2.625   2.798   6.152 -0.9388 -0.6530 -0.7848
10713TIP3    H253555   2.714   2.681   6.186  1.6786  1.5003  0.1415
10714TIP3   OH253556   0.322   5.876  15.139  0.1572 -0.3977 -0.4299
10714TIP3    H153557   0.392   5.905  15.198 -1.6297  0.6079  1.2861
10714TIP3    H253558   0.362   5.806  15.088  3.0674  1.5283 -1.0507
10715TIP3   OH253559   6.590   3.985  16.940  0.1598 -0.5676 -0.3026
10715TIP3    H153560   6.580   4.038  16.861  1.1519 -0.9110 -0.6788
10715TIP3    H253561   6.501   3.964  16.966 -0.2885  1.7478  0.1956
10716TIP3   OH253562   4.146   1.081   4.574 -0.7124  0.2721  0.2100
10716TIP3    H153563   4.199   1.019   4.625  0.3042  0.1696 -0.9010
10716TIP3    H253564   4.080   1.026   4.532  0.5580 -0.2269 -1.2592
10717TIP3   OH253565   3.576   6.344   2.604  0.1702 -0.2229  0.3913
10717TIP3    H153566   3.561   6.356   2.510  0.5571  1.6512  0.5266
10717TIP3    H253567   3.671   6.334   2.612  0.1814  0.0279  0.5996
10718TIP3   OH253568   3.733   2.693   1.815  0.1644  0.5775 -0.0082
10718TIP3    H153569   3.751   2.786   1.833 -0.8825  0.8312 -0.1942
10718TIP3    H253570   3.639   2.690   1.798  0.2906 -0.4389 -0.5760
10719TIP3   OH253571   6.752   4.604   2.809 -0.5469 -0.0056 -0.9264
10719TIP3    H153572   6.688   4.533   2.807 -1.9975  1.1927  0.4270
10719TIP3    H253573   6.810   4.582   2.882 -1.2508  0.3839 -0.2365
10720TIP3   OH253574   6.504   3.350  10.649  0.5376 -0.0455 -0.0460
10720TIP3    H153575   6.530   3.311  10.732 -0.0051  0.0895  0.1897
10720TIP3    H253576   6.436   3.413  10.672 -1.3911 -1.7440 -0.8603
10721TIP3   OH253577   1.445   4.868   0.695  0.2407  0.3773 -0.5430
10721TIP3    H153578   1.540   4.870   0.680  0.0024  0.2525 -2.2462
10721TIP3    H253579   1.411   4.806   0.631 -0.9991  0.3753  0.0802
10722TIP3   OH253580   5.325   3.877   5.980  0.1346  0.3564 -0.0967
10722TIP3    H153581   5.269   3.954   5.965  0.8183  0.8141 -0.3226
10722TIP3    H253582   5.381   3.874   5.903 -1.2973 -1.6309 -1.1493
10723TIP3   OH253583   6.148   1.875  12.716  0.5592  0.1434 -0.2521
10723TIP3    H153584   6.100   1.832  12.645  0.5940 -0.0383 -0.1664
10723TIP3    H253585   6.207   1.936  12.671  0.4309  0.1809 -0.3695
10724TIP3   OH253586   4.867   4.477  12.037  0.3412 -0.3095 -1.0561
10724TIP3    H153587   4.890   4.391  12.072 -1.4136 -0.1522  0.6944
10724TIP3    H253588   4.788   4.461  11.986 -1.2880  0.4922  1.0691
10725TIP3   OH253589   4.067   2.004   5.085 -0.1535  0.5346  0.1786
10725TIP3    H153590   4.120   2.046   5.017  1.6608 -2.1480 -0.2029
10725TIP3    H253591   4.129   1.957   5.140 -1.8890 -0.3291  1.5241
10726TIP3   OH253592   2.436   3.726  10.756 -0.3765  0.6814  0.2848
10726TIP3    H153593   2.438   3.698  10.847  0.0268  1.1183  0.4172
10726TIP3    H253594   2.519   3.771  10.743  0.3320 -0.8692 -0.7970
10727TIP3   OH253595   4.319   1.872  17.086 -0.1817  0.4797 -0.1348
10727TIP3    H153596   4.388   1.893  17.024  0.3702  1.6260  0.8302
10727TIP3    H253597   4.361   1.818  17.152 -0.2968  0.8391  0.2381
10728TIP3   OH253598   0.562   3.940  17.095  0.4250 -0.0125 -0.0902
10728TIP3    H153599   0.535   4.032  17.091  1.1204  0.2435  0.7860
10728TIP3    H253600   0.635   3.939  17.157  0.1757 -1.2267  0.2104
10729TIP3   OH253601   2.634   5.042   2.361  0.3074  0.2730  0.1805
10729TIP3    H153602   2.707   4.995   2.400  0.5694  1.5685  1.3417
10729TIP3    H253603   2.674   5.116   2.316 -0.1164 -0.3728 -1.3129
10730TIP3   OH253604   2.939   3.663   0.073 -0.1126 -0.6664 -0.0557
10730TIP3    H153605   2.894   3.748   0.066 -0.9336 -1.1546 -0.8416
10730TIP3    H253606   3.015   3.671   0.014 -0.7105 -0.7927 -0.8608
10731TIP3   OH253607   4.156   4.373  15.889 -0.3057 -0.1205 -0.6224
10731TIP3    H153608   4.247   4.367  15.861 -1.1503  1.0377 -3.9942
10731TIP3    H253609   4.114   4.295  15.852 -1.0596  0.3549 -0.7913
10732TIP3   OH253610   4.054   1.057  14.030  0.3935  0.0059 -0.1009
10732TIP3    H153611   4.010   1.096  13.955  0.0377 -0.6281 -0.2302
10732TIP3    H253612   4.001   0.980  14.052  1.0255 -0.3559  0.2005
10733TIP3   OH253613   1.728   6.696   3.868  0.0284 -0.0974  0.1247
10733TIP3    H153614   1.773   6.705   3.784  1.6658  1.3182  1.0807
10733TIP3    H253615   1.674   6.775   3.875 -1.3206 -0.9514 -0.2348
10734TIP3   OH253616   5.781   2.824  15.541  0.2790 -0.3909  0.6874
10734TIP3    H153617   5.773   2.917  15.517 -0.0271 -0.4223  0.6668
10734TIP3    H253618   5.814   2.782  15.462  0.9746 -0.2061  0.8756
10735TIP3   OH253619   4.813   5.106   3.667  0.0899 -0.1184 -0.5854
10735TIP3    H153620   4.720   5.088   3.680  0.2494 -0.3677  0.3106
10735TIP3    H253621   4.847   5.026   3.628  0.3564 -0.9777  1.2760
10736TIP3   OH253622   1.230   5.477  10.445  0.5331  0.8177  0.6812
10736TIP3    H153623   1.145   5.497  10.407  0.1218  2.2299  2.2360
10736TIP3    H253624   1.234   5.381  10.446 -2.2130  0.5944  2.9354
10737TIP3   OH253625   2.687   3.607  15.633  0.4600  0.0065 -0.5524
10737TIP3    H153626   2.670   3.525  15.586 -0.6929  0.9996 -1.9981
10737TIP3    H253627   2.779   3.603  15.657  0.2147 -2.0945  0.2283
10738TIP3   OH253628   6.779   4.509  11.370 -0.3854  0.2942  0.2453
10738TIP3    H153629   6.790   4.438  11.306  0.9726 -0.1263  0.9155
10738TIP3    H253630   6.866   4.522  11.407 -1.1927  0.2626  2.2971
10739TIP3   OH253631   6.654   5.087   0.800 -0.6127  0.3155 -0.1478
10739TIP3    H153632   6.690   5.100   0.887 -1.2284  0.7856  0.0432
10739TIP3    H253633   6.718   5.032   0.755  0.6937  1.7108 -0.0583
10740TIP3   OH253634   3.838   5.016  11.171 -0.1840  0.3560 -0.0847
10740TIP3    H153635   3.872   5.093  11.218 -2.6766  1.5327 -0.0404
10740TIP3    H253636   3.898   5.005  11.097 -0.2248  2.9609 -0.6166
10741TIP3   OH253637   0.914   4.136  12.174 -0.9929 -0.0774  0.2922
10741TIP3    H153638   0.995   4.096  12.204 -0.8746 -0.5530 -0.6307
10741TIP3    H253639   0.941   4.203  12.112 -1.2949 -0.2528 -0.0383
10742TIP3   OH253640   4.208   2.083  14.802  0.0074  0.1851  0.2521
10742TIP3    H153641   4.198   2.168  14.759  0.7310  0.2034  0.1090
10742TIP3    H253642   4.195   2.103  14.895 -0.8611  0.2662  0.1190
10743TIP3   OH253643   1.812   4.800  15.237  0.1853 -0.7943 -0.0071
10743TIP3    H153644   1.764   4.855  15.300 -0.2377 -1.2096  0.0411
10743TIP3    H253645   1.786   4.711  15.260 -0.4669 -0.9153 -1.1787
10744TIP3   OH253646   1.377   2.536   1.035  0.3701 -0.0647 -0.5230
10744TIP3    H153647   1.288   2.541   1.000  0.2752 -1.2645 -0.5030
10744TIP3    H253648   1.391   2.620   1.078 -1.1874 -0.2951  0.5100
10745TIP3   OH253649   6.175   2.291   3.045 -0.0408 -0.3045 -0.2549
10745TIP3    H153650   6.148   2.289   3.137  0.7840  0.6297  0.0186
10745TIP3    H253651   6.270   2.297   3.048  0.0236 -0.7256 -1.1825
10746TIP3   OH253652   2.337   1.881  11.405  0.2541 -0.3632  0.2561
10746TIP3    H153653   2.405   1.948  11.405 -0.0335 -0.0068 -1.8992
10746TIP3    H253654   2.376   1.807  11.453  0.8284  1.0393  2.0670
10747TIP3   OH253655   0.255   3.538   4.419  0.1900  0.4228  0.2229
10747TIP3    H153656   0.269   3.603   4.351 -0.0111  0.0196 -0.2154
10747TIP3    H253657   0.194   3.579   4.480 -1.0590  0.1466 -0.7913
10748TIP3   OH253658   3.965   3.924   1.094 -0.1626  0.5324 -0.3601
10748TIP3    H153659   3.927   3.913   1.181 -0.5459  1.0615 -0.4570
10748TIP3    H253660   3.893   3.907   1.034  0.1405  0.0184 -0.5787
10749TIP3   OH253661   2.957   2.360   1.961  0.4546  0.6111 -0.4629
10749TIP3    H153662   2.896   2.292   1.989  0.2808  1.0563  0.2943
10749TIP3    H253663   2.900   2.430   1.927  0.6370  0.3208 -1.3728
10750TIP3   OH253664   0.265   2.259   0.435  0.2192 -0.5915  0.2192
10750TIP3    H153665   0.239   2.168   0.450  0.1935 -0.9238 -1.6211
10750TIP3    H253666   0.209   2.309   0.494 -0.2920 -1.7116  0.7253
10751TIP3   OH253667   0.406   2.861  11.185  0.4698  0.0227  0.1426
10751TIP3    H153668   0.447   2.830  11.104  0.8455 -0.5784  0.5488
10751TIP3    H253669   0.397   2.955  11.173  0.0865 -0.1210 -0.7878
10752TIP3   OH253670   5.483   1.402  10.952 -0.3489 -0.3093  0.3187
10752TIP3    H153671   5.525   1.320  10.978  1.1900  1.1056  2.7687
10752TIP3    H253672   5.472   1.395  10.858  0.6125 -2.9019  0.3093
10753TIP3   OH253673   4.747   3.427  16.963 -0.0388  0.5200  0.3288
10753TIP3    H153674   4.671   3.374  16.987 -0.1019 -0.3758 -1.6475
10753TIP3    H253675   4.798   3.371  16.905 -0.1684  2.6115 -1.9680
10754TIP3   OH253676   2.507   1.771   6.131 -0.3924  0.5527 -1.3304
10754TIP3    H153677   2.418   1.745   6.156  0.0578 -2.6954 -2.6334
10754TIP3    H253678   2.506   1.771   6.035  1.2388 -0.6206 -1.3815
10755TIP3   OH253679   0.083   3.606   2.493  0.1405 -0.1720  0.5822
10755TIP3    H153680   0.162   3.585   2.543 -0.5718 -0.1788  1.7489
10755TIP3    H253681   0.106   3.687   2.447  1.0531 -0.5384  0.3729
10756TIP3   OH253682   3.392   2.271  12.521  0.1686  0.3569  0.0733
10756TIP3    H153683   3.342   2.216  12.582  0.6115  0.5820  0.6411
10756TIP3    H253684   3.458   2.314  12.575  0.4675  0.6834 -0.5392
10757TIP3   OH253685   5.605   6.782   3.210  0.0062 -0.8129  0.2213
10757TIP3    H153686   5.644   6.717   3.269  0.8737  1.0105  1.7628
10757TIP3    H253687   5.564   6.846   3.269  0.1434  0.6139 -1.1759
10758TIP3   OH253688   1.794   0.470   4.076  0.3197  0.1066 -0.0807
10758TIP3    H153689   1.759   0.550   4.035 -0.7597 -1.2389 -1.9375
10758TIP3    H253690   1.751   0.466   4.161 -0.6784  0.7862 -0.5339
10759TIP3   OH253691   2.940   2.718   4.376 -0.2491 -0.2938  0.4386
10759TIP3    H153692   2.926   2.664   4.454  1.7978 -1.5877 -0.0059
10759TIP3    H253693   2.855   2.761   4.361 -1.9341 -3.1220  1.0549
10760TIP3   OH253694   5.668   0.911  15.208  0.1027 -0.4033 -0.0454
10760TIP3    H153695   5.679   0.838  15.148  0.3663  0.6700 -1.3430
10760TIP3    H253696   5.696   0.876  15.293  0.1283 -1.8219 -0.6118
10761TIP3   OH253697   1.975   6.262   1.202  0.3929  0.0670 -0.5520
10761TIP3    H153698   1.973   6.355   1.179  1.0141 -0.0195 -0.9690
10761TIP3    H253699   1.990   6.216   1.119 -0.1599 -0.4287 -0.3893
10762TIP3   OH253700   0.634   2.620  15.555  0.2219  0.2854  0.1180
10762TIP3    H153701   0.663   2.661  15.474  0.3837 -0.1003 -0.0184
10762TIP3    H253702   0.545   2.589  15.537  0.6995 -0.8839 -0.3055
10763TIP3   OH253703   3.935   5.935   1.334  0.2705 -1.2324  0.0104
10763TIP3    H153704   3.915   6.018   1.291  1.8307  0.1487  1.7298
10763TIP3    H253705   3.853   5.885   1.331 -1.9969  1.9415  2.2566
10764TIP3   OH253706   1.335   0.116  14.134 -0.0689 -0.0137  0.4027
10764TIP3    H153707   1.415   0.105  14.184  0.3714 -1.4492 -0.5546
10764TIP3    H253708   1.352   0.190  14.076  0.0080  0.6180  1.2218
10765TIP3   OH253709   5.482   2.296   4.450 -0.2509 -0.1125  0.0168
10765TIP3    H153710   5.573   2.312   4.428  0.1354  0.6718  1.9930
10765TIP3    H253711   5.432   2.350   4.388  0.7535  1.7800  0.7679
10766TIP3   OH253712   4.128   6.816  13.463  0.0287 -0.1773 -0.1492
10766TIP3    H153713   4.094   6.832  13.375  0.1898  1.4367  0.0531
10766TIP3    H253714   4.066   6.755  13.502 -1.6437  1.3128 -0.3991
10767TIP3   OH253715   2.074   2.646   4.478 -0.4861  0.5600  0.4867
10767TIP3    H153716   2.147   2.707   4.471  2.8987 -3.2153 -0.7903
10767TIP3    H253717   2.026   2.657   4.395  1.4781 -0.0603 -0.7925
10768TIP3   OH253718   6.664   3.886  13.643 -0.0507  0.4434  0.0006
10768TIP3    H153719   6.655   3.823  13.713 -0.1707 -0.1995 -0.5854
10768TIP3    H253720   6.754   3.920  13.652 -0.5849  1.5885  1.4518
10769TIP3   OH253721   3.810   2.875   5.035 -0.0922  0.0216  0.2602
10769TIP3    H153722   3.756   2.909   5.106 -0.0148 -0.4506  0.5425
10769TIP3    H253723   3.823   2.951   4.977 -0.6073  0.2720  0.4636
10770TIP3   OH253724   3.007   1.950  13.400  0.1383 -0.5995  0.4777
10770TIP3    H153725   3.059   2.024  13.431 -0.7308 -0.8029  2.5699
10770TIP3    H253726   2.937   1.990  13.348 -0.2513  0.0553  1.4816
10771TIP3   OH253727   4.906   2.919  13.471 -0.4146 -0.0234  0.4464
10771TIP3    H153728   4.968   2.943  13.540 -0.9917 -0.8704  1.2776
10771TIP3    H253729   4.840   2.866  13.515 -0.7718 -0.6313 -0.7764
10772TIP3   OH253730   2.767   4.610   0.826 -0.6474  0.5151  0.4865
10772TIP3    H153731   2.737   4.645   0.742 -0.0461  0.5302  0.2657
10772TIP3    H253732   2.738   4.519   0.826 -2.0418  0.9352  0.9729
10773TIP3   OH253733   0.100   6.726   2.520 -0.3443  0.2207  1.0657
10773TIP3    H153734   0.045   6.773   2.457 -0.3623 -0.8877  0.2258
10773TIP3    H253735   0.136   6.795   2.576 -0.2765  1.2486 -0.1876
10774TIP3   OH253736   1.373   4.753   5.468  0.0028 -0.4269 -0.2462
10774TIP3    H153737   1.420   4.741   5.385  1.9902 -1.0182  0.8790
10774TIP3    H253738   1.358   4.847   5.473  0.9538 -0.2251 -0.7523
10775TIP3   OH253739   6.242   1.282   3.301 -0.0626 -0.2255 -0.3901
10775TIP3    H153740   6.246   1.303   3.207 -0.2218  0.9510 -0.1608
10775TIP3    H253741   6.149   1.266   3.317 -0.1699  0.4585 -0.2765
10776TIP3   OH253742   3.561   4.610  14.945 -0.4480  0.4364  0.2632
10776TIP3    H153743   3.502   4.557  14.891  2.1452 -1.9980 -0.3962
10776TIP3    H253744   3.527   4.600  15.034 -0.0047 -2.6180  0.2038
10777TIP3   OH253745   3.630   5.553   2.312  0.1232 -0.1849  0.3013
10777TIP3    H153746   3.713   5.593   2.285 -0.5232  0.1237 -1.3337
10777TIP3    H253747   3.587   5.619   2.366  0.4937  0.0284  0.3372
10778TIP3   OH253748   4.587   2.811   4.641 -0.5642 -0.0455 -0.3151
10778TIP3    H153749   4.655   2.796   4.576 -0.1367  0.9297 -0.1156
10778TIP3    H253750   4.538   2.887   4.607 -1.1347 -0.3262 -0.1296
10779TIP3   OH253751   3.549   2.372  14.291 -0.5370  0.6259 -0.0654
10779TIP3    H153752   3.461   2.357  14.257 -0.3546 -2.3556  0.4958
10779TIP3    H253753   3.585   2.440  14.234 -2.8862  1.3596 -0.8049
10780TIP3   OH253754   5.967   3.557  16.302  0.2726  0.1863  0.1273
10780TIP3    H153755   5.899   3.545  16.368  2.8300  0.5402  3.0693
10780TIP3    H253756   6.034   3.493  16.325  1.3112  0.3607 -2.1582
10781TIP3   OH253757   4.289   1.572   2.649 -0.3477  0.2106  0.6140
10781TIP3    H153758   4.246   1.603   2.569 -0.2323 -0.5425  0.2565
10781TIP3    H253759   4.239   1.495   2.675  0.0118  0.0772  0.9196
10782TIP3   OH253760   1.185   5.513  16.584  0.6881 -0.0450  0.6339
10782TIP3    H153761   1.204   5.430  16.629 -0.8221  0.0851  1.5530
10782TIP3    H253762   1.120   5.490  16.518  2.2160 -0.0525 -0.9451
10783TIP3   OH253763   3.022   0.861   1.886  0.1841 -0.2816 -0.0846
10783TIP3    H153764   3.098   0.856   1.943  0.9262 -1.3997 -1.1305
10783TIP3    H253765   2.957   0.803   1.927 -0.3964  1.1737  1.1601
10784TIP3   OH253766   2.084   1.837   4.277  0.0742 -0.2673  0.2426
10784TIP3    H153767   1.996   1.847   4.241 -0.0093 -2.3147 -0.2627
10784TIP3    H253768   2.086   1.748   4.312  1.5966  0.1300  1.2894
10785TIP3   OH253769   5.558   0.586  16.777 -0.1089 -0.1557 -0.2720
10785TIP3    H153770   5.490   0.540  16.826  0.2508 -0.6265 -0.2060
10785TIP3    H253771   5.514   0.663  16.741 -0.9615 -1.0359 -1.1627
10786TIP3   OH253772   0.112   0.467   3.664 -0.1156  0.4616 -0.0420
10786TIP3    H153773   0.028   0.456   3.619  0.8927 -1.1623 -1.6713
10786TIP3    H253774   0.095   0.536   3.729 -2.1712  1.5757 -1.6141
10787TIP3   OH253775   5.002   2.976  11.550 -0.5202  0.2622 -0.0492
10787TIP3    H153776   4.956   3.023  11.481 -0.1026  0.3958 -0.2432
10787TIP3    H253777   4.955   2.998  11.631 -1.4784 -0.5040 -0.3803
10788TIP3   OH253778   6.286   4.825  10.422  0.1703 -0.3108 -0.4779
10788TIP3    H153779   6.320   4.783  10.342  1.4480 -1.7603  0.7714
10788TIP3    H253780   6.256   4.911  10.392 -1.4465 -1.5993 -2.9320
10789TIP3   OH253781   1.717   1.893   3.090 -0.3448 -0.4151  0.1110
10789TIP3    H153782   1.656   1.840   3.140  0.2701  0.6143  2.0276
10789TIP3    H253783   1.774   1.829   3.046 -1.3809 -1.3370  0.0681
10790TIP3   OH253784   4.449   5.495   2.500  0.0002 -0.1520 -0.3586
10790TIP3    H153785   4.479   5.429   2.563  0.8920  0.2324 -0.3647
10790TIP3    H253786   4.529   5.541   2.473 -0.7103  1.6917  0.4968
10791TIP3   OH253787   0.968   3.523  11.844 -0.1068  0.4785 -0.6586
10791TIP3    H153788   0.898   3.504  11.906 -1.0472 -0.7721 -2.0071
10791TIP3    H253789   1.038   3.461  11.867  0.0118  0.7940 -0.1595
10792TIP3   OH253790   0.386   2.093   2.853 -0.0617  0.1602 -0.5668
10792TIP3    H153791   0.329   2.017   2.844 -0.7744  0.6153 -0.0227
10792TIP3    H253792   0.474   2.057   2.856 -0.3144 -0.5679 -1.3024
10793TIP3   OH253793   6.671   4.910  15.664  0.2818 -0.0825 -0.0484
10793TIP3    H153794   6.648   4.896  15.756 -0.6823  2.4561  0.1623
10793TIP3    H253795   6.596   4.873  15.615  0.0597 -0.0218  0.2437
10794TIP3   OH253796   6.449   0.510  15.328  0.3424  0.5595  0.0524
10794TIP3    H153797   6.508   0.585  15.327 -1.7638  2.4385  2.0633
10794TIP3    H253798   6.374   0.537  15.275 -0.8997  0.3938  1.6140
10795TIP3   OH253799   4.469   3.555  11.969 -0.1402 -0.2084  0.3977
10795TIP3    H153800   4.507   3.469  11.986  0.6628 -0.2413 -1.3838
10795TIP3    H253801   4.506   3.611  12.038  2.4837 -0.4705 -0.6696
10796TIP3   OH253802   5.003   2.389  12.595  0.0637  1.1052 -0.0020
10796TIP3    H153803   4.985   2.404  12.503 -1.7329  0.4204  0.1963
10796TIP3    H253804   4.947   2.315  12.619  1.6712  0.2278  1.2634
10797TIP3   OH253805   2.175   0.404  12.250  0.2275  0.0326 -0.2725
10797TIP3    H153806   2.112   0.333  12.258  1.0962 -0.8155 -0.7029
10797TIP3    H253807   2.260   0.360  12.254  0.7863  1.0988 -0.1305
10798TIP3   OH253808   4.032   3.662   3.618 -0.1547  0.2750  0.0176
10798TIP3    H153809   3.962   3.727   3.629 -1.1914 -0.7489 -0.3458
10798TIP3    H253810   4.029   3.640   3.525  0.3281 -0.1358  0.0972
10799TIP3   OH253811   6.514   6.110   2.249 -0.3268  0.4602 -0.1939
10799TIP3    H153812   6.522   6.196   2.291 -3.3090  0.5703  0.3555
10799TIP3    H253813   6.525   6.047   2.321  0.3347  0.4348 -0.3163
10800TIP3   OH253814   5.442   0.439  15.740  0.0814 -0.0630  0.3477
10800TIP3    H153815   5.476   0.517  15.785  0.4477  0.4459 -0.7583
10800TIP3    H253816   5.370   0.409  15.794 -0.1844  1.1693  0.7094
10801TIP3   OH253817   1.334   2.065   0.115  0.1788 -0.7471  0.5996
10801TIP3    H153818   1.425   2.094   0.125  0.0234  0.4094 -0.9488
10801TIP3    H253819   1.338   1.995   0.051 -0.2043  0.8882 -1.3328
10802TIP3   OH253820   5.873   6.300  15.311  0.1650 -0.2400  0.0933
10802TIP3    H153821   5.790   6.273  15.271 -0.2173  0.8350  0.1382
10802TIP3    H253822   5.929   6.222  15.305 -1.5558 -1.7723  2.0612
10803TIP3   OH253823   0.216   3.406   4.193  0.9408  0.1461  0.7968
10803TIP3    H153824   0.148   3.339   4.201  2.1825 -1.1036  1.3742
10803TIP3    H253825   0.217   3.449   4.278  0.4343  0.6210  0.5676
10804TIP3   OH253826   5.563   3.038   1.841 -0.4341 -0.0680  0.6373
10804TIP3    H153827   5.573   3.115   1.785 -0.7730 -1.0758 -0.8518
10804TIP3    H253828   5.628   2.976   1.809  1.0783  0.1708  2.9604
10805TIP3   OH253829   2.823   6.535  14.805  0.0793 -0.1024  0.1490
10805TIP3    H153830   2.740   6.554  14.848  0.1724 -0.6742  0.5895
10805TIP3    H253831   2.890   6.563  14.867  0.2180 -1.6118  0.7257
10806TIP3   OH253832   2.816   1.987   6.291  0.0227  0.1873  0.1483
10806TIP3    H153833   2.881   2.021   6.230 -0.2047  0.6915  0.1838
10806TIP3    H253834   2.781   2.065   6.335  0.5390 -0.1950  1.2764
10807TIP3   OH253835   0.191   2.995  12.093 -0.0436  0.0839  0.1010
10807TIP3    H153836   0.206   3.000  12.187  0.2640  0.2683  0.0438
10807TIP3    H253837   0.126   3.064  12.075 -0.8874 -0.6341  0.3308
10808TIP3   OH253838   1.232   2.463  12.563 -0.1631 -0.3013 -0.5034
10808TIP3    H153839   1.288   2.437  12.490 -0.1668  1.5284 -1.2294
10808TIP3    H253840   1.158   2.507  12.522 -0.6917 -0.1661  0.5619
10809TIP3   OH253841   5.127   0.373   2.080 -0.0515  0.1564 -0.1056
10809TIP3    H153842   5.054   0.335   2.029  0.5862  0.8948 -1.6213
10809TIP3    H253843   5.159   0.445   2.026  0.4291  1.2261  1.5442
10810TIP3   OH253844   4.147   5.266  15.771  0.0140 -0.3098 -0.0966
10810TIP3    H153845   4.163   5.173  15.759  1.4597 -0.1612  0.3777
10810TIP3    H253846   4.121   5.274  15.863  1.1313 -0.1309  0.2193
10811TIP3   OH253847   1.192   6.201  14.495  0.3464 -0.0650  0.2024
10811TIP3    H153848   1.117   6.192  14.554 -0.2283  0.9368 -0.3238
10811TIP3    H253849   1.175   6.138  14.425 -0.1526  0.3161 -0.0342
10812TIP3   OH253850   0.617   0.548   3.030 -0.0108  0.0906  0.1422
10812TIP3    H153851   0.549   0.607   2.998  0.2021  0.7738  0.9111
10812TIP3    H253852   0.699   0.591   3.007  0.1616 -0.3111 -0.0151
10813TIP3   OH253853   1.569   1.657   5.687  0.2632 -0.2365 -0.0855
10813TIP3    H153854   1.651   1.610   5.698 -0.2017 -0.9212  0.5681
10813TIP3    H253855   1.502   1.589   5.688 -0.4433  0.4551  1.1006
10814TIP3   OH253856   5.148   1.433  10.132 -0.1408 -0.2022 -0.1794
10814TIP3    H153857   5.138   1.503  10.196  1.2848 -1.1559  1.1643
10814TIP3    H253858   5.159   1.354  10.184  0.8888 -1.0521 -1.5862
10815TIP3   OH253859   2.145   4.132   0.921  0.4232  0.9316  0.2542
10815TIP3    H153860   2.162   4.118   0.828 -0.5291 -2.2063  0.4457
10815TIP3    H253861   2.206   4.202   0.947  1.4882  1.0993 -2.4390
10816TIP3   OH253862   5.628   0.524   3.045  0.1284  0.5859  0.0248
10816TIP3    H153863   5.625   0.617   3.068 -0.6459  1.0446 -1.7628
10816TIP3    H253864   5.600   0.478   3.125  0.4905  1.8821  0.9140
10817TIP3   OH253865   6.355   2.908   3.799  0.0989  0.3879 -0.1578
10817TIP3    H153866   6.432   2.919   3.743  0.4231 -0.6560  0.0790
10817TIP3    H253867   6.349   2.991   3.846  1.0764  0.4861 -0.1827
10818TIP3   OH253868   1.451   4.222  15.811 -0.5974  0.0197  0.1333
10818TIP3    H153869   1.407   4.280  15.749 -0.6810 -0.5644 -0.3692
10818TIP3    H253870   1.490   4.280  15.876  1.3778  0.8141 -1.6655
10819TIP3   OH253871   6.497   5.437   4.330  0.1431  0.1019 -0.0569
10819TIP3    H153872   6.405   5.444   4.308 -0.0479 -1.5345  0.1045
10819TIP3    H253873   6.543   5.448   4.247 -0.1322  1.6689 -0.0249
10820TIP3   OH253874   4.650   2.703  11.882 -0.0463 -0.0267 -0.2063
10820TIP3    H153875   4.669   2.695  11.789 -0.9312 -2.1928 -0.2434
10820TIP3    H253876   4.597   2.783  11.888  0.9119  0.7367 -1.3754
10821TIP3   OH253877   6.743   5.624  15.006  0.5212 -0.5326  0.2475
10821TIP3    H153878   6.706   5.702  15.047 -1.0806 -1.1379  0.0394
10821TIP3    H253879   6.768   5.653  14.918 -0.8526 -0.4230 -0.1316
10822TIP3   OH253880   4.131   3.328   4.078  0.3065 -0.1439  0.4838
10822TIP3    H153881   4.110   3.377   3.999  0.8288 -0.0073  0.4240
10822TIP3    H253882   4.095   3.240   4.063  0.2926 -0.0805  0.1541
10823TIP3   OH253883   4.670   0.657  11.816  0.5430 -0.6213 -0.7533
10823TIP3    H153884   4.749   0.711  11.810  0.3936 -0.3261 -0.2014
10823TIP3    H253885   4.692   0.576  11.771  0.6789  0.0026 -1.8514
10824TIP3   OH253886   6.812   2.658  12.600  0.1245  0.1454 -0.5539
10824TIP3    H153887   6.889   2.679  12.652  0.1695 -1.1419 -0.0569
10824TIP3    H253888   6.746   2.721  12.627  0.6722  0.5719 -0.1900
10825TIP3   OH253889   3.097   3.214  10.823  0.2528  0.1088  0.3594
10825TIP3    H153890   3.016   3.241  10.781 -0.6819 -4.5005 -1.4256
10825TIP3    H253891   3.166   3.257  10.773 -1.0193  0.1516 -1.4323
10826TIP3   OH253892   1.818   5.405  13.646  0.6355 -0.0350 -0.2160
10826TIP3    H153893   1.824   5.386  13.552  1.3376  1.6381 -0.5632
10826TIP3    H253894   1.888   5.353  13.686  0.2926 -0.8025 -0.6135
10827TIP3   OH253895   5.782   0.282   0.140 -0.0826  0.2060 -0.5711
10827TIP3    H153896   5.789   0.315   0.050 -3.2207 -0.3243 -1.1407
10827TIP3    H253897   5.775   0.361   0.194 -1.4216  0.5857 -1.2329
10828TIP3   OH253898   0.698   2.073  13.304 -0.1754 -0.2270 -0.3836
10828TIP3    H153899   0.688   2.139  13.236 -1.2192 -0.5910 -0.6020
10828TIP3    H253900   0.723   2.122  13.382 -0.8767  0.4310 -0.5574
10829TIP3   OH253901   6.267   0.437  13.865 -0.3816 -0.0937 -0.2811
10829TIP3    H153902   6.201   0.493  13.823  1.9941  1.4576 -2.2405
10829TIP3    H253903   6.277   0.363  13.805  0.5361  0.3467 -0.6908
10830TIP3   OH253904   3.350   0.078   3.560  0.0049  0.2838 -0.5925
10830TIP3    H153905   3.291   0.037   3.496 -0.0157  1.2567 -1.2118
10830TIP3    H253906   3.427   0.021   3.562 -0.9348 -1.0256  0.2447
10831TIP3   OH253907   5.862   4.951  12.789 -0.0578 -0.2074 -0.6009
10831TIP3    H153908   5.896   5.037  12.816 -1.8420  0.0655  1.0128
10831TIP3    H253909   5.797   4.971  12.722  0.3961 -0.4073 -1.1014
10832TIP3   OH253910   2.720   5.434  10.750  0.1963  0.2228  0.0079
10832TIP3    H153911   2.783   5.483  10.697  0.9648 -1.6456 -0.8916
10832TIP3    H253912   2.725   5.475  10.836  1.5024  1.1090 -0.4516
10833TIP3   OH253913   6.401   4.464  14.750  0.3551  0.0774  0.5876
10833TIP3    H153914   6.361   4.495  14.669  0.3541 -0.5210  0.3498
10833TIP3    H253915   6.493   4.450  14.727  0.8110  1.7866  1.2248
10834TIP3   OH253916   6.233   6.642   1.670 -0.2916  0.3289 -0.2721
10834TIP3    H153917   6.205   6.679   1.753  0.5692  2.1589 -0.7381
10834TIP3    H253918   6.256   6.719   1.616 -1.9177 -0.6965 -2.6031
10835TIP3   OH253919   1.339   5.107  15.942 -0.0090 -0.6418  0.1738
10835TIP3    H153920   1.323   5.099  16.036  0.7118  2.0999  0.6276
10835TIP3    H253921   1.433   5.093  15.932 -0.0224 -0.5560 -0.0808
10836TIP3   OH253922   3.433   2.926  15.215  0.9441 -0.4397 -0.7931
10836TIP3    H153923   3.492   2.915  15.289  0.2539 -1.0870 -0.3189
10836TIP3    H253924   3.361   2.866  15.232 -1.6087  2.6349  0.4214
10837TIP3   OH253925   5.372   3.931  13.238  0.3771  0.1898  0.2334
10837TIP3    H153926   5.454   3.912  13.193  0.3145  0.4551  0.0054
10837TIP3    H253927   5.373   4.026  13.251  0.6113  0.0655  1.2074
10838TIP3   OH253928   2.417   2.529   0.052 -0.0365  0.0869 -0.3267
10838TIP3    H153929   2.365   2.607   0.032 -0.1010  0.3871  0.9345
10838TIP3    H253930   2.493   2.535  -0.006 -0.5149  0.5794 -0.9199
10839TIP3   OH253931   1.906   5.709   3.322  0.2597 -0.5147 -0.8113
10839TIP3    H153932   1.997   5.719   3.349 -0.1967  0.9680  0.3314
10839TIP3    H253933   1.860   5.688   3.403 -0.2259 -2.8439 -1.6362
10840TIP3   OH253934   2.082   5.959   5.720 -0.0239  0.2305  0.0599
10840TIP3    H153935   2.112   6.036   5.671 -0.2854  1.1642  1.3084
10840TIP3    H253936   2.000   5.934   5.677  0.6344 -0.0703 -1.0629
10841TIP3   OH253937   6.727   0.969   4.521  0.2978 -0.0071 -0.5701
10841TIP3    H153938   6.721   0.908   4.447  0.1349  0.6594 -1.1140
10841TIP3    H253939   6.811   1.013   4.509 -0.6827  1.6751 -1.6165
10842TIP3   OH253940   5.307   0.792   5.188  0.4213  0.0489 -0.2620
10842TIP3    H153941   5.256   0.727   5.140  0.3611 -0.1485  0.0643
10842TIP3    H253942   5.327   0.750   5.272  0.1680  0.5463  0.0535
10843TIP3   OH253943   2.021   2.019   1.494 -0.1165 -0.2251  0.3285
10843TIP3    H153944   2.028   2.085   1.425 -2.6596 -1.0372 -0.8389
10843TIP3    H253945   1.932   2.030   1.529  0.9708 -0.0822  3.2934
10844TIP3   OH253946   3.463   6.590   4.034  0.2713  0.1622 -0.4018
10844TIP3    H153947   3.480   6.496   4.036 -1.2881 -0.1402  1.1839
10844TIP3    H253948   3.498   6.622   4.117 -1.5660  0.4826  0.2937
10845TIP3   OH253949   3.835   0.131  13.626 -0.1936  0.4054  0.3438
10845TIP3    H153950   3.844   0.222  13.597  1.4381  0.4303  0.8143
10845TIP3    H253951   3.744   0.123  13.652  0.0010  2.3900  1.8756
10846TIP3   OH253952   6.392   6.650  13.758 -0.1406 -0.1004 -0.2352
10846TIP3    H153953   6.300   6.633  13.736 -0.2276  0.2990 -0.1952
10846TIP3    H253954   6.431   6.563  13.768 -0.1501 -0.3046 -1.7537
10847TIP3   OH253955   0.634   2.655  13.703  0.1221  0.1069  0.6253
10847TIP3    H153956   0.714   2.616  13.667  1.5135  2.0306  1.4295
10847TIP3    H253957   0.564   2.621  13.649  1.4692 -1.6849 -0.1053
10848TIP3   OH253958   0.723   4.113   2.318 -0.2582 -0.0655  0.7314
10848TIP3    H153959   0.757   4.161   2.242  2.0347 -2.1472  0.2893
10848TIP3    H253960   0.700   4.181   2.381  1.5890  1.6641 -0.3255
10849TIP3   OH253961   1.636   4.059   5.904  0.0453  0.2873  0.3210
10849TIP3    H153962   1.704   4.040   5.839 -0.5767  0.3042 -0.3458
10849TIP3    H253963   1.663   4.141   5.944  1.7221 -0.9224  1.8243
10850TIP3   OH253964   4.486   3.974  13.346  0.2026  0.0925  0.0992
10850TIP3    H153965   4.581   3.988  13.346  0.1851  0.2180  0.0740
10850TIP3    H253966   4.462   3.970  13.438  0.1095  0.9567  0.1273
10851TIP3   OH253967   5.718   3.408  16.371  0.4257  0.6732 -0.0998
10851TIP3    H153968   5.649   3.367  16.319  0.3621  1.3116 -0.5298
10851TIP3    H253969   5.790   3.346  16.368  1.5678  1.8938 -3.5015
10852TIP3   OH253970   0.778   4.432  11.249 -0.3820  0.7583  0.3489
10852TIP3    H153971   0.775   4.511  11.195 -1.5235 -0.5054 -1.5688
10852TIP3    H253972   0.825   4.368  11.196  1.4401  0.3599  2.2813
10853TIP3   OH253973   6.749   3.820   0.835  0.2510 -0.1757 -0.2960
10853TIP3    H153974   6.822   3.795   0.778 -2.6411 -1.4841 -3.8116
10853TIP3    H253975   6.730   3.911   0.810 -1.0753 -0.7784 -1.6310
10854TIP3   OH253976   3.380   5.594  11.707  0.4410  0.8044  0.2257
10854TIP3    H153977   3.331   5.530  11.655 -0.3741 -0.0085  1.9154
10854TIP3    H253978   3.314   5.652  11.743  1.0768  1.9042 -0.3461
10855TIP3   OH253979   3.909   4.902   3.031  0.4333  0.0334 -0.3869
10855TIP3    H153980   3.848   4.955   2.979  0.8918  0.2007 -0.7611
10855TIP3    H253981   3.996   4.927   2.998  0.6047 -2.0948 -1.7012
10856TIP3   OH253982   5.489   0.804   6.401 -0.2114  0.2811 -0.4658
10856TIP3    H153983   5.584   0.794   6.401 -0.3514 -1.8266  1.2715
10856TIP3    H253984   5.468   0.831   6.312  2.0408  1.4107 -0.7301
10857TIP3   OH253985   1.983   1.821  12.286 -0.6125 -0.0102 -0.4860
10857TIP3    H153986   2.062   1.786  12.243 -0.5083  1.4185 -1.5548
10857TIP3    H253987   1.929   1.744  12.303  1.0042 -1.0474  0.3114
10858TIP3   OH253988   0.031   4.602  14.865 -0.0267  0.0018 -0.2410
10858TIP3    H153989   0.071   4.659  14.799 -0.4494  1.6336  0.8527
10858TIP3    H253990  -0.053   4.642  14.884 -0.2969 -0.9401  0.6501
10859TIP3   OH253991   0.451   0.659  16.534 -0.3090  0.8114  0.2971
10859TIP3    H153992   0.368   0.671  16.581 -1.0682 -0.5730 -0.6397
10859TIP3    H253993   0.505   0.734  16.562 -1.8682  1.7686  0.8875
10860TIP3   OH253994   0.158   5.423   3.191  0.3891  0.2453 -0.3442
10860TIP3    H153995   0.122   5.355   3.134 -3.3875  0.7032  1.1600
10860TIP3    H253996   0.208   5.376   3.257 -0.7076 -0.9486 -0.3237
10861TIP3   OH253997   5.717   0.367   1.748 -0.1742 -0.5315 -0.1749
10861TIP3    H153998   5.758   0.433   1.692  0.2337  0.0952  0.8173
10861TIP3    H253999   5.634   0.406   1.774 -0.9140 -1.3265 -1.2789
10862TIP3   OH254000   0.758   2.976  12.111  0.5980 -0.1564  0.2134
10862TIP3    H154001   0.684   3.011  12.061  1.1113  2.0785  0.9227
10862TIP3    H254002   0.824   3.045  12.110  1.3328 -0.7146  2.4573
10863TIP3   OH254003   5.325   2.297  12.556  0.8846  0.0811  0.1004
10863TIP3    H154004   5.270   2.372  12.535  1.8023  0.8964  0.5183
10863TIP3    H254005   5.295   2.268  12.642  1.8834  1.3162  0.9134
10864TIP3   OH254006   5.043   2.581   5.254 -0.7031 -0.2630 -0.1132
10864TIP3    H154007   4.970   2.641   5.271  1.4555  1.8422  2.8013
10864TIP3    H254008   5.059   2.539   5.338  1.9379  0.0233 -0.3873
10865TIP3   OH254009   2.829   4.633   1.171 -0.5289 -0.6061 -0.0034
10865TIP3    H154010   2.753   4.690   1.163  0.2504  0.3119 -1.2492
10865TIP3    H254011   2.876   4.666   1.248 -1.0836 -0.8170  0.4315
10866TIP3   OH254012   0.093   3.935   1.475 -0.1600  0.5693  0.2434
10866TIP3    H154013   0.004   3.924   1.508 -0.1544  0.5576  0.2543
10866TIP3    H254014   0.099   3.872   1.404  1.2883 -2.6694  3.0080
10867TIP3   OH254015   0.530   2.963  13.455  0.1629  0.2635  0.2513
10867TIP3    H154016   0.477   3.027  13.409 -0.6308  0.2283  1.0981
10867TIP3    H254017   0.552   2.898  13.388 -1.9511 -0.4109  0.1439
10868TIP3   OH254018   4.870   0.854  13.639  0.0016 -0.4002 -0.4071
10868TIP3    H154019   4.932   0.919  13.606 -0.6995  0.6791  0.3393
10868TIP3    H254020   4.786   0.899  13.641 -0.5550 -1.4220 -0.1294
10869TIP3   OH254021   0.536   3.469  11.995  0.5603  0.2073  0.0740
10869TIP3    H154022   0.492   3.521  11.928  0.0247  0.3545  0.5307
10869TIP3    H254023   0.499   3.381  11.985  1.5188 -0.1199 -0.7459
10870TIP3   OH254024   3.286   3.684  13.362 -0.0200  0.1910  0.0740
10870TIP3    H154025   3.348   3.685  13.435  1.0010 -1.6245 -0.7197
10870TIP3    H254026   3.303   3.766  13.315  0.1603  0.7864  1.1389
10871TIP3   OH254027   1.749   5.156  14.020 -0.5179 -0.1319  0.1529
10871TIP3    H154028   1.692   5.136  13.946  0.8980  1.3669 -1.4448
10871TIP3    H254029   1.819   5.091  14.014 -1.1499 -0.9211  1.0938
10872TIP3   OH254030   5.640   6.803  11.655  0.0001  1.0503  0.6240
10872TIP3    H154031   5.708   6.772  11.715 -0.4460  0.7511  0.9829
10872TIP3    H254032   5.662   6.763  11.571 -0.7161 -0.5152  1.1342
10873TIP3   OH254033   2.258   4.786   3.028 -0.3896 -0.3100 -0.3617
10873TIP3    H154034   2.302   4.871   3.026 -0.1561 -0.4119  0.2087
10873TIP3    H254035   2.166   4.808   3.041 -0.4683 -0.1082 -1.2245
10874TIP3   OH254036   3.177   1.579  13.659 -0.1833 -0.3853 -0.1118
10874TIP3    H154037   3.153   1.487  13.672  1.2557 -0.9154 -0.8791
10874TIP3    H254038   3.157   1.596  13.567 -1.6667  0.4937  0.3459
10875TIP3   OH254039   1.182   6.175   5.527 -0.1323 -0.5741  0.8173
10875TIP3    H154040   1.105   6.196   5.473  0.1309  0.8219  0.9588
10875TIP3    H254041   1.214   6.093   5.490 -0.4578 -0.0905 -0.6248
10876TIP3   OH254042   1.056   3.705  13.302 -0.3421 -0.5812 -0.1704
10876TIP3    H154043   1.106   3.785  13.292  0.2598 -0.7804  1.1127
10876TIP3    H254044   1.115   3.636  13.271 -0.0395 -0.7504  0.7671
10877TIP3   OH254045   5.464   1.162   5.097  0.0633 -0.4480  0.1768
10877TIP3    H154046   5.467   1.067   5.088 -2.1480 -0.6589  1.0101
10877TIP3    H254047   5.510   1.179   5.179  0.1269 -0.8363  0.2258
10878TIP3   OH254048   3.561   3.012  11.931 -0.0548 -0.0965 -0.5487
10878TIP3    H154049   3.621   3.086  11.938 -0.1158  0.0069 -1.1246
10878TIP3    H254050   3.570   2.982  11.841  1.0869 -1.7257  0.0509
10879TIP3   OH254051   0.847   6.123   0.976  0.0887 -0.3788  0.0165
10879TIP3    H154052   0.842   6.030   0.955 -0.2568 -0.3075 -0.2244
10879TIP3    H254053   0.941   6.142   0.978  0.1765 -0.8842  0.7669
10880TIP3   OH254054   6.015   3.284  15.363  0.3018 -0.0384 -0.3534
10880TIP3    H154055   6.003   3.377  15.383 -0.5327 -0.0420 -0.8059
10880TIP3    H254056   6.092   3.281  15.306  0.7898  0.2846  0.2675
10881TIP3   OH254057   4.644   2.271  15.995 -0.3942 -0.4372 -0.0346
10881TIP3    H154058   4.709   2.302  15.931 -1.0153 -2.3535 -1.7192
10881TIP3    H254059   4.688   2.199  16.041 -0.3602  0.1614  0.8889
10882TIP3   OH254060   5.443   0.549   2.458  0.0435  0.4574 -0.1503
10882TIP3    H154061   5.393   0.487   2.512 -2.1880  1.7901 -0.5601
10882TIP3    H254062   5.499   0.595   2.520 -1.6143  1.1536  0.8905
10883TIP3   OH254063   0.896   4.289  14.409 -0.3333  0.6897 -0.1230
10883TIP3    H154064   0.886   4.354  14.340 -0.4187 -0.2507 -1.0262
10883TIP3    H254065   0.893   4.339  14.491 -1.6242  1.6740 -0.7455
10884TIP3   OH254066   1.619   3.836   4.748 -0.2518  0.2051 -0.0340
10884TIP3    H154067   1.607   3.928   4.727 -1.2453 -0.1407 -1.0024
10884TIP3    H254068   1.531   3.798   4.746  0.0110 -0.5671  1.3709
10885TIP3   OH254069   3.392   5.499   3.243 -0.3138  0.5000  0.5470
10885TIP3    H154070   3.453   5.509   3.169 -0.1640 -0.1595  0.5698
10885TIP3    H254071   3.305   5.506   3.204 -0.2422 -0.2173  0.2388
10886TIP3   OH254072   6.545   2.674  17.018  0.1339  0.1983  0.6977
10886TIP3    H154073   6.479   2.704  17.079 -0.0360 -1.9045  1.6417
10886TIP3    H254074   6.530   2.579  17.010  2.1492 -0.1192 -0.1238
10887TIP3   OH254075   5.071   2.370   4.604 -0.3409  0.0149 -0.6451
10887TIP3    H154076   5.069   2.274   4.598 -0.3303  0.0394 -1.0199
10887TIP3    H254077   5.139   2.388   4.669 -1.4623 -0.2909  0.6686
10888TIP3   OH254078   1.811   0.607  14.883  0.0661 -0.1110  0.3093
10888TIP3    H154079   1.741   0.648  14.934  0.0938  1.8170 -1.0988
10888TIP3    H254080   1.861   0.681  14.848  0.5595 -1.3724 -1.7995
10889TIP3   OH254081   2.483   0.403   4.125 -0.2805  0.1717 -0.0237
10889TIP3    H154082   2.403   0.368   4.085  0.4357 -1.6139  0.0180
10889TIP3    H254083   2.458   0.423   4.215 -1.1746  1.5746 -0.5398
10890TIP3   OH254084   0.268   4.626   4.176 -0.1965  0.3864  0.0959
10890TIP3    H154085   0.326   4.588   4.242 -1.1452 -1.2677  0.0257
10890TIP3    H254086   0.237   4.552   4.125 -1.0281  1.4266 -0.9767
10891TIP3   OH254087   6.568   2.039  16.967 -0.1363  0.2695 -0.0070
10891TIP3    H154088   6.473   2.036  16.967 -0.1367  0.2766  0.2925
10891TIP3    H254089   6.590   2.130  16.989 -0.0596  0.2949 -0.1809
10892TIP3   OH254090   1.076   4.486  15.658  0.6991  0.0149  0.1246
10892TIP3    H154091   1.078   4.410  15.599  0.3994 -0.9199  1.2864
10892TIP3    H254092   0.985   4.516  15.655  0.8107  0.3332 -0.3094
10893TIP3   OH254093   3.007   0.947  16.354 -0.4390  0.2982 -0.1558
10893TIP3    H154094   2.964   0.991  16.427  1.1180  1.2560  0.2311
10893TIP3    H254095   3.089   0.913  16.392 -0.5832 -1.0405 -0.9725
10894TIP3   OH254096   3.464   6.078  13.168  0.6367 -0.2023 -0.2986
10894TIP3    H154097   3.461   5.983  13.155  3.9773 -0.3067 -1.3443
10894TIP3    H254098   3.476   6.089  13.262  1.6894 -0.9321 -0.3283
10895TIP3   OH254099   3.568   6.309   5.596 -0.2750 -0.2137 -0.5682
10895TIP3    H154100   3.640   6.249   5.575 -0.4511 -0.2621 -1.0503
10895TIP3    H254101   3.519   6.264   5.665  1.1060  0.5641  0.9931
10896TIP3   OH254102   1.214   4.069  11.631 -0.3809  0.0005 -0.0394
10896TIP3    H154103   1.293   4.095  11.583 -0.4588 -0.1269 -0.2381
10896TIP3    H254104   1.188   4.147  11.680 -1.5670  0.8238 -1.8857
10897TIP3   OH254105   4.018   3.528  14.752  0.1474 -0.0903 -0.0096
10897TIP3    H154106   3.949   3.464  14.735  0.8616 -0.5916 -1.2332
10897TIP3    H254107   4.016   3.585  14.675 -0.1431  1.0589  0.8377
10898TIP3   OH254108   3.179   2.888  10.570  0.2520  0.6553 -0.0886
10898TIP3    H154109   3.185   2.793  10.564  0.2248  0.5835  0.9423
10898TIP3    H254110   3.098   2.910  10.524 -0.6922  0.0055  1.2311
10899TIP3   OH254111   1.271   2.065  12.148  0.1159  0.1343  0.5415
10899TIP3    H154112   1.330   2.140  12.155  1.0540 -0.5707  0.3108
10899TIP3    H254113   1.293   2.010  12.224  0.4094 -0.5833 -0.0535
10900TIP3   OH254114   2.031   2.095   5.870 -0.3667 -0.2378  0.2537
10900TIP3    H154115   2.025   2.191   5.863 -0.5446 -0.2699 -0.0264
10900TIP3    H254116   1.978   2.074   5.947  0.4481 -0.0225  0.8943
10901TIP3   OH254117   5.791   4.209  13.978  0.1915 -0.1106 -0.4992
10901TIP3    H154118   5.715   4.162  14.012  0.5782 -1.2783 -1.1814
10901TIP3    H254119   5.807   4.170  13.892  1.1934  0.5335 -0.6224
10902TIP3   OH254120   5.396   3.493  12.768 -0.6614  0.5006 -0.4585
10902TIP3    H154121   5.405   3.506  12.862 -0.1993 -1.6340 -0.1655
10902TIP3    H254122   5.486   3.493  12.735 -0.7188 -0.4641 -0.6324
10903TIP3   OH254123   3.730   4.550   0.755  0.3619 -0.0743  0.0096
10903TIP3    H154124   3.776   4.471   0.727  1.1623 -0.0139  1.0989
10903TIP3    H254125   3.643   4.520   0.782  0.6002 -0.5615  0.2411
10904TIP3   OH254126   2.931   2.129  15.157 -0.3494  0.6604  0.2460
10904TIP3    H154127   3.021   2.105  15.137 -0.3344  1.7777 -1.1503
10904TIP3    H254128   2.887   2.046  15.174  0.2841 -0.1739 -1.8841
10905TIP3   OH254129   1.722   2.689  14.273 -0.2635 -0.6687 -0.1711
10905TIP3    H154130   1.802   2.659  14.229  0.0003 -0.8908  0.4486
10905TIP3    H254131   1.751   2.761  14.329 -0.7707  0.2953 -1.1081
10906TIP3   OH254132   2.874   0.934  15.517  0.1149 -0.0395  0.3950
10906TIP3    H154133   2.911   0.847  15.506  1.0433  0.5869 -1.9878
10906TIP3    H254134   2.786   0.928  15.480  0.4947  0.2331 -0.5654
10907TIP3   OH254135   6.086   3.114  15.571  0.3963 -0.5622 -0.0229
10907TIP3    H154136   6.102   3.149  15.659  0.3612 -2.3387  0.7426
10907TIP3    H254137   6.086   3.191  15.514  0.5365  0.6287  1.5077
10908TIP3   OH254138   0.355   0.079   0.561 -0.1353 -0.0919 -0.1146
10908TIP3    H154139   0.400   0.029   0.492  1.1757 -0.1909  0.7759
10908TIP3    H254140   0.424   0.132   0.600 -1.1770  1.1521  0.0917
10909TIP3   OH254141   2.612   6.506  15.425  0.5572 -0.0931 -0.2187
10909TIP3    H154142   2.569   6.568  15.484  0.2421 -0.6808  0.1758
10909TIP3    H254143   2.698   6.492  15.464  0.2464 -0.6969  0.2621
10910TIP3   OH254144   1.145   0.658  10.801 -0.9440 -0.4743 -0.0681
10910TIP3    H154145   1.108   0.572  10.782  0.4253 -1.1185  0.0392
10910TIP3    H254146   1.234   0.654  10.766 -0.6016  0.6239  0.6179
10911TIP3   OH254147   2.268   5.006  15.021 -0.2781 -0.4114 -0.2365
10911TIP3    H154148   2.184   4.989  15.063 -1.6221  0.8292 -2.2332
10911TIP3    H254149   2.330   5.012  15.093 -1.9035 -1.2978  1.3188
10912TIP3   OH254150   0.181   1.012   0.573 -0.1041 -0.4963  0.0202
10912TIP3    H154151   0.203   1.001   0.481  0.2178  1.2610 -0.1550
10912TIP3    H254152   0.099   0.964   0.584  0.9522 -2.5342 -0.6257
10913TIP3   OH254153   5.622   3.975  16.736  0.0668  0.2353  0.4214
10913TIP3    H154154   5.529   3.954  16.728  0.1000  0.3537 -0.4716
10913TIP3    H254155   5.657   3.962  16.647  0.7551  0.8443  0.5902
10914TIP3   OH254156   1.860   4.125  13.468 -0.4741  0.2028  0.1215
10914TIP3    H154157   1.880   4.096  13.558  0.5059  0.4031 -0.0181
10914TIP3    H254158   1.790   4.066  13.439 -0.5469 -0.1033  0.8914
10915TIP3   OH254159   3.473   5.376   0.214  0.6468  0.0622 -0.2499
10915TIP3    H154160   3.429   5.307   0.264 -0.2574 -0.0054 -1.1163
10915TIP3    H254161   3.407   5.444   0.205  1.7975  1.4806  1.3552
10916TIP3   OH254162   1.170   3.548   1.705  0.3264  0.0160 -0.0385
10916TIP3    H154163   1.134   3.630   1.741 -0.5114 -0.2551 -0.2269
10916TIP3    H254164   1.094   3.490   1.700  0.6184 -0.2653 -1.3460
10917TIP3   OH254165   5.083   3.031  13.635  0.5335 -0.0421 -0.3353
10917TIP3    H154166   5.085   3.088  13.712  0.4343 -1.4063  0.7209
10917TIP3    H254167   5.169   3.043  13.594  1.6639 -1.2577  1.5269
10918TIP3   OH254168   2.453   5.797   3.753  0.1943  0.2901 -0.0210
10918TIP3    H154169   2.440   5.788   3.847  1.2003  0.8469  0.1776
10918TIP3    H254170   2.411   5.719   3.716  1.3225 -0.8420  1.0175
10919TIP3   OH254171   0.058   2.205  13.478 -0.5962  0.2195  0.4768
10919TIP3    H154172  -0.017   2.148  13.492 -1.4690  1.2348  0.0449
10919TIP3    H254173   0.022   2.283  13.435  0.6425  0.8698  0.5627
10920TIP3   OH254174   3.627   2.196   2.366 -0.0520 -0.1933  0.1918
10920TIP3    H154175   3.722   2.191   2.375 -0.0100  0.6413  0.3022
10920TIP3    H254176   3.607   2.135   2.296  0.6816  0.3088 -0.4867
10921TIP3   OH254177   5.132   3.026  12.899  0.0963  0.0297  0.0053
10921TIP3    H154178   5.164   3.112  12.928 -0.2591 -0.1280  0.8898
10921TIP3    H254179   5.119   2.977  12.980 -0.0260 -0.7460 -0.4823
10922TIP3   OH254180   1.829   4.944   1.000  0.2982  0.0302  0.2010
10922TIP3    H154181   1.799   5.032   1.026 -0.3317 -0.0788 -0.1106
10922TIP3    H254182   1.758   4.886   1.026 -0.0748 -0.1604 -1.1262
10923TIP3   OH254183   2.354   4.619   1.122 -0.1881 -0.3431 -0.2394
10923TIP3    H154184   2.293   4.609   1.048 -1.9890  0.5412  1.0455
10923TIP3    H254185   2.437   4.645   1.081 -0.6667 -1.4590 -2.0480
10924TIP3   OH254186   6.280   1.761   2.339  0.0062  0.3249  0.0244
10924TIP3    H154187   6.212   1.800   2.394 -0.6649  0.6225 -0.9746
10924TIP3    H254188   6.253   1.670   2.328 -0.4433  0.5345 -0.6698
10925TIP3   OH254189   2.659   2.695  15.197  0.0812 -0.3097 -0.1520
10925TIP3    H154190   2.597   2.624  15.216  0.6822 -0.6854  0.4371
10925TIP3    H254191   2.617   2.773  15.233  2.1049 -1.2648  5.0480
10926TIP3   OH254192   4.151   3.123  13.818  0.7528  0.0619  0.4197
10926TIP3    H154193   4.241   3.114  13.786  0.4873 -1.1029 -0.0459
10926TIP3    H254194   4.115   3.197  13.768  1.0676 -0.2726 -0.3150
10927TIP3   OH254195   5.686   4.287   0.107  0.4439 -0.3216  0.1359
10927TIP3    H154196   5.772   4.308   0.070  1.2420 -2.3871  0.6806
10927TIP3    H254197   5.690   4.193   0.126 -2.5332 -0.8414 -1.3168
10928TIP3   OH254198   5.592   4.190  12.148  0.2836 -0.3355 -0.1194
10928TIP3    H154199   5.533   4.179  12.222 -0.0749  0.9021 -0.1940
10928TIP3    H254200   5.664   4.243  12.183  0.9868 -1.2073 -0.2206
10929TIP3   OH254201   1.231   3.071  12.972  0.1524  0.4908 -0.1901
10929TIP3    H154202   1.316   3.116  12.968  0.8005 -0.0482  3.5371
10929TIP3    H254203   1.175   3.131  13.023 -0.3976 -0.8698  0.8747
10930TIP3   OH254204   5.100   5.247   3.581 -0.3212  0.1880  0.2534
10930TIP3    H154205   5.104   5.329   3.629 -0.5468 -0.1466  0.8596
10930TIP3    H254206   5.007   5.229   3.570 -0.2869 -0.3154  0.7139
10931TIP3   OH254207   1.085   0.888   2.878 -0.1645  0.4029 -0.2100
10931TIP3    H154208   1.082   0.948   2.953  0.4907  1.5939 -1.0943
10931TIP3    H254209   1.177   0.889   2.851 -0.0575 -1.3645  0.0123
10932TIP3   OH254210   3.038   1.671  13.437 -0.0829  0.5696  0.1746
10932TIP3    H154211   2.955   1.636  13.404 -0.3168  0.7989  0.5036
10932TIP3    H254212   3.032   1.765  13.421  0.6458  0.4455 -0.9205
10933TIP3   OH254213   0.164   5.483  12.206  0.5966 -0.0815  0.4592
10933TIP3    H154214   0.174   5.504  12.299  1.2118 -0.8889  0.5901
10933TIP3    H254215   0.161   5.568  12.162  0.7873  0.3028  1.1712
10934TIP3   OH254216   4.381   5.247   5.280  0.1997  0.1062  0.8902
10934TIP3    H154217   4.427   5.299   5.347  1.8254  0.5047 -0.4488
10934TIP3    H254218   4.441   5.175   5.261 -0.1451  0.1027 -0.2482
10935TIP3   OH254219   2.024   5.317   2.420  0.7256 -0.0531  0.0539
10935TIP3    H154220   2.076   5.237   2.429  0.6757 -0.1177 -0.2372
10935TIP3    H254221   1.938   5.294   2.457  0.8611  0.0151  0.4173
10936TIP3   OH254222   0.940   1.596  14.498 -0.1303 -0.2407  0.1589
10936TIP3    H154223   0.950   1.629  14.409  1.6636 -0.2185  0.3421
10936TIP3    H254224   1.014   1.631  14.546  0.2880 -2.2013  1.0699
10937TIP3   OH254225   2.878   1.073   0.287 -0.0385 -0.7333 -0.3595
10937TIP3    H154226   2.955   1.026   0.256 -0.3311 -0.6867 -1.1937
10937TIP3    H254227   2.851   1.026   0.366  0.6461 -0.9455 -0.2467
10938TIP3   OH254228   2.694   3.862   1.309  0.1363  0.2745 -0.1807
10938TIP3    H154229   2.700   3.891   1.400  0.6777 -0.2469 -0.0431
10938TIP3    H254230   2.785   3.862   1.278 -0.2568  4.2907 -1.9947
10939TIP3   OH254231   6.009   6.630   5.535  0.0876  0.2417 -0.0282
10939TIP3    H154232   5.963   6.695   5.482 -0.3453  0.7052  0.8885
10939TIP3    H254233   6.093   6.618   5.491 -0.5152  0.1196 -1.1833
10940TIP3   OH254234   6.660   5.059  11.299 -0.1143 -0.2999 -0.0631
10940TIP3    H154235   6.640   4.999  11.227  0.6705 -0.8193  0.1338
10940TIP3    H254236   6.680   5.002  11.373 -0.7340  0.2282  0.5231
10941TIP3   OH254237   0.543   5.557   4.185  0.4455  0.0088  0.1172
10941TIP3    H154238   0.608   5.498   4.224  0.2375  0.4807  1.2302
10941TIP3    H254239   0.589   5.639   4.172  0.1348  0.2873  0.7321
10942TIP3   OH254240   4.782   2.833   3.433 -0.3836 -0.0548  0.8665
10942TIP3    H154241   4.753   2.915   3.472  1.5498  0.3030  1.6504
10942TIP3    H254242   4.785   2.771   3.506  0.7344 -0.0832  0.8120
10943TIP3   OH254243   0.362   6.385  16.524 -0.1983 -0.1674  0.4918
10943TIP3    H154244   0.367   6.290  16.533  0.2444 -0.1804  0.1345
10943TIP3    H254245   0.454   6.414  16.526 -0.0381 -0.0622 -2.8477
10944TIP3   OH254246   6.459   4.650  16.133 -0.2826  0.0420 -0.9663
10944TIP3    H154247   6.508   4.609  16.062  0.4537 -0.5460 -0.1456
10944TIP3    H254248   6.527   4.690  16.188 -0.7279 -0.6431  0.1106
10945TIP3   OH254249   1.169   1.153  16.640  0.7756 -0.3173 -0.4143
10945TIP3    H154250   1.262   1.170  16.625  0.6018 -0.8432 -2.4003
10945TIP3    H254251   1.140   1.224  16.697  1.6800  1.8482 -2.4893
10946TIP3   OH254252   4.147   5.501   1.282  0.3483  0.5166 -0.3220
10946TIP3    H154253   4.143   5.564   1.354  1.2853 -1.5175  1.6739
10946TIP3    H254254   4.061   5.458   1.283 -0.1901  1.5279 -1.4899
10947TIP3   OH254255   0.864   3.928  15.326  0.1159 -0.0519 -0.4158
10947TIP3    H154256   0.816   3.945  15.244  1.4035  0.8289 -1.0297
10947TIP3    H254257   0.845   4.005  15.380  0.8614  0.3440 -0.6963
10948TIP3   OH254258   3.330   1.407   4.405  0.0302  0.5611 -0.0847
10948TIP3    H154259   3.316   1.408   4.500  0.5373 -1.1110  0.0460
10948TIP3    H254260   3.291   1.324   4.376  0.5974  0.6673 -1.2140
10949TIP3   OH254261   4.707   4.134  13.473  0.0357 -0.4121  0.3128
10949TIP3    H154262   4.621   4.176  13.467  0.6379  1.2818  2.1686
10949TIP3    H254263   4.769   4.204  13.453  1.1080 -0.0651  4.1170
10950TIP3   OH254264   2.484   2.681   0.394  0.2718 -0.2514  0.3736
10950TIP3    H154265   2.439   2.611   0.346  0.3839 -0.0391 -0.0448
10950TIP3    H254266   2.435   2.688   0.476  2.2680 -3.1606  2.0027
10951TIP3   OH254267   5.461   1.368   1.235 -0.2413 -0.2221 -0.5034
10951TIP3    H154268   5.443   1.386   1.142  0.1075 -0.4135 -0.6111
10951TIP3    H254269   5.536   1.423   1.255 -0.9488  0.5916 -0.0516
10952TIP3   OH254270   5.053   4.230  15.574 -0.0429 -0.2032 -0.2292
10952TIP3    H154271   4.971   4.280  15.572 -0.6519 -1.0060  2.1432
10952TIP3    H254272   5.115   4.286  15.528 -1.5043  1.2199 -0.5787
10953TIP3   OH254273   3.926   0.578   0.354  0.3439  0.7864 -0.1406
10953TIP3    H154274   3.996   0.512   0.355  1.1773  1.6510  0.2252
10953TIP3    H254275   3.972   0.662   0.361 -0.7179  1.3982 -0.2496
10954TIP3   OH254276   2.530   0.459   5.132 -0.1794  0.0549  0.6947
10954TIP3    H154277   2.483   0.388   5.175 -1.6147 -0.6827 -1.8832
10954TIP3    H254278   2.484   0.472   5.049  1.0056  2.9471  0.3546
10955TIP3   OH254279   6.086   0.497   0.233  0.3804 -0.2369  0.0045
10955TIP3    H154280   6.036   0.578   0.227 -1.5192 -1.2707  0.7879
10955TIP3    H254281   6.135   0.504   0.314 -1.5673 -0.7319  1.3042
10956TIP3   OH254282   1.026   3.563   3.103  0.0843  0.3327  0.4362
10956TIP3    H154283   1.073   3.540   3.183 -0.1948  0.4297  0.6298
10956TIP3    H254284   1.082   3.533   3.032 -0.2878 -1.0163  0.6837
10957TIP3   OH254285   4.628   4.906   6.027  0.0934  0.3385  0.0082
10957TIP3    H154286   4.534   4.900   6.011  0.1449 -0.2210 -0.1112
10957TIP3    H254287   4.635   4.934   6.118 -0.1878 -0.7783  0.3845
10958TIP3   OH254288   0.855   2.677  14.315 -0.5760  0.3731 -0.0852
10958TIP3    H154289   0.773   2.646  14.276 -0.6953  1.9009 -1.1232
10958TIP3    H254290   0.862   2.628  14.397 -1.8298 -0.7772 -0.6201
10959TIP3   OH254291   2.044   0.802   5.719  0.5610  0.1224 -0.0445
10959TIP3    H154292   2.030   0.787   5.813  2.9978  0.3837  0.4360
10959TIP3    H254293   2.035   0.896   5.708  0.5538  0.1261 -0.0075
10960TIP3   OH254294   2.509   0.647  13.127  0.6376  0.4438  0.3142
10960TIP3    H154295   2.491   0.740  13.109  2.0904  0.7271  0.2459
10960TIP3    H254296   2.601   0.635  13.103  0.8504 -0.6938  1.5993
10961TIP3   OH254297   4.263   0.417  16.797  0.1223  0.9220 -0.4769
10961TIP3    H154298   4.268   0.428  16.702 -1.6534  2.0362 -0.4968
10961TIP3    H254299   4.174   0.387  16.813  0.3267  0.9571  0.8522
10962TIP3   OH254300   1.620   5.172  14.639 -0.2646  0.3022  0.0783
10962TIP3    H154301   1.591   5.085  14.669 -0.0705 -0.3663 -1.5662
10962TIP3    H254302   1.561   5.233  14.681 -0.2622 -0.6048  1.4695
10963TIP3   OH254303   0.408   4.134  15.825 -0.3010  0.6183 -0.0104
10963TIP3    H154304   0.424   4.042  15.804 -1.6944 -0.0112  1.4960
10963TIP3    H254305   0.313   4.143  15.821 -0.1010  2.6339 -2.4712
10964TIP3   OH254306   2.961   5.734   1.437  0.1078 -0.0674  0.0578
10964TIP3    H154307   2.996   5.747   1.525  3.5564 -1.7786 -0.8769
10964TIP3    H254308   2.881   5.683   1.450  0.2510  0.1884  2.2281
10965TIP3   OH254309   0.264   6.552  15.043  0.3784 -0.2373 -0.0450
10965TIP3    H154310   0.247   6.613  15.115  1.7479  3.1237 -2.3267
10965TIP3    H254311   0.185   6.557  14.989 -0.2181 -1.9545  0.5944
10966TIP3   OH254312   6.129   2.488   1.113 -0.0083 -0.0562  0.2977
10966TIP3    H154313   6.108   2.487   1.207  1.9779 -1.7438  0.7909
10966TIP3    H254314   6.224   2.472   1.110 -0.1912 -0.9810 -2.0363
10967TIP3   OH254315   2.045   2.800  16.448  0.3270  0.1630 -0.7106
10967TIP3    H154316   1.961   2.760  16.424  0.4808 -0.7786  0.2299
10967TIP3    H254317   2.061   2.768  16.537  1.9463 -0.1085 -1.0811
10968TIP3   OH254318   0.755   2.252   1.483 -0.1739  0.5098 -0.1032
10968TIP3    H154319   0.839   2.297   1.486  1.0480 -1.6444  0.3569
10968TIP3    H254320   0.725   2.262   1.393  1.2370  0.2421 -0.6265
10969TIP3   OH254321   2.563   5.351  11.713  0.4952 -0.5963  0.0646
10969TIP3    H154322   2.625   5.309  11.772 -0.1430 -0.7162  0.6614
10969TIP3    H254323   2.529   5.280  11.659 -3.0400 -1.6401  3.2070
10970TIP3   OH254324   4.845   1.319   1.952  0.1409 -0.7658  0.3211
10970TIP3    H154325   4.791   1.397   1.968  0.3683 -0.8239  1.4149
10970TIP3    H254326   4.841   1.307   1.857 -0.8378 -0.0998  0.2598
10971TIP3   OH254327   6.504   5.099  14.860 -0.3483 -0.6420  0.3114
10971TIP3    H154328   6.447   5.161  14.905  0.0102 -1.5557  2.1186
10971TIP3    H254329   6.563   5.067  14.928  1.8624 -0.3047 -1.3341
10972TIP3   OH254330   4.432   5.597   3.560 -0.2263  0.5376  0.4264
10972TIP3    H154331   4.376   5.520   3.572  0.5993 -0.1376  0.1124
10972TIP3    H254332   4.430   5.613   3.466 -2.1578  2.2992  0.7052
10973TIP3   OH254333   0.692   0.657   5.577 -0.0669 -0.8883  0.3951
10973TIP3    H154334   0.668   0.720   5.646  1.2081 -0.1614  0.2038
10973TIP3    H254335   0.783   0.679   5.556 -0.3422 -1.3037 -1.3164
10974TIP3   OH254336   2.472   4.086   2.812 -0.4857 -0.4966 -0.7865
10974TIP3    H154337   2.506   4.174   2.831  0.6514 -0.4748 -2.6505
10974TIP3    H254338   2.441   4.053   2.897  0.8410  0.9516  0.3228
10975TIP3   OH254339   4.673   2.645  16.394  0.0788  0.1476 -0.1562
10975TIP3    H154340   4.596   2.701  16.403 -0.0009  0.1015 -0.5309
10975TIP3    H254341   4.662   2.602  16.309  0.4696  0.0683 -0.1698
10976TIP3   OH254342   0.684   0.813   1.485  0.3769 -0.0492  0.5724
10976TIP3    H154343   0.653   0.805   1.395 -0.0523  1.0160  0.6119
10976TIP3    H254344   0.731   0.896   1.486 -0.8888  0.6856  1.6765
10977TIP3   OH254345   4.147   1.682  14.584 -0.4061 -0.2220 -0.7023
10977TIP3    H154346   4.103   1.716  14.506 -2.1436  0.3633  0.4652
10977TIP3    H254347   4.214   1.747  14.604  1.0553 -1.0973 -2.4886
10978TIP3   OH254348   0.689   3.644   5.497 -0.0934 -0.0070  0.2524
10978TIP3    H154349   0.759   3.611   5.440 -1.5637 -0.4253 -1.3897
10978TIP3    H254350   0.636   3.567   5.517 -1.9662  0.7849 -1.3188
10979TIP3   OH254351   6.602   1.048   1.219 -0.0775 -0.0249 -0.8994
10979TIP3    H154352   6.634   1.030   1.130  0.2665 -0.6662 -0.6528
10979TIP3    H254353   6.628   0.971   1.270  1.7719  1.3061  0.2945
10980TIP3   OH254354   0.586   3.065  16.792  0.0752 -0.4457  0.0355
10980TIP3    H154355   0.572   3.148  16.746 -0.3495 -0.2369  0.5318
10980TIP3    H254356   0.507   3.014  16.773  0.5407 -0.9213 -0.6490
10981TIP3   OH254357   5.024   6.693   0.448 -0.1197 -0.0223 -0.1547
10981TIP3    H154358   5.117   6.701   0.426 -0.1186  0.0525 -0.1233
10981TIP3    H254359   4.987   6.780   0.427  0.3623  0.9188  2.5765
10982TIP3   OH254360   0.180   1.556  11.304  0.0297 -0.0497 -0.0407
10982TIP3    H154361   0.223   1.609  11.237 -0.3693  1.6257  0.9789
10982TIP3    H254362   0.249   1.531  11.364  0.1242 -0.2424 -0.2269
10983TIP3   OH254363   6.259   3.437  13.919 -0.4176 -0.9591  0.3438
10983TIP3    H154364   6.243   3.499  13.847  0.3694  0.0631  1.0172
10983TIP3    H254365   6.268   3.352  13.876  1.1846 -0.2032 -0.9176
10984TIP3   OH254366   4.896   1.196   4.579 -0.8963 -0.2941 -0.6924
10984TIP3    H154367   4.937   1.112   4.557  0.2618 -0.1352  0.7376
10984TIP3    H254368   4.831   1.174   4.646 -0.7362 -0.0827 -0.4664
10985TIP3   OH254369   3.848   4.462   2.905  0.1195 -0.7664  0.6056
10985TIP3    H154370   3.767   4.454   2.955 -0.3270  0.3283  0.0959
10985TIP3    H254371   3.828   4.423   2.820 -0.0252 -0.0973  0.3258
10986TIP3   OH254372   4.004   6.129   6.495  0.3382 -0.0614 -0.3024
10986TIP3    H154373   3.997   6.060   6.428 -1.3977 -0.2717  0.0624
10986TIP3    H254374   3.960   6.205   6.457  4.0606  1.6860 -1.5968
10987TIP3   OH254375   6.392   4.319  13.285  0.3030 -0.6771  0.0649
10987TIP3    H154376   6.352   4.401  13.316 -1.6632 -0.2193 -3.2053
10987TIP3    H254377   6.325   4.253  13.299  0.5465 -1.0323 -0.4306
10988TIP3   OH254378   4.820   0.359   0.890  0.3699 -0.6697 -0.1867
10988TIP3    H154379   4.789   0.365   0.980 -0.1270 -0.4378 -0.3694
10988TIP3    H254380   4.758   0.300   0.847 -0.2003  0.2918 -0.7089
10989TIP3   OH254381   3.249   3.889  13.825  0.1411  0.2640 -0.1079
10989TIP3    H154382   3.288   3.840  13.898 -0.3536 -1.6838 -1.0797
10989TIP3    H254383   3.321   3.899  13.762 -0.0143 -0.1798 -0.3635
10990TIP3   OH254384   4.467   1.540   5.638 -0.2286  0.0124 -0.7473
10990TIP3    H154385   4.496   1.487   5.564  0.7782  0.3634 -0.6128
10990TIP3    H254386   4.447   1.626   5.600 -1.7778 -0.3943 -0.9507
10991TIP3   OH254387   0.424   3.551   1.745 -0.7242 -0.2661  0.6658
10991TIP3    H154388   0.353   3.583   1.690 -0.9565 -0.1073  1.0517
10991TIP3    H254389   0.383   3.488   1.804  0.1523 -3.4211 -1.8245
10992TIP3   OH254390   4.741   5.627  11.558 -0.2685  0.1988  0.7698
10992TIP3    H154391   4.684   5.562  11.600  1.4278 -1.4008  0.7527
10992TIP3    H254392   4.718   5.622  11.465  0.3933 -1.0541  0.6394
10993TIP3   OH254393   0.189   0.240   1.217  0.0062 -0.2653 -0.4029
10993TIP3    H154394   0.281   0.249   1.195 -0.1731  1.5235 -0.5789
10993TIP3    H254395   0.171   0.147   1.210  1.3622 -0.4338 -2.1085
10994TIP3   OH254396   4.512   4.145   2.485 -0.1385 -0.2542  0.1279
10994TIP3    H154397   4.505   4.050   2.485 -1.9981 -0.1837  1.5740
10994TIP3    H254398   4.483   4.172   2.397 -1.7050 -0.9531  0.4043
10995TIP3   OH254399   5.828   3.821   3.449  0.1406 -0.2288  0.2257
10995TIP3    H154400   5.768   3.795   3.520  1.6264 -0.1843  1.5652
10995TIP3    H254401   5.879   3.742   3.432  0.3507  0.0007 -0.2103
10996TIP3   OH254402   2.645   4.262  13.980 -0.0432  0.0883 -0.1323
10996TIP3    H154403   2.704   4.268  14.054 -0.6866 -0.0605  0.4026
10996TIP3    H254404   2.703   4.253  13.904  0.6586  1.5543  0.1932
10997TIP3   OH254405   0.315   1.513  13.692 -0.6217 -0.0663  0.4955
10997TIP3    H154406   0.256   1.465  13.633 -1.4360 -0.0804  1.2877
10997TIP3    H254407   0.312   1.463  13.773 -1.1214  1.0620  1.1914
10998TIP3   OH254408   2.616   5.784   5.802 -0.1400 -0.1632  0.2608
10998TIP3    H154409   2.662   5.820   5.727 -0.0614 -1.2163 -0.2154
10998TIP3    H254410   2.525   5.811   5.791  0.1168  0.8928  0.5625
10999TIP3   OH254411   5.859   6.569   0.923 -0.0947  0.2934  0.0204
10999TIP3    H154412   5.931   6.609   0.874 -1.0893  1.2455 -0.7069
10999TIP3    H254413   5.785   6.628   0.910 -1.0166 -0.6560  0.7583
11000TIP3   OH254414   2.578   6.180  13.536  0.2350 -0.1529 -0.7629
11000TIP3    H154415   2.670   6.198  13.555 -0.3482 -0.1451  2.7287
11000TIP3    H254416   2.581   6.115  13.465  2.8874  0.1101 -1.0109
11001TIP3   OH254417   1.844   2.963  16.163 -0.1250 -0.2933  0.2986
11001TIP3    H154418   1.831   3.004  16.249  0.4705  0.2194  0.1498
11001TIP3    H254419   1.765   2.910  16.150  0.4307 -1.5800  1.8362
11002TIP3   OH254420   2.295   1.936   0.536 -0.4317  0.6896  0.1738
11002TIP3    H154421   2.215   1.888   0.513  0.5856  0.1425 -2.6395
11002TIP3    H254422   2.309   1.996   0.462  2.7805 -0.6352 -0.4497
11003TIP3   OH254423   0.070   3.651  16.236  0.0585 -0.7898 -0.3067
11003TIP3    H154424   0.025   3.673  16.155 -0.0005  1.8728  0.3593
11003TIP3    H254425   0.003   3.659  16.304  1.0952  1.7941  0.5167
11004TIP3   OH254426   2.663   3.584   4.419  0.5125 -0.2610 -0.1837
11004TIP3    H154427   2.639   3.520   4.486  0.5894 -1.3327 -1.1493
11004TIP3    H254428   2.581   3.628   4.398  0.4891  0.0967  0.6069
11005TIP3   OH254429   1.079   1.819  12.880 -0.4108  0.0572  0.3616
11005TIP3    H154430   1.104   1.818  12.972 -2.0509 -2.1034  0.8594
11005TIP3    H254431   1.091   1.728  12.851 -3.6476 -0.2497 -0.4087
11006TIP3   OH254432   2.476   1.180  15.935 -0.4029  0.1604 -0.1825
11006TIP3    H154433   2.549   1.129  15.900 -0.3543 -1.7140  2.3132
11006TIP3    H254434   2.400   1.150  15.885 -0.1031 -1.2331  0.1414
11007TIP3   OH254435   1.021   5.047  12.445  0.0468 -0.1099  0.3823
11007TIP3    H154436   0.969   4.972  12.473 -1.3114  0.2826 -0.9108
11007TIP3    H254437   1.091   5.054  12.509 -0.8032 -1.4216  1.5037
11008TIP3   OH254438   3.602   3.826   4.419  0.7548 -0.0156  0.5797
11008TIP3    H154439   3.619   3.882   4.343  1.1355 -0.5121  0.2899
11008TIP3    H254440   3.637   3.874   4.493  0.6388  0.3460  0.4007
11009TIP3   OH254441   6.387   0.595   3.587  0.3839  0.9147 -0.2822
11009TIP3    H154442   6.297   0.596   3.554  0.9140  0.8483 -1.8016
11009TIP3    H254443   6.436   0.650   3.525  1.5612  0.2464  0.0239
11010TIP3   OH254444   0.387   5.289   0.008 -0.5202 -0.2035  0.6000
11010TIP3    H154445   0.456   5.226  -0.011 -1.8497 -0.9889 -2.0620
11010TIP3    H254446   0.425   5.374  -0.011 -0.2373 -0.6304 -0.8592
11011TIP3   OH254447   0.002   0.454  14.454  0.3636  0.2741 -0.5666
11011TIP3    H154448   0.024   0.545  14.475 -0.3555  0.5204 -0.8484
11011TIP3    H254449   0.016   0.448  14.359 -3.4136  1.2664 -1.3523
11012TIP3   OH254450   4.266   1.747   4.370  0.5009  0.3634 -0.2579
11012TIP3    H154451   4.312   1.792   4.442  2.8764  0.0151 -1.4497
11012TIP3    H254452   4.291   1.797   4.292 -4.9107  3.0740 -0.7479
11013TIP3   OH254453   3.529   2.102  15.036  0.1402 -0.8575  0.4970
11013TIP3    H154454   3.525   2.067  14.947 -0.5266 -1.2569  0.6808
11013TIP3    H254455   3.440   2.129  15.055  0.4700  0.1205  0.6973
11014TIP3   OH254456   0.230   5.500  11.454  0.3311 -0.1647 -0.3975
11014TIP3    H154457   0.134   5.495  11.451  0.2880 -1.6532  1.5729
11014TIP3    H254458   0.258   5.409  11.452  1.6391  0.2032  0.3833
11015TIP3   OH254459   1.196   6.592   1.901  0.5365 -0.1261  0.0962
11015TIP3    H154460   1.184   6.504   1.866  1.3421  0.5198 -1.9596
11015TIP3    H254461   1.112   6.613   1.942 -0.0745 -1.3885 -0.4430
11016TIP3   OH254462   2.354   6.302  12.337  0.9309  0.3634  0.2830
11016TIP3    H154463   2.405   6.233  12.294  1.3212  0.9130 -0.1379
11016TIP3    H254464   2.368   6.286  12.431 -0.3610 -1.1612  0.2518
11017TIP3   OH254465   5.878   4.866  15.565 -0.4908  0.2949 -0.5519
11017TIP3    H154466   5.911   4.862  15.476  0.6138 -1.2909 -0.1257
11017TIP3    H254467   5.957   4.864  15.620 -1.1959 -2.0334  0.4805
11018TIP3   OH254468   4.958   6.512   2.857  0.0542 -0.3289  0.6905
11018TIP3    H154469   4.926   6.547   2.940  2.5190  0.8850  1.2207
11018TIP3    H254470   4.903   6.554   2.790 -0.5807  0.3155  1.5933
11019TIP3   OH254471   5.735   5.150  14.357 -0.6729  0.4372  0.2649
11019TIP3    H154472   5.772   5.103  14.282 -0.6816  2.3547 -1.0014
11019TIP3    H254473   5.641   5.130  14.353 -0.6069  0.1652  0.0400
11020TIP3   OH254474   0.454   0.242   2.279 -0.0413 -0.4604 -0.6850
11020TIP3    H154475   0.397   0.166   2.272 -0.2757 -0.4063  0.4631
11020TIP3    H254476   0.534   0.208   2.318 -0.1912 -0.1069 -0.0567
11021TIP3   OH254477   2.099   6.246   5.093 -0.0257 -0.4459 -0.2393
11021TIP3    H154478   2.178   6.195   5.108 -0.1123 -0.3750  0.5091
11021TIP3    H254479   2.124   6.336   5.113 -0.0842 -0.3123 -0.7715
11022TIP3   OH254480   0.420   2.435   5.235  0.0537 -0.0440 -0.0805
11022TIP3    H154481   0.468   2.376   5.177  2.1662 -0.6860  2.1477
11022TIP3    H254482   0.463   2.520   5.225 -1.7834  0.7738 -1.8743
11023TIP3   OH254483   1.550   2.798  15.656  0.3701  0.4172 -0.6445
11023TIP3    H154484   1.582   2.859  15.723 -0.6456  0.9753 -0.6521
11023TIP3    H254485   1.552   2.713  15.699  1.3978  0.5035 -0.4905
11024TIP3   OH254486   3.624   1.110  12.052 -0.1057  0.2199 -0.9708
11024TIP3    H154487   3.554   1.050  12.028 -1.1825  1.4765 -1.0925
11024TIP3    H254488   3.699   1.082  11.999 -1.4766  0.8596 -3.4194
11025TIP3   OH254489   2.549   1.770  11.572 -0.3211  0.0949  0.5898
11025TIP3    H154490   2.499   1.706  11.624  0.7549  0.4798  2.1503
11025TIP3    H254491   2.634   1.729  11.559 -0.9607 -0.6037 -2.1527
11026TIP3   OH254492   5.255   2.053   0.599  0.6074 -0.2681  0.3151
11026TIP3    H154493   5.214   1.976   0.639 -0.7263  0.2267 -0.0234
11026TIP3    H254494   5.221   2.053   0.509  0.3548  0.8711  0.4039
11027TIP3   OH254495   0.450   5.170   4.524  0.1481  0.0889 -0.2512
11027TIP3    H154496   0.449   5.227   4.447  0.3461 -1.0917 -1.1677
11027TIP3    H254497   0.539   5.176   4.558 -0.3733  1.8991  0.9227
11028TIP3   OH254498   3.249   5.930  16.893  0.4296  0.8472 -0.6618
11028TIP3    H154499   3.261   5.965  16.805 -1.8340  0.8739 -1.0233
11028TIP3    H254500   3.155   5.912  16.898  0.4614  1.1521  1.8737
11029TIP3   OH254501   5.518   0.445   2.080 -0.2435  0.7415 -0.1985
11029TIP3    H154502   5.468   0.377   2.124 -1.1067  0.7145 -1.1841
11029TIP3    H254503   5.605   0.441   2.120  0.0300 -1.6014 -0.9070
11030TIP3   OH254504   5.307   5.080  11.893  0.0573  0.2151  0.1228
11030TIP3    H154505   5.261   5.049  11.815  1.4837  0.9279 -1.0644
11030TIP3    H254506   5.394   5.040  11.887  1.7818  3.6899 -1.1875
11031TIP3   OH254507   3.458   0.600  14.457 -0.6625 -0.0494  0.3037
11031TIP3    H154508   3.553   0.604  14.452 -0.7255 -0.3649 -1.9882
11031TIP3    H254509   3.430   0.691  14.462 -0.2681  0.0304  1.5832
11032TIP3   OH254510   1.044   4.799   6.225  0.7530 -0.6225  0.3205
11032TIP3    H154511   1.093   4.735   6.172 -0.4735 -0.5328 -0.9759
11032TIP3    H254512   1.059   4.883   6.181 -0.6172 -0.6110 -0.1559
11033TIP3   OH254513   0.335   3.156  14.589 -0.3429 -0.2087 -0.0969
11033TIP3    H154514   0.298   3.071  14.565 -0.1965 -0.4251  0.4214
11033TIP3    H254515   0.317   3.165  14.683  0.7579 -0.2530  0.1386
11034TIP3   OH254516   3.069   2.577   4.714  0.2603 -0.4141  0.2768
11034TIP3    H154517   2.993   2.629   4.690  0.3034 -0.8958 -0.9668
11034TIP3    H254518   3.137   2.603   4.651  0.5712 -1.2770  0.2427
11035TIP3   OH254519   2.108   6.504  16.157 -0.0269 -0.1517  0.4043
11035TIP3    H154520   2.027   6.488  16.109  0.0900 -0.2404  0.2343
11035TIP3    H254521   2.098   6.593  16.192 -0.1920 -0.1577  0.3741
11036TIP3   OH254522   3.050   1.817  11.038  0.0718 -0.4185 -0.0021
11036TIP3    H154523   3.087   1.791  10.954  0.5957  1.7799 -0.5166
11036TIP3    H254524   3.044   1.736  11.088  2.1351 -1.4026 -1.2287
11037TIP3   OH254525   2.482   3.724   4.223  0.5646 -0.1204  0.4589
11037TIP3    H154526   2.398   3.688   4.253 -0.1070  0.5778 -0.5065
11037TIP3    H254527   2.502   3.675   4.144  1.7657 -1.1983  1.3987
11038TIP3   OH254528   3.328   2.242  16.052 -0.1291  0.3361  0.8469
11038TIP3    H154529   3.388   2.316  16.057  2.2244 -1.4321  0.3185
11038TIP3    H254530   3.347   2.200  15.968 -2.5350  0.0148  0.3935
11039TIP3   OH254531   3.482   5.232  12.806 -0.3093  0.6786  0.0572
11039TIP3    H154532   3.423   5.275  12.868  1.6236  0.7563  1.9482
11039TIP3    H254533   3.560   5.287  12.805  0.6651 -0.6595 -0.5675
11040TIP3   OH254534   1.365   6.585   0.615  0.3241  0.3974  0.0865
11040TIP3    H154535   1.421   6.509   0.603 -0.0788 -0.0765  1.0652
11040TIP3    H254536   1.369   6.603   0.709 -0.6348  0.7510  0.0761
11041TIP3   OH254537   5.584   3.299  11.751  0.3923 -0.4554  0.7154
11041TIP3    H154538   5.530   3.240  11.802 -1.4780 -0.5139 -1.1791
11041TIP3    H254539   5.532   3.379  11.744 -0.6536 -1.2781 -3.0492
11042TIP3   OH254540   5.674   4.544   1.273  0.3708  0.4975 -0.1514
11042TIP3    H154541   5.716   4.617   1.318 -1.8525  0.5803  1.9645
11042TIP3    H254542   5.648   4.484   1.342 -2.4282  0.1929 -1.3345
11043TIP3   OH254543   5.019   0.239   2.741 -0.8538  0.2214  0.7540
11043TIP3    H154544   5.055   0.328   2.738  1.0068 -0.4399  1.6873
11043TIP3    H254545   5.057   0.201   2.820 -2.5602 -1.0365  1.0153
11044TIP3   OH254546   3.850   0.189  16.195 -0.0921 -0.5763  0.3028
11044TIP3    H154547   3.762   0.206  16.228  0.2342 -0.2652  1.0331
11044TIP3    H254548   3.886   0.124  16.254 -0.7412 -2.7253 -1.5282
11045TIP3   OH254549   6.662   2.603  16.181  0.0730 -0.0217 -0.1470
11045TIP3    H154550   6.686   2.534  16.119  1.2371  0.0999  0.1440
11045TIP3    H254551   6.566   2.603  16.182  0.0334 -2.1357  0.3993
11046TIP3   OH254552   5.399   6.149  15.113 -0.3682  0.3213 -0.0163
11046TIP3    H154553   5.377   6.185  15.027  0.6421  0.3517 -0.2746
11046TIP3    H254554   5.481   6.192  15.138 -1.1881  1.1194  1.4569
11047TIP3   OH254555   3.709   6.484  13.669  0.0894  0.5471 -0.4006
11047TIP3    H154556   3.717   6.506  13.577  1.3392 -1.0206 -0.7364
11047TIP3    H254557   3.618   6.501  13.692  0.0420  2.0115 -1.6159
11048TIP3   OH254558   5.813   1.970  14.679 -0.3600 -1.1756 -0.4001
11048TIP3    H154559   5.755   1.903  14.714  0.8914 -1.3360  1.5451
11048TIP3    H254560   5.820   2.035  14.750  1.2468 -0.8161 -0.8395
11049TIP3   OH254561   3.263   1.685  16.429  0.2002  0.0166  0.8624
11049TIP3    H154562   3.255   1.779  16.409 -0.4389  0.4391  2.8607
11049TIP3    H254563   3.177   1.649  16.409  0.6285 -0.3069 -0.5101
11050TIP3   OH254564   1.198   6.597   1.401  0.1157  0.2606  0.3122
11050TIP3    H154565   1.290   6.624   1.405  0.5084 -0.5880 -1.7446
11050TIP3    H254566   1.166   6.629   1.317 -0.2519 -2.8431 -0.8709
11051TIP3   OH254567   1.942   4.717   2.770 -0.4892  0.3887 -0.4608
11051TIP3    H154568   1.933   4.769   2.690 -2.7225 -1.5277 -1.5669
11051TIP3    H254569   2.011   4.654   2.751 -0.9983 -0.0462 -0.8950
11052TIP3   OH254570   3.927   2.779  11.418  0.0503  0.0272 -0.1468
11052TIP3    H154571   3.834   2.798  11.411  0.2753  1.1988 -0.1730
11052TIP3    H254572   3.970   2.847  11.366  0.9137 -0.6711 -0.3816
11053TIP3   OH254573   5.968   3.564   2.426  0.2634 -0.4201  0.0945
11053TIP3    H154574   5.995   3.650   2.392 -1.2916  0.2431  0.4205
11053TIP3    H254575   6.049   3.518   2.443  1.1480  0.0804 -2.3546
11054TIP3   OH254576   6.603   5.360  10.558 -0.3991  0.7156 -0.4642
11054TIP3    H154577   6.668   5.289  10.555 -2.1097 -0.9696  0.6423
11054TIP3    H254578   6.643   5.430  10.506  2.2205 -0.2955  0.0154
11055TIP3   OH254579   2.830   4.784  16.032 -0.8744 -0.2799  0.9525
11055TIP3    H154580   2.735   4.781  16.044 -1.2952  0.8178 -1.4226
11055TIP3    H254581   2.855   4.693  16.017 -1.5397 -0.5877  1.6609
11056TIP3   OH254582   3.487   0.187   2.072 -0.0342 -0.3729  0.2566
11056TIP3    H154583   3.482   0.132   2.150 -0.9793  0.2017  0.6241
11056TIP3    H254584   3.567   0.159   2.027  0.7271 -0.4715  1.6174
11057TIP3   OH254585   3.257   1.953  13.971  0.2626  0.4826 -0.1851
11057TIP3    H154586   3.247   1.904  14.052  0.6648 -0.2711 -0.5827
11057TIP3    H254587   3.265   1.886  13.903 -1.6870  1.0633 -1.0781
11058TIP3   OH254588   5.704   5.198   4.131  0.1226  0.7463  0.0605
11058TIP3    H154589   5.775   5.258   4.156 -0.5750  1.7889 -0.4131
11058TIP3    H254590   5.749   5.115   4.113  1.7829  2.1926 -3.5603
11059TIP3   OH254591   0.560   0.031  13.156 -0.1090 -0.1318  0.5534
11059TIP3    H154592   0.576   0.087  13.232 -0.9116  0.2220  0.4784
11059TIP3    H254593   0.466   0.014  13.158  0.2467 -2.2877  1.1040
11060TIP3   OH254594   3.104   6.233   4.454 -0.2084  0.4167 -0.4932
11060TIP3    H154595   3.052   6.170   4.404  1.3971  0.1217 -1.8727
11060TIP3    H254596   3.039   6.287   4.499 -1.6471 -1.5880 -0.0237
11061TIP3   OH254597   2.920   0.596  11.962  0.1051 -0.6189  0.3031
11061TIP3    H154598   2.956   0.574  11.876  2.2740  1.0880  0.6749
11061TIP3    H254599   2.950   0.525  12.019 -1.1340 -1.6280 -0.2597
11062TIP3   OH254600   6.656   0.975  11.246 -0.7727 -0.0407  0.2125
11062TIP3    H154601   6.673   1.043  11.311  2.2169 -0.8177  0.3894
11062TIP3    H254602   6.561   0.972  11.238 -1.0722  3.5659  0.7946
11063TIP3   OH254603   6.018   4.978   5.175  0.3743  0.2100  0.2026
11063TIP3    H154604   5.953   4.976   5.106  1.4369  1.2587 -0.8724
11063TIP3    H254605   6.099   5.004   5.132  1.6626 -1.4995  1.4007
11064TIP3   OH254606   4.833   0.784  12.490 -0.1133  0.6442 -0.4135
11064TIP3    H154607   4.928   0.794  12.497  0.0882 -0.9506 -0.6605
11064TIP3    H254608   4.804   0.765  12.579  0.1376 -1.3603 -0.7287
11065TIP3   OH254609   4.419   4.691   5.057 -0.2561 -0.3548 -0.5881
11065TIP3    H154610   4.372   4.769   5.086  1.7828  1.8792 -2.8514
11065TIP3    H254611   4.381   4.670   4.972  2.2621  1.2342 -2.2574
11066TIP3   OH254612   6.588   2.990  14.436  0.3493  0.2523 -0.2052
11066TIP3    H154613   6.497   3.015  14.451  0.0460  0.3797 -1.9540
11066TIP3    H254614   6.635   3.020  14.514 -0.7567  2.1647 -0.2104
11067TIP3   OH254615   1.932   2.499   4.961  0.0152 -0.1274  0.2198
11067TIP3    H154616   1.961   2.539   5.043 -1.0436 -0.4581  0.7751
11067TIP3    H254617   1.993   2.426   4.947 -0.0576 -0.3373  0.9453
11068TIP3   OH254618   3.864   4.125   5.564 -0.2938  0.3898 -0.4209
11068TIP3    H154619   3.815   4.125   5.482 -1.9295  0.8837  0.5180
11068TIP3    H254620   3.906   4.211   5.567  0.2015  0.1768 -0.9627
11069TIP3   OH254621   4.115   5.021   0.269  0.1043 -0.4156  0.2357
11069TIP3    H154622   4.088   5.108   0.241  0.6175 -0.3074  0.0774
11069TIP3    H254623   4.049   4.962   0.231  0.2083 -0.1759 -0.3215
11070TIP3   OH254624   2.279   2.485   4.017 -0.1864 -0.2226  0.2370
11070TIP3    H154625   2.240   2.487   3.930  0.3486 -2.4106 -0.1137
11070TIP3    H254626   2.210   2.450   4.073 -0.5185  1.1466  0.7301
11071TIP3   OH254627   2.232   5.473   2.739 -0.1372  0.0015  0.0149
11071TIP3    H154628   2.225   5.492   2.645 -1.3679 -0.8167 -0.0837
11071TIP3    H254629   2.148   5.499   2.775 -0.2054 -1.0277  0.6331
11072TIP3   OH254630   3.025   5.407  17.077 -0.2675  0.1146 -0.2661
11072TIP3    H154631   2.985   5.494  17.075  0.0522  0.2967  0.7062
11072TIP3    H254632   3.033   5.387  17.170  0.0474 -0.7839 -0.4786
11073TIP3   OH254633   2.382   3.976  17.103  0.4862  0.1992  0.1871
11073TIP3    H154634   2.291   3.964  17.076  0.2480  0.6566  0.7698
11073TIP3    H254635   2.420   4.030  17.035  0.7517 -1.2440 -0.8711
11074TIP3   OH254636   3.996   0.879  13.221  0.2109 -0.1722  0.2645
11074TIP3    H154637   4.020   0.835  13.139  0.2270 -1.3563  0.8807
11074TIP3    H254638   4.005   0.972  13.201  2.5834 -0.4610 -0.3759
11075TIP3   OH254639   4.945   5.624  13.523 -0.2409  0.2469  0.1766
11075TIP3    H154640   5.018   5.569  13.550 -0.9016 -0.9099 -0.3218
11075TIP3    H254641   4.960   5.708  13.567  0.6918 -0.3869  1.1046
11076TIP3   OH254642   4.656   4.198   4.981 -0.5531 -0.2952 -0.1779
11076TIP3    H154643   4.687   4.162   4.897  0.9344  0.6236 -0.0579
11076TIP3    H254644   4.611   4.124   5.023  0.2557 -1.2956 -1.0019
11077TIP3   OH254645   0.575   2.296   5.043 -0.0519 -0.3631 -0.1408
11077TIP3    H154646   0.508   2.251   4.991  0.5557 -1.3312 -0.1125
11077TIP3    H254647   0.653   2.241   5.036  1.2406  1.5122 -1.4197
11078TIP3   OH254648   0.403   1.199   1.810 -0.2686 -0.5999 -0.5869
11078TIP3    H154649   0.458   1.185   1.887 -1.4070 -1.0877  0.1619
11078TIP3    H254650   0.464   1.197   1.736  0.9452  0.6323  0.3433
11079TIP3   OH254651   5.751   4.594  15.825 -0.1504  0.5055 -0.4874
11079TIP3    H154652   5.778   4.659  15.890  0.7078 -0.9707  0.7104
11079TIP3    H254653   5.658   4.609  15.814 -0.4048  0.5991  1.3693
11080TIP3   OH254654   6.317   5.502  16.560 -0.6819  0.5516 -0.2887
11080TIP3    H154655   6.369   5.421  16.558  0.1259  0.9526  1.9394
11080TIP3    H254656   6.227   5.473  16.546 -0.3164 -0.6281 -0.3113
11081TIP3   OH254657   0.065   6.504  15.719  0.1652  0.0702  0.2360
11081TIP3    H154658   0.048   6.412  15.698 -0.7935 -0.2462  2.1849
11081TIP3    H254659  -0.019   6.547  15.705  0.8987  0.9286 -1.8209
11082TIP3   OH254660   3.629   2.014  15.999  0.3363  0.0264  1.1110
11082TIP3    H154661   3.613   2.108  15.989 -2.5558 -0.4824 -0.1177
11082TIP3    H254662   3.664   1.987  15.913 -0.9792 -0.3386  0.6670
11083TIP3   OH254663   3.543   3.807  15.026 -0.3804 -0.0648  0.2188
11083TIP3    H154664   3.448   3.811  15.036 -0.3001 -0.3299  1.1458
11083TIP3    H254665   3.578   3.837  15.110  0.4695  4.4586 -1.4933
11084TIP3   OH254666   6.010   4.075   4.074 -0.7230 -0.4019 -1.0336
11084TIP3    H154667   5.930   4.117   4.044 -0.9265 -0.9557 -1.2740
11084TIP3    H254668   6.076   4.144   4.069 -1.0457 -0.1135 -1.4376
11085TIP3   OH254669   0.801   6.209  13.237 -0.0579 -0.4287 -0.2898
11085TIP3    H154670   0.720   6.170  13.269  0.8641 -3.1534 -0.9666
11085TIP3    H254671   0.867   6.183  13.301  0.5164  0.5601 -0.4672
11086TIP3   OH254672   1.494   1.066  14.033 -0.1980  0.4945  0.2418
11086TIP3    H154673   1.577   1.021  14.015  0.7099  1.6433  1.3742
11086TIP3    H254674   1.518   1.140  14.089 -2.1513  0.1661  1.6215
11087TIP3   OH254675   0.362   6.021   4.534 -0.1104  0.1966  0.0476
11087TIP3    H154676   0.317   5.994   4.454  0.8029 -0.8734 -0.1315
11087TIP3    H254677   0.304   5.993   4.605 -1.6164  2.4071 -0.1940
11088TIP3   OH254678   3.764   0.930  16.140 -0.7197  0.3323 -0.8979
11088TIP3    H154679   3.704   0.901  16.208  1.0705  0.1865  0.7257
11088TIP3    H254680   3.804   1.010  16.175  2.1291 -1.1126 -0.5113
11089TIP3   OH254681   6.536   4.680   5.522  0.6974  0.2519 -0.8783
11089TIP3    H154682   6.555   4.624   5.597 -1.5476 -0.6226 -0.8898
11089TIP3    H254683   6.530   4.619   5.448 -2.4129  0.2808 -0.7879
11090TIP3   OH254684   2.199   6.815  13.855 -0.8008  0.2614  0.0123
11090TIP3    H154685   2.259   6.832  13.927  0.0717 -1.4883 -0.2359
11090TIP3    H254686   2.250   6.760  13.795 -2.1893 -0.0555 -0.9114
11091TIP3   OH254687   4.672   3.462   3.293  0.1583  0.1380 -0.4001
11091TIP3    H154688   4.664   3.420   3.379 -2.4989 -2.0059 -1.5155
11091TIP3    H254689   4.637   3.550   3.305  1.1957  0.3837  0.9876
11092TIP3   OH254690   2.957   4.373   3.344 -0.3621  0.0016 -0.0181
11092TIP3    H154691   3.018   4.445   3.357 -0.0893 -0.2094 -0.1047
11092TIP3    H254692   2.997   4.299   3.389 -2.1077  0.6114  2.7206
11093TIP3   OH254693   5.269   5.448  12.995 -0.1121 -0.8403 -0.1209
11093TIP3    H154694   5.210   5.377  12.970 -1.6938  0.1206  0.7239
11093TIP3    H254695   5.217   5.503  13.053  1.5185  0.2630  0.3661
11094TIP3   OH254696   5.443   6.799  12.739 -0.5671 -0.2983 -0.0050
11094TIP3    H154697   5.411   6.745  12.667  0.5662 -0.4489 -0.4196
11094TIP3    H254698   5.396   6.768  12.816 -1.8373 -0.1009 -0.6792
11095TIP3   OH254699   0.156   6.806  13.874  0.0307  0.3544  0.6060
11095TIP3    H154700   0.182   6.721  13.841 -0.7045  0.8125 -1.2469
11095TIP3    H254701   0.062   6.798  13.891 -0.2187  1.0193 -0.3814
11096TIP3   OH254702   1.083   2.540   4.695 -0.4541  0.4646 -0.1248
11096TIP3    H154703   1.113   2.631   4.697 -1.5557  0.8618 -0.6425
11096TIP3    H254704   1.039   2.531   4.610  1.7794 -1.3000 -1.1987
11097TIP3   OH254705   3.188   1.300   2.065  0.4303 -0.1343 -0.3152
11097TIP3    H154706   3.221   1.285   2.153 -2.2083 -1.9618  0.4979
11097TIP3    H254707   3.242   1.243   2.009  0.6333 -0.7457  0.4810
11098TIP3   OH254708   0.048   0.067   5.264 -0.5748  0.2220 -0.0670
11098TIP3    H154709  -0.011   0.079   5.189 -0.3758 -2.3448 -0.7072
11098TIP3    H254710   0.050  -0.027   5.279 -0.8119  0.6436  3.4145
11099TIP3   OH254711   4.704   6.141  16.031  0.6247 -0.6051  0.1352
11099TIP3    H154712   4.651   6.138  16.111 -0.2434  0.3689 -0.3976
11099TIP3    H254713   4.737   6.230  16.027  0.5284 -0.6000 -0.6857
11100TIP3   OH254714   5.715   5.451   5.921  0.5568  0.3888  0.2155
11100TIP3    H154715   5.638   5.425   5.971  0.5324  0.7730  0.3846
11100TIP3    H254716   5.703   5.411   5.835  0.8838 -0.7534  0.6880
11101TIP3   OH254717   0.719   2.932   1.985  0.0236 -0.2498 -0.3105
11101TIP3    H154718   0.666   3.006   1.955 -1.1847 -0.7984  0.3903
11101TIP3    H254719   0.738   2.952   2.077  0.0700 -0.5969 -0.2432
11102TIP3   OH254720   3.569   3.191  15.363 -0.4001 -0.4861  0.0411
11102TIP3    H154721   3.566   3.140  15.282  0.3369 -1.6997  0.7526
11102TIP3    H254722   3.658   3.180  15.396  0.2911  2.4924 -0.5080
11103TIP3   OH254723   2.440   2.435  12.296  0.3031  0.2278  0.0073
11103TIP3    H154724   2.449   2.352  12.343 -1.9584  0.6014  1.2455
11103TIP3    H254725   2.527   2.474  12.300  0.7927 -0.8902  1.7388
11104TIP3   OH254726   1.302   1.307   2.679  0.2440  0.3333  0.0309
11104TIP3    H154727   1.391   1.301   2.712  0.5876 -1.0565 -1.0294
11104TIP3    H254728   1.287   1.401   2.665  0.5366  0.8561  2.7332
11105TIP3   OH254729   2.864   6.599  17.046  0.2261  0.0325  0.7884
11105TIP3    H154730   2.860   6.600  16.950 -0.4418  1.9616  0.8078
11105TIP3    H254731   2.888   6.508  17.067  0.1592 -0.4985 -1.1775
11106TIP3   OH254732   4.596   1.870   0.909 -0.1335  0.0343  0.1569
11106TIP3    H154733   4.613   1.964   0.908 -0.3100  0.0657 -0.1810
11106TIP3    H254734   4.681   1.830   0.895  0.1007  0.1155  1.2744
11107TIP3   OH254735   3.013   6.291  14.321 -0.1308 -0.1113  0.5383
11107TIP3    H154736   3.095   6.319  14.279 -0.5627  1.4081  0.6627
11107TIP3    H254737   3.024   6.316  14.413 -0.8979  0.4721  0.4732
11108TIP3   OH254738   5.994   6.252   3.729 -0.9922 -0.0653 -0.0286
11108TIP3    H154739   6.050   6.184   3.767 -0.5288  0.8319  0.9215
11108TIP3    H254740   5.912   6.206   3.710  0.0318 -1.3944 -1.4456
11109TIP3   OH254741   0.720   0.565  10.805 -0.2791 -0.1359  0.5249
11109TIP3    H154742   0.678   0.522  10.731 -2.0295 -0.1984  1.4973
11109TIP3    H254743   0.714   0.501  10.876 -0.6214  0.7380  1.3002
11110TIP3   OH254744   1.188   2.013  15.829 -0.1285  0.3245  0.9447
11110TIP3    H154745   1.139   2.013  15.911  0.2756  1.4515  1.2062
11110TIP3    H254746   1.262   2.071  15.845 -0.2239  0.8337 -0.3211
11111TIP3   OH254747   6.783   2.433   4.750 -0.8275 -0.0527  0.2530
11111TIP3    H154748   6.755   2.349   4.714  0.7477 -0.6491  0.3446
11111TIP3    H254749   6.732   2.443   4.830 -0.3391 -1.4065  0.7499
11112TIP3   OH254750   5.339   3.118  14.821 -0.3173 -0.5047 -0.0736
11112TIP3    H154751   5.284   3.117  14.899  1.0669 -0.6379  0.9476
11112TIP3    H254752   5.397   3.194  14.834 -0.6044 -0.0401 -1.3749
11113TIP3   OH254753   3.691   2.324  13.700 -0.3473  0.2026  0.2997
11113TIP3    H154754   3.663   2.305  13.610  0.6944  1.0334 -0.2263
11113TIP3    H254755   3.777   2.281  13.708 -0.3907  0.2155  0.8644
11114TIP3   OH254756   6.556   0.391   3.313 -0.3492 -0.4271 -0.4080
11114TIP3    H154757   6.643   0.362   3.341 -0.5655  0.2941  1.0663
11114TIP3    H254758   6.571   0.480   3.279 -0.5717 -0.1607  0.1935
11115TIP3   OH254759   1.953   4.546  16.372  0.6830 -0.5946 -0.0767
11115TIP3    H154760   2.001   4.505  16.300 -1.0785 -1.4450 -0.8398
11115TIP3    H254761   1.871   4.496  16.378 -0.6073  1.4397  0.4052
11116TIP3   OH254762   3.025   0.045  14.259 -0.3092  0.1693  0.0281
11116TIP3    H154763   3.004  -0.042  14.294  0.5956  0.5185  1.5217
11116TIP3    H254764   3.060   0.027  14.171  2.6901 -1.3260  1.3517
11117TIP3   OH254765   6.747   5.612   5.750 -0.0741  0.1248  0.3089
11117TIP3    H154766   6.810   5.625   5.679  0.1966 -1.6383  0.1815
11117TIP3    H254767   6.773   5.529   5.790  0.2180  1.3889  2.9495
11118TIP3   OH254768   6.735   2.420  13.376 -0.3345 -0.1029 -0.6355
11118TIP3    H154769   6.663   2.462  13.423  1.8099  0.3010  2.6463
11118TIP3    H254770   6.761   2.485  13.310 -1.5776  0.6195 -0.4482
11119TIP3   OH254771   1.078   1.444  11.048  0.2584  0.6068 -0.9446
11119TIP3    H154772   1.030   1.400  10.978 -1.5303  0.4052  0.3632
11119TIP3    H254773   1.071   1.385  11.123 -0.8863  2.3721  0.4118
11120TIP3   OH254774   6.479   1.505   4.839  0.2333  0.2607 -0.2991
11120TIP3    H154775   6.502   1.596   4.860  2.6400 -0.5777  1.1438
11120TIP3    H254776   6.463   1.464   4.924  0.5223 -0.9630 -0.8185
11121TIP3   OH254777   4.776   5.145   2.545 -0.1870 -0.5114 -0.3725
11121TIP3    H154778   4.767   5.186   2.458 -0.4683 -1.7324 -0.9421
11121TIP3    H254779   4.700   5.175   2.594  0.4735  0.9673 -0.1959
11122TIP3   OH254780   1.801   5.255  11.337 -0.0141  0.6418  0.1724
11122TIP3    H154781   1.757   5.196  11.276 -1.7115  0.7396  1.2343
11122TIP3    H254782   1.870   5.202  11.376  0.1193  0.1343 -0.7092
11123TIP3   OH254783   4.893   1.357  13.794  0.3128 -0.2136 -0.0397
11123TIP3    H154784   4.929   1.440  13.764 -1.2953  1.0470  1.3586
11123TIP3    H254785   4.813   1.345  13.744 -0.5643  0.1730  1.2270
11124TIP3   OH254786   4.610   3.169   1.398  0.3134 -0.3545 -0.0588
11124TIP3    H154787   4.647   3.230   1.462  0.7889  0.2242 -0.8690
11124TIP3    H254788   4.589   3.090   1.449 -0.3392  0.4864  1.0062
11125TIP3   OH254789   2.240   6.710  17.055  0.1272  0.2575  0.4255
11125TIP3    H154790   2.237   6.770  17.129 -0.3636  0.0751  0.5553
11125TIP3    H254791   2.234   6.623  17.094  0.7621  0.1243  0.2320
11126TIP3   OH254792   5.698   5.620  12.378 -0.1998  0.1359 -0.1092
11126TIP3    H154793   5.749   5.698  12.401 -1.5408  1.2891 -0.8643
11126TIP3    H254794   5.639   5.607  12.452 -1.5916  1.2907 -0.9729
11127TIP3   OH254795   4.041   6.693  11.342  0.0248  0.3019  0.0126
11127TIP3    H154796   3.972   6.653  11.290 -0.2617 -0.1161  0.7049
11127TIP3    H254797   4.111   6.628  11.342 -0.7247 -0.5497  1.7555
11128TIP3   OH254798   3.675   0.542   5.420  0.0778 -0.2698  0.1944
11128TIP3    H154799   3.752   0.491   5.396  1.5571  1.5209  0.8588
11128TIP3    H254800   3.659   0.599   5.345 -0.4164 -0.4061  0.1885
11129TIP3   OH254801   2.395   6.599  13.772 -0.5273 -0.1076  0.4029
11129TIP3    H154802   2.377   6.507  13.792  0.0515 -0.1768  0.6221
11129TIP3    H254803   2.422   6.637  13.856 -2.2952  0.6594  0.6713
11130TIP3   OH254804   0.935   2.421  13.896  0.3186  0.2665  0.0431
11130TIP3    H154805   0.978   2.505  13.911  0.0534  0.2830  0.7559
11130TIP3    H254806   1.005   2.356  13.909  0.2315  0.3147  0.7911
11131TIP3   OH254807   0.701   2.947   6.371  0.3127 -0.1749  0.2321
11131TIP3    H154808   0.642   2.875   6.347  0.7853  0.3906 -3.1033
11131TIP3    H254809   0.788   2.918   6.342  0.7023  1.2123 -0.0694
11132TIP3   OH254810   1.975   2.856   5.489 -0.8272 -0.0708 -0.2212
11132TIP3    H154811   1.994   2.762   5.495 -1.2722 -0.1098  0.5484
11132TIP3    H254812   1.962   2.884   5.579  1.8166  1.2664 -0.1488
11133TIP3   OH254813   3.930   0.124   6.296 -0.0341 -0.4215  0.1514
11133TIP3    H154814   3.987   0.138   6.372 -0.1639  0.6422  0.0638
11133TIP3    H254815   3.865   0.061   6.326  1.7125 -2.4370 -0.0301
11134TIP3   OH254816   4.165   6.306  15.864  0.2849 -0.5460 -0.2769
11134TIP3    H154817   4.113   6.238  15.819  0.5190  0.0412 -1.4782
11134TIP3    H254818   4.252   6.300  15.823  0.3514  0.3602 -0.2861
11135TIP3   OH254819   4.889   1.838   3.458 -0.1961 -0.3474 -0.4407
11135TIP3    H154820   4.931   1.889   3.528 -0.3307 -1.2609  0.3174
11135TIP3    H254821   4.951   1.843   3.385 -1.1363  2.7020 -1.2001
11136TIP3   OH254822   5.495   0.402  10.984 -0.2861 -0.2100 -0.1724
11136TIP3    H154823   5.547   0.329  11.017 -0.8236 -0.4540  0.1303
11136TIP3    H254824   5.472   0.377  10.895 -1.2760 -0.8411  0.2515
11137TIP3   OH254825   1.647   4.175  11.351  0.5857  0.2812 -0.4703
11137TIP3    H154826   1.716   4.224  11.398  0.3321  0.7864 -0.6162
11137TIP3    H254827   1.672   4.183  11.259  2.8300 -3.3155 -0.3555
11138TIP3   OH254828   5.540   0.055  15.046  0.1104 -0.1637  0.4760
11138TIP3    H154829   5.518   0.104  15.126  2.3484  0.5009  0.7349
11138TIP3    H254830   5.605  -0.009  15.075  1.6234  0.6773 -0.9613
11139TIP3   OH254831   2.266   4.171   0.678 -0.4224  0.2129 -0.3573
11139TIP3    H154832   2.281   4.109   0.607  1.0025  0.4547 -0.2868
11139TIP3    H254833   2.336   4.235   0.669 -0.5214  0.5255  0.9646
11140TIP3   OH254834   0.103   1.559   6.358 -0.2697  0.0507 -0.3829
11140TIP3    H154835   0.058   1.641   6.336 -1.8827 -0.3106  1.3607
11140TIP3    H254836   0.087   1.503   6.282 -2.1951  0.1988 -0.1455
11141TIP3   OH254837   1.794   1.557   1.265  0.5308  0.0074 -0.2525
11141TIP3    H154838   1.831   1.490   1.208  0.7063  0.5312 -0.7731
11141TIP3    H254839   1.848   1.635   1.250  1.8311 -0.3585  2.1183
11142TIP3   OH254840   6.638   3.622   6.013  0.4552 -0.3107  0.1579
11142TIP3    H154841   6.683   3.544   6.043 -0.5976 -1.0785 -0.1955
11142TIP3    H254842   6.548   3.611   6.044 -0.0987 -0.0258 -1.2728
11143TIP3   OH254843   2.920   1.334   2.609  0.4607  0.5361 -0.5004
11143TIP3    H154844   2.985   1.270   2.580 -1.5858 -1.3040 -1.2953
11143TIP3    H254845   2.860   1.284   2.664 -0.4676  2.0964 -0.0340
11144TIP3   OH254846   2.271   4.406  12.313  0.2617 -0.1201  0.1020
11144TIP3    H154847   2.221   4.325  12.328  0.2967 -0.0556  0.5850
11144TIP3    H254848   2.349   4.377  12.265  1.1487 -0.6547  1.7984
11145TIP3   OH254849   4.553   2.036  11.649  0.8200  0.1609  0.0029
11145TIP3    H154850   4.502   2.114  11.670 -0.5496 -0.5949 -0.3454
11145TIP3    H254851   4.642   2.057  11.676  0.3825  1.6372  0.3959
11146TIP3   OH254852   2.077   5.531   5.669  0.4752  0.6155 -0.4032
11146TIP3    H154853   2.130   5.451   5.664 -1.3147 -0.5760 -1.2206
11146TIP3    H254854   2.012   5.513   5.737 -0.0766  1.2872 -0.7400
11147TIP3   OH254855   6.559   3.264   2.688  0.3460  0.0749 -0.2730
11147TIP3    H154856   6.625   3.300   2.628  1.6090 -0.3566  0.7948
11147TIP3    H254857   6.511   3.341   2.719  1.6394  0.6521  0.3899
11148TIP3   OH254858   0.580   2.418  14.687  0.0609  0.1907  0.9344
11148TIP3    H154859   0.511   2.353  14.674  0.1440  0.0145  1.3782
11148TIP3    H254860   0.563   2.484  14.619  0.9600 -1.1019 -0.5929
11149TIP3   OH254861   6.068   3.998  16.746  0.3733 -0.1307 -0.1282
11149TIP3    H154862   6.123   4.070  16.777  2.6598 -1.5372 -0.6486
11149TIP3    H254863   6.078   3.930  16.813 -0.4026 -0.5727 -0.4486
11150TIP3   OH254864   0.240   0.329  11.900  0.2971 -0.1636  0.3636
11150TIP3    H154865   0.314   0.361  11.849 -0.3158  1.5137  0.4499
11150TIP3    H254866   0.178   0.403  11.901 -1.1221 -1.3032  0.7776
11151TIP3   OH254867   6.084   6.733  13.398  0.1554  0.4292 -0.1995
11151TIP3    H154868   6.127   6.783  13.329  0.3414 -0.2978 -0.6179
11151TIP3    H254869   6.110   6.643  13.382  0.1731  0.2468  0.8039
11152TIP3   OH254870   4.777   4.068   1.467 -0.1003 -0.8003  0.2503
11152TIP3    H154871   4.794   4.102   1.379  0.0887 -0.2486  0.4954
11152TIP3    H254872   4.682   4.065   1.474 -0.1187 -0.2817  0.2371
11153TIP3   OH254873   0.782   0.253  11.804  0.3404  0.0818 -0.4083
11153TIP3    H154874   0.725   0.274  11.730  1.3709 -0.2294 -1.3179
11153TIP3    H254875   0.753   0.312  11.873 -1.5536 -0.5544 -0.5822
11154TIP3   OH254876   5.549   3.892  14.918 -0.5328  0.6010 -0.2847
11154TIP3    H154877   5.516   3.899  15.007 -1.4080  0.7733 -0.6076
11154TIP3    H254878   5.485   3.940  14.865 -0.4537 -0.1710 -1.1027
11155TIP3   OH254879   0.528   4.198   3.528  0.4884  0.1008 -0.3870
11155TIP3    H154880   0.477   4.127   3.568  1.3032 -0.3228 -0.0888
11155TIP3    H254881   0.468   4.273   3.527 -0.7940 -0.8864 -1.7959
11156TIP3   OH254882   6.329   2.361  15.576  0.4357 -0.1377  0.2804
11156TIP3    H154883   6.322   2.401  15.490 -1.2595 -0.6112  0.1754
11156TIP3    H254884   6.406   2.403  15.616 -0.2498  1.9375 -0.4772
11157TIP3   OH254885   0.546   6.229   5.830  0.5782 -0.8163 -0.2553
11157TIP3    H154886   0.521   6.313   5.867  0.0190 -0.9249 -0.3833
11157TIP3    H254887   0.614   6.197   5.889  0.7756 -0.2900 -0.1935
11158TIP3   OH254888   6.362   3.592   6.051 -0.2205  0.6225 -0.0111
11158TIP3    H154889   6.347   3.681   6.082  0.5758  0.6024  0.4718
11158TIP3    H254890   6.276   3.562   6.021 -0.2980  1.9163 -1.1769
11159TIP3   OH254891   5.324   2.292   0.675  0.6250 -0.0414  0.1581
11159TIP3    H154892   5.307   2.350   0.600 -1.9557  0.5886  1.1460
11159TIP3    H254893   5.284   2.209   0.651  0.8228 -0.2076  0.3905
11160TIP3   OH254894   0.005   0.205  13.716  0.0215  0.0049  0.6028
11160TIP3    H154895  -0.051   0.134  13.748 -1.1855  1.5137  2.0582
11160TIP3    H254896  -0.057   0.270  13.681  0.9205  1.1699  1.1003
11161TIP3   OH254897   5.360   3.215   1.244  0.4408  0.4273  0.3847
11161TIP3    H154898   5.411   3.252   1.316 -0.0076  0.8687  0.4763
11161TIP3    H254899   5.305   3.149   1.285 -0.5933  1.4161  0.6317
11162TIP3   OH254900   5.801   3.731   2.648  0.0245  0.1291 -0.1251
11162TIP3    H154901   5.764   3.742   2.560 -1.0061  1.4890  0.4337
11162TIP3    H254902   5.764   3.648   2.679  0.4546 -0.3994 -0.9797
11163TIP3   OH254903   0.733   1.553  11.435  0.0586 -0.1935 -0.0502
11163TIP3    H154904   0.823   1.521  11.434  0.5724  1.1611 -1.3010
11163TIP3    H254905   0.729   1.613  11.509 -0.0201 -0.8035  0.4379
11164TIP3   OH254906   0.893   1.340  14.575 -0.3067 -0.4574 -0.2548
11164TIP3    H154907   0.923   1.427  14.550  1.5877  0.1712  3.4937
11164TIP3    H254908   0.955   1.280  14.534  1.5402  0.3763  1.1781
11165TIP3   OH254909   5.160   1.833  16.657  0.5733  0.4973  0.0694
11165TIP3    H154910   5.102   1.910  16.653  2.5411  2.1001  0.4601
11165TIP3    H254911   5.230   1.855  16.596  2.5241  0.2222  2.1180
11166TIP3   OH254912   1.799   1.096  11.985  0.5739  0.8683  0.4608
11166TIP3    H154913   1.752   1.060  12.061 -0.3048 -0.9412 -0.8718
11166TIP3    H254914   1.890   1.071  11.999  0.3360  0.0982  0.6669
11167TIP3   OH254915   2.450   3.491  12.681 -0.5168  0.4753  0.3490
11167TIP3    H154916   2.528   3.438  12.664 -1.1719 -0.9724  1.5886
11167TIP3    H254917   2.379   3.444  12.637 -1.0888  0.4088  1.3303
11168TIP3   OH254918   0.076   1.558   2.484 -0.0394 -0.0844 -0.0917
11168TIP3    H154919   0.158   1.601   2.461  0.3801 -0.9561 -0.2633
11168TIP3    H254920   0.009   1.609   2.439  0.4983  0.0368 -0.7783
11169TIP3   OH254921   3.616   0.247   4.441  0.1902 -0.1365 -0.3347
11169TIP3    H154922   3.654   0.290   4.364  3.1382  0.3762  1.2405
11169TIP3    H254923   3.687   0.191   4.474 -1.6399 -1.8286  0.9249
11170TIP3   OH254924   6.507   6.597   2.662 -0.1187 -0.0620 -0.0914
11170TIP3    H154925   6.564   6.635   2.729 -1.7325  0.0740  1.2584
11170TIP3    H254926   6.503   6.664   2.593  0.8392  0.1766  0.0707
11171TIP3   OH254927   1.618   6.083   0.594 -0.5549 -0.5984 -0.0769
11171TIP3    H154928   1.553   6.021   0.627 -0.7987 -0.6642 -0.6648
11171TIP3    H254929   1.675   6.031   0.539 -1.5257 -0.0943 -1.6268
11172TIP3   OH254930   4.540   1.242  12.076 -0.3258 -0.7969 -0.1192
11172TIP3    H154931   4.533   1.278  12.164 -1.0204 -0.5253 -0.2786
11172TIP3    H254932   4.606   1.297  12.033 -0.7925 -0.2243 -0.1099
11173TIP3   OH254933   0.407   0.587  12.030 -0.3110  0.1961 -0.1676
11173TIP3    H154934   0.317   0.606  12.055 -0.6794 -2.8521  1.2368
11173TIP3    H254935   0.402   0.566  11.937 -1.8629 -3.4405  0.5674
11174TIP3   OH254936   4.613   2.472   0.007  0.9011  0.8634 -0.2831
11174TIP3    H154937   4.550   2.432  -0.053  0.8799  0.1075  0.2408
11174TIP3    H254938   4.638   2.554  -0.037  1.7820 -0.2142 -1.9020
11175TIP3   OH254939   4.838   0.315   3.042 -0.0252 -0.3391 -0.5957
11175TIP3    H154940   4.780   0.255   3.089  1.2199  0.5861  2.3607
11175TIP3    H254941   4.778   0.372   2.994 -1.4753 -1.0048  0.3362
11176TIP3   OH254942   2.317   6.593  12.156  0.1740  0.6942 -0.3871
11176TIP3    H154943   2.379   6.523  12.135  0.9061  1.2964 -0.2510
11176TIP3    H254944   2.245   6.548  12.202  0.8697  0.1072  0.1455
11177TIP3   OH254945   0.126   2.391   0.630 -0.4828  0.0145  0.2117
11177TIP3    H154946   0.133   2.370   0.724  0.5524 -0.6321  0.0046
11177TIP3    H254947   0.039   2.430   0.621 -0.1364  1.2376  1.6624
11178TIP3   OH254948   0.413   4.042   1.865 -0.6569 -1.0144  0.1299
11178TIP3    H154949   0.501   4.063   1.834 -0.3615 -0.6989  1.1465
11178TIP3    H254950   0.388   3.963   1.816 -1.4017  1.0408 -3.0709
11179TIP3   OH254951   2.428   0.932  12.212  0.3791 -0.4844  0.5188
11179TIP3    H154952   2.492   0.993  12.249  0.3425  0.6595 -1.2033
11179TIP3    H254953   2.433   0.947  12.117 -2.8869  0.1242  0.3398
11180TIP3   OH254954   2.462   4.869   5.685  0.7115 -0.6148 -0.0349
11180TIP3    H154955   2.385   4.900   5.731 -0.1053 -0.7571 -1.2718
11180TIP3    H254956   2.520   4.945   5.680 -1.1604  0.7577 -2.8239
11181TIP3   OH254957   6.223   3.017   4.243  0.2496  0.4384  0.2244
11181TIP3    H154958   6.254   3.106   4.225 -0.5333  0.4287 -1.2984
11181TIP3    H254959   6.142   3.030   4.293 -1.0290  0.6824 -1.8293
11182TIP3   OH254960   0.455   3.560  10.753 -0.4221  0.6034  0.5280
11182TIP3    H154961   0.523   3.504  10.791 -0.0085  1.1716  0.6334
11182TIP3    H254962   0.469   3.554  10.659 -1.0165 -0.2639  0.4818
11183TIP3   OH254963   0.386   4.287  13.998 -0.4788 -0.7398 -0.5372
11183TIP3    H154964   0.405   4.197  13.971  0.8849  0.0978 -2.5794
11183TIP3    H254965   0.448   4.304  14.068  0.1159 -1.0010 -0.9928
11184TIP3   OH254966   5.497   5.128  17.055 -0.2984 -0.2634  0.2081
11184TIP3    H154967   5.490   5.213  17.098  1.2430  0.5635 -1.0455
11184TIP3    H254968   5.481   5.064  17.124  0.3584  1.0284  1.6082
11185TIP3   OH254969   5.041   0.012  14.968 -0.6861 -0.0830 -0.4931
11185TIP3    H154970   5.116  -0.041  14.941 -0.6907 -0.1771 -0.3287
11185TIP3    H254971   5.068   0.050  15.052  0.1325  1.8855 -1.5955
11186TIP3   OH254972   1.783   2.403  12.063  0.3302  0.0769 -0.1182
11186TIP3    H154973   1.863   2.366  12.025  1.0392 -1.2676  2.4633
11186TIP3    H254974   1.814   2.464  12.130 -0.7911 -0.4214  0.8833
11187TIP3   OH254975   3.984   0.526  15.758  0.2542  0.3715 -0.1385
11187TIP3    H154976   4.075   0.530  15.790 -0.1617 -1.8631  1.5619
11187TIP3    H254977   3.993   0.502  15.666  1.4293 -1.1708  0.3227
11188TIP3   OH254978   4.063   5.971   0.137 -0.3230 -0.1916 -0.0259
11188TIP3    H154979   3.998   6.000   0.072  0.2597 -0.7240 -0.8653
11188TIP3    H254980   4.058   5.876   0.134 -0.0756 -0.2199  0.4903
11189TIP3   OH254981   5.060   6.780   1.773 -0.3938 -0.1840  0.0968
11189TIP3    H154982   5.135   6.733   1.736 -1.2316 -1.6686  0.2332
11189TIP3    H254983   4.991   6.773   1.707 -1.3296 -1.3178  1.1432
11190TIP3   OH254984   2.895   2.899  15.785  0.5642  0.3512  0.3211
11190TIP3    H154985   2.957   2.843  15.740 -0.4690  0.2686 -1.0656
11190TIP3    H254986   2.819   2.843  15.802  0.0765  0.9585  0.1945
11191TIP3   OH254987   2.475   6.164  16.738 -0.1327 -0.4565  0.0868
11191TIP3    H154988   2.528   6.244  16.736 -0.9787  0.1502 -2.0800
11191TIP3    H254989   2.492   6.124  16.653 -2.2933 -0.7893 -0.2262
11192TIP3   OH254990   6.157   0.168  11.342 -0.3459 -0.6861 -0.0204
11192TIP3    H154991   6.198   0.156  11.428  0.6011  0.3670 -0.2966
11192TIP3    H254992   6.071   0.205  11.360 -0.5263 -1.3383  0.4988
11193TIP3   OH254993   6.264   5.320   2.771  0.1565 -0.2257  0.5695
11193TIP3    H154994   6.253   5.353   2.682  1.1720 -1.6849 -0.1315
11193TIP3    H254995   6.269   5.225   2.761 -0.2303 -0.4496  2.2457
11194TIP3   OH254996   2.260   0.271  14.510  0.1408  0.0347 -0.1122
11194TIP3    H154997   2.261   0.367  14.502 -0.7289  0.1352  0.8175
11194TIP3    H254998   2.176   0.245  14.473 -0.3409 -0.2160  1.1341
11195TIP3   OH254999   2.625   3.506   1.228 -0.1069 -0.2402  0.1037
11195TIP3    H155000   2.705   3.500   1.176  0.4425 -0.9154  0.9915
11195TIP3    H255001   2.653   3.540   1.312 -1.1119  1.6044 -0.2649
11196TIP3   OH255002   5.416   1.995  13.959  0.3670  0.4706 -0.0436
11196TIP3    H155003   5.332   1.967  13.995  0.2388 -1.1492 -1.4564
11196TIP3    H255004   5.479   1.978  14.029 -0.4225  1.5188  0.9569
11197TIP3   OH255005   2.357   4.898  12.379  0.6551 -0.0988  0.8468
11197TIP3    H155006   2.399   4.865  12.300  1.6951 -1.5091  1.9276
11197TIP3    H255007   2.342   4.991  12.362  1.3691 -0.2546 -0.7666
11198TIP3   OH255008   4.712   4.641   6.044 -0.3921 -0.2135 -0.0674
11198TIP3    H155009   4.659   4.583   5.989 -0.2909  0.3182 -0.7372
11198TIP3    H255010   4.708   4.726   6.000  2.4732 -0.5349 -1.1831
11199TIP3   OH255011   2.654   4.745   3.749 -0.0540 -0.6238 -0.7707
11199TIP3    H155012   2.745   4.717   3.751  0.5710  0.8806  4.0647
11199TIP3    H255013   2.607   4.671   3.710  2.9239 -2.4074 -1.3084
11200TIP3   OH255014   6.694   6.436   5.632 -0.3445  0.1668 -0.6664
11200TIP3    H155015   6.748   6.472   5.702  1.6523 -0.6956 -1.6827
11200TIP3    H255016   6.674   6.347   5.659  0.4402 -0.1724 -1.1582
11201TIP3   OH255017   6.715   2.002  11.033 -0.1849  0.2137 -0.5129
11201TIP3    H155018   6.682   1.934  11.092  1.9160 -0.1692  0.3163
11201TIP3    H255019   6.704   1.966  10.945  0.7073 -1.1571 -0.0990
11202TIP3   OH255020   2.845   1.769  14.566 -0.1200  0.1898 -0.1415
11202TIP3    H155021   2.912   1.832  14.594 -0.4237  0.6966 -0.5304
11202TIP3    H255022   2.779   1.771  14.635 -0.2941  0.5564 -0.3168
11203TIP3   OH255023   6.101   3.390   4.740  0.1602 -0.0047  0.1883
11203TIP3    H155024   6.087   3.295   4.745  0.8055 -0.1166 -0.0356
11203TIP3    H255025   6.141   3.413   4.824 -0.3958  0.1418  0.4144
11204TIP3   OH255026   5.896   4.010   2.488  0.4612  0.0081 -0.2427
11204TIP3    H155027   5.921   4.073   2.421  0.1498 -0.4019 -0.7515
11204TIP3    H255028   5.972   4.006   2.547  0.3070  1.1927  0.0687
11205TIP3   OH255029   6.615   6.202  15.767 -0.0118  0.2304 -0.8001
11205TIP3    H155030   6.580   6.261  15.834  0.3823  1.4482 -1.6315
11205TIP3    H255031   6.548   6.135  15.757 -1.6156  1.8426 -1.5257
11206TIP3   OH255032   4.184   0.076   2.890  0.1411 -0.8634  0.6415
11206TIP3    H155033   4.155   0.154   2.937  0.6252 -0.3515  0.1058
11206TIP3    H255034   4.119   0.009   2.913 -1.0951  0.0731 -0.0100
11207TIP3   OH255035   4.554   5.922  14.721 -0.1097 -0.3961 -0.0611
11207TIP3    H155036   4.615   5.850  14.712  1.6560  1.1499 -1.0825
11207TIP3    H255037   4.606   5.994  14.757 -1.7841  0.4421  0.8575
11208TIP3   OH255038   5.777   0.074   3.903  0.4041 -0.1944  0.1386
11208TIP3    H155039   5.733   0.018   3.967 -0.6562  0.9424  0.4285
11208TIP3    H255040   5.720   0.071   3.826  0.5828  0.1246 -0.0061
11209TIP3   OH255041   4.842   3.929  11.284  0.4658  0.1640  0.1685
11209TIP3    H155042   4.824   3.996  11.219  2.3435  0.5180 -0.0395
11209TIP3    H255043   4.789   3.854  11.256  0.5014  0.6304 -1.2196
11210TIP3   OH255044   1.529   3.454   0.319 -0.1117  1.0522 -0.1121
11210TIP3    H155045   1.573   3.373   0.294 -1.0891 -0.1270  1.7395
11210TIP3    H255046   1.480   3.480   0.240 -0.4788 -0.6585 -0.4932
11211TIP3   OH255047   5.601   3.797   6.484  0.3993  1.0413 -0.2367
11211TIP3    H155048   5.613   3.881   6.439 -1.0845  0.6361 -1.5049
11211TIP3    H255049   5.544   3.817   6.558  0.8831  1.3062  0.0709
11212TIP3   OH255050   5.425   5.897   2.609 -0.6750 -0.2129 -0.4818
11212TIP3    H155051   5.379   5.981   2.608  0.6865  0.5532 -0.3787
11212TIP3    H255052   5.399   5.857   2.693 -0.4757  0.5923 -0.0324
11213TIP3   OH255053   1.218   5.337  10.912  0.1537 -0.4433 -0.1512
11213TIP3    H155054   1.197   5.370  10.999  0.5745  0.2931 -0.3213
11213TIP3    H255055   1.169   5.394  10.852  1.0515  0.0278 -0.4563
11214TIP3   OH255056   0.640   5.336   3.153 -0.0866 -0.1780  0.2341
11214TIP3    H155057   0.687   5.355   3.234  0.7576 -0.7532 -0.1009
11214TIP3    H255058   0.638   5.419   3.106 -1.8622  0.5264  1.4443
11215TIP3   OH255059   3.730   1.291   5.264  0.2250  0.1146  0.1419
11215TIP3    H155060   3.798   1.249   5.317 -1.3681 -2.5468  0.2908
11215TIP3    H255061   3.659   1.309   5.325 -0.1322  0.6308 -0.4141
11216TIP3   OH255062   4.364   5.059   0.420  0.7030 -0.0124  0.9387
11216TIP3    H155063   4.369   4.966   0.441  1.5308  0.1479  1.4988
11216TIP3    H255064   4.297   5.065   0.352  0.9172 -1.0610  0.6204
11217TIP3   OH255065   5.342   3.580  11.493  0.6384  0.3411 -0.1891
11217TIP3    H155066   5.296   3.509  11.448  1.3009  0.2740 -0.7809
11217TIP3    H255067   5.432   3.574  11.461  0.3922  2.3871 -1.4327
11218TIP3   OH255068   4.074   0.136   1.878  0.0297  0.2542  0.5602
11218TIP3    H155069   4.124   0.093   1.948 -0.4049  1.1165  1.4339
11218TIP3    H255070   4.007   0.072   1.853 -0.2454  0.1795  1.4363
11219TIP3   OH255071   4.520   3.043  16.784 -0.1406 -0.9704  0.3190
11219TIP3    H155072   4.551   3.003  16.703  0.0310 -1.5244  0.6544
11219TIP3    H255073   4.591   3.030  16.846  0.9190  1.9024 -0.1423
11220TIP3   OH255074   6.802   4.861  13.450 -0.1760  0.4562 -0.1379
11220TIP3    H155075   6.781   4.842  13.542  0.5384 -1.4996 -0.3295
11220TIP3    H255076   6.896   4.848  13.444 -0.4112 -0.8863 -1.4383
11221TIP3   OH255077   5.950   3.179  15.031  0.4997  0.3496 -0.5218
11221TIP3    H155078   6.045   3.189  15.027  0.6341 -0.6270 -0.1443
11221TIP3    H255079   5.933   3.095  14.988 -0.3069  0.9915 -1.5152
11222TIP3   OH255080   6.208   2.273   2.466  0.0396 -0.3142  0.7218
11222TIP3    H155081   6.296   2.259   2.429 -0.0131 -0.6631  0.7245
11222TIP3    H255082   6.152   2.286   2.390  0.6746  3.7621  0.7251
11223TIP3   OH255083   1.263   3.472   3.214  0.0408  0.2690  0.0350
11223TIP3    H155084   1.326   3.495   3.146  0.7990 -1.8915 -0.0775
11223TIP3    H255085   1.299   3.510   3.294 -0.4824  2.2052 -0.5983
11224TIP3   OH255086   2.300   3.576  13.531  0.0637  0.2902  0.0507
11224TIP3    H155087   2.331   3.495  13.571  2.4885 -0.0165 -2.1643
11224TIP3    H255088   2.359   3.644  13.564 -0.4048  0.7384 -0.0101
11225TIP3   OH255089   5.520   2.233  15.885 -0.2020 -0.4012  0.4885
11225TIP3    H155090   5.598   2.232  15.939  0.2607  1.4861 -0.0781
11225TIP3    H255091   5.468   2.306  15.919 -0.7631 -0.3590 -0.4244
11226TIP3   OH255092   0.936   2.199  15.435 -0.3184 -0.1560  0.7294
11226TIP3    H155093   1.015   2.202  15.488 -1.4596 -0.7607  2.5751
11226TIP3    H255094   0.885   2.275  15.464 -0.3064  0.4416 -0.6980
11227TIP3   OH255095   1.353   4.613  14.540 -0.1782 -0.4180 -0.2404
11227TIP3    H155096   1.308   4.610  14.456  0.3569 -0.8704 -0.5201
11227TIP3    H255097   1.293   4.660  14.598 -1.5536 -2.0486 -0.2704
11228TIP3   OH255098   0.114   2.874  14.962 -0.2308  0.5678  0.9428
11228TIP3    H155099   0.138   2.781  14.957 -0.5336  0.5077  0.5955
11228TIP3    H255100   0.051   2.879  15.034 -2.3434  0.0332 -0.7704
11229TIP3   OH255101   4.609   3.634   0.427  0.3318  0.4901  0.3440
11229TIP3    H155102   4.658   3.671   0.353 -1.0648  2.1296  0.1763
11229TIP3    H255103   4.601   3.707   0.489 -0.7702 -0.1156  0.9444
11230TIP3   OH255104   6.278   3.156  14.030 -0.3439 -0.3470 -0.1946
11230TIP3    H155105   6.320   3.077  14.062 -1.0107 -0.4556  0.4327
11230TIP3    H255106   6.351   3.214  14.006  0.2016 -0.2429  1.5645
11231TIP3   OH255107   3.208   1.070   3.332 -0.4697 -0.1480  0.2403
11231TIP3    H155108   3.257   1.125   3.271 -0.1785 -0.5863  0.0653
11231TIP3    H255109   3.150   1.130   3.379 -1.5251  0.0762 -1.2602
11232TIP3   OH255110   0.561   0.795   5.049 -0.4627 -0.5581  0.1370
11232TIP3    H155111   0.615   0.783   4.971  0.5767  1.8817  0.4024
11232TIP3    H255112   0.570   0.887   5.071 -1.0535 -1.0691  2.9291
11233TIP3   OH255113   2.258   2.486  16.602 -0.3014  0.3282  0.4971
11233TIP3    H155114   2.185   2.547  16.617  0.2287  1.2937 -0.7295
11233TIP3    H255115   2.329   2.520  16.656 -0.3649  0.0973  0.7295
11234TIP3   OH255116   2.090   3.360   4.422  0.1554 -0.3579  0.0203
11234TIP3    H155117   2.083   3.455   4.411  0.0557 -0.4953 -1.3198
11234TIP3    H255118   2.034   3.340   4.497  0.4584  0.6777  0.5426
11235TIP3   OH255119   2.993   4.709  15.728 -0.1421  0.0724  0.4956
11235TIP3    H155120   3.040   4.786  15.696 -1.2032  0.4209 -0.2540
11235TIP3    H255121   2.991   4.721  15.823 -0.5159  1.1221  0.3788
11236TIP3   OH255122   1.976   5.526   2.873 -0.0886  0.8988  0.7385
11236TIP3    H155123   1.959   5.612   2.911 -0.2331  0.4482  1.7169
11236TIP3    H255124   1.973   5.465   2.947  2.4355  0.3487  0.4837
11237TIP3   OH255125   0.902   2.058   4.171 -0.2743  0.5307  0.2830
11237TIP3    H155126   0.937   2.140   4.205 -0.6985  0.7941  0.0974
11237TIP3    H255127   0.820   2.083   4.128  0.7450  0.4052 -1.8755
11238TIP3   OH255128   2.677   6.239  14.941 -0.3902  0.6935  0.0685
11238TIP3    H155129   2.676   6.255  14.847  1.8429  1.1853  0.0704
11238TIP3    H255130   2.735   6.307  14.976 -1.0478  0.4245  1.7945
11239TIP3   OH255131   0.881   1.099  10.938  0.0678 -0.1250  0.5031
11239TIP3    H155132   0.947   1.076  10.872  0.6340 -1.0725  1.3699
11239TIP3    H255133   0.840   1.179  10.904 -0.0155 -0.8588 -1.2514
11240TIP3   OH255134   3.599   1.870  12.871 -0.5884  0.4139  0.3275
11240TIP3    H155135   3.576   1.802  12.934 -0.8537 -0.5729 -0.7896
11240TIP3    H255136   3.663   1.925  12.917  0.1184 -0.9574  1.0551
11241TIP3   OH255137   4.471   3.979  16.510 -0.4728  0.0674  0.2548
11241TIP3    H155138   4.448   3.916  16.578 -1.2244  0.4442  0.3550
11241TIP3    H255139   4.388   4.001  16.468 -0.4392  2.0796  1.1540
11242TIP3   OH255140   1.556   0.455   1.514 -0.0336  0.4847  0.6474
11242TIP3    H155141   1.589   0.502   1.437 -2.9639  0.0950 -1.0059
11242TIP3    H255142   1.558   0.520   1.584  0.9898  1.4149 -0.1901
11243TIP3   OH255143   3.710   4.610  12.902  1.0938  0.3952  0.7352
11243TIP3    H155144   3.617   4.594  12.918  1.1624 -0.5986  0.2045
11243TIP3    H255145   3.749   4.609  12.989  0.7330 -0.0361  0.8981
11244TIP3   OH255146   0.999   3.144   5.329 -0.1716  0.0232  0.0232
11244TIP3    H155147   1.040   3.216   5.281  1.4706 -0.8469  0.0336
11244TIP3    H255148   1.044   3.144   5.414  0.1421 -1.2355 -0.1239
11245TIP3   OH255149   0.349   2.615   4.136 -0.7974 -0.1103  0.2428
11245TIP3    H155150   0.339   2.695   4.084  2.5826  0.4532  0.2579
11245TIP3    H255151   0.273   2.616   4.194 -1.6739  2.2819 -0.7717
11246TIP3   OH255152   0.817   5.560   2.785 -0.3995  0.3400 -0.2238
11246TIP3    H155153   0.797   5.642   2.741 -0.7981  0.6004  0.4117
11246TIP3    H255154   0.807   5.493   2.718  0.9002  0.8987 -0.9893
11247TIP3   OH255155   2.061   2.197   3.543  0.4492  0.2794 -0.3988
11247TIP3    H155156   2.037   2.285   3.513  0.3572  1.4251  2.6476
11247TIP3    H255157   1.982   2.164   3.587  1.4243  0.0703  1.3089
11248TIP3   OH255158   5.010   3.265   3.519  0.1243 -0.1014  0.3665
11248TIP3    H155159   5.062   3.194   3.481 -0.0045  0.1002 -0.1989
11248TIP3    H255160   5.048   3.279   3.605 -0.2414 -1.2803  0.7437
11249TIP3   OH255161   3.715   3.118   3.901  0.4478  0.0867 -0.1508
11249TIP3    H155162   3.650   3.186   3.918 -0.9779 -1.1399 -0.4957
11249TIP3    H255163   3.784   3.163   3.853  0.3384  1.6329  1.0372
11250TIP3   OH255164   5.950   6.435  13.860  0.2211 -0.4002  0.1139
11250TIP3    H155165   6.010   6.485  13.916  0.8096  1.2215 -1.8534
11250TIP3    H255166   6.005   6.369  13.819  1.0177  1.6235 -2.3519
11251TIP3   OH255167   5.764   3.196   3.571  0.7752 -0.3149 -0.0214
11251TIP3    H155168   5.848   3.239   3.552  0.5842 -0.1402 -0.4870
11251TIP3    H255169   5.786   3.129   3.636  1.1418  0.2409  0.4382
11252TIP3   OH255170   6.452   4.339   3.977  0.0800  0.1253  0.5788
11252TIP3    H155171   6.357   4.339   3.963  0.1706 -0.5798 -0.0847
11252TIP3    H255172   6.482   4.254   3.945  0.9519  0.3690  0.7070
11253TIP3   OH255173   6.198   1.847  13.094 -0.1691 -0.4955 -0.3912
11253TIP3    H155174   6.144   1.926  13.089  1.4483  0.6682 -0.3832
11253TIP3    H255175   6.233   1.836  13.006  1.4965  0.2455  0.1215
11254TIP3   OH255176   5.906   5.231   0.358  0.2182 -0.2761 -0.3303
11254TIP3    H155177   5.995   5.226   0.394  0.5059  1.0874 -0.7647
11254TIP3    H255178   5.868   5.145   0.375  1.0993 -0.3971  1.1997
11255TIP3   OH255179   3.233   1.351  12.751 -0.1161 -0.1785  0.6808
11255TIP3    H155180   3.242   1.388  12.839 -0.6304  0.3920  0.4994
11255TIP3    H255181   3.155   1.394  12.715  0.8529  0.5827 -0.5609
11256TIP3   OH255182   0.469   4.507   3.776 -0.0105 -0.4033 -0.8026
11256TIP3    H155183   0.415   4.578   3.809 -0.8881 -1.2239 -0.4015
11256TIP3    H255184   0.548   4.549   3.743  0.3118  0.5976  1.0998
11257TIP3   OH255185   1.867   6.764   2.656  0.3830 -0.6614 -0.2091
11257TIP3    H155186   1.923   6.689   2.639  0.6957 -0.5563  0.3236
11257TIP3    H255187   1.847   6.759   2.749  1.0685  0.3469  0.0182
11258TIP3   OH255188   4.748   3.231   1.175 -0.6618  0.2350 -0.4421
11258TIP3    H155189   4.720   3.173   1.246  0.4850  0.9156  0.6108
11258TIP3    H255190   4.667   3.268   1.141 -1.2838 -0.6405  0.0562
11259TIP3   OH255191   1.015   5.830  13.225 -0.1524 -0.0051  0.6010
11259TIP3    H155192   0.954   5.766  13.262 -0.8109 -0.1790 -0.7052
11259TIP3    H255193   1.081   5.843  13.293 -0.0343 -2.0187  0.9277
11260TIP3   OH255194   5.592   3.537   1.110  0.0551  0.1989 -0.6911
11260TIP3    H155195   5.637   3.621   1.120 -0.4426  0.3479  0.3924
11260TIP3    H255196   5.531   3.534   1.183  0.5143 -1.3957 -0.3510
11261TIP3   OH255197   3.763   3.304   2.547 -0.1826  0.2960  0.5158
11261TIP3    H155198   3.698   3.271   2.608 -2.0451  0.4142 -1.2836
11261TIP3    H255199   3.758   3.243   2.473  0.7828  1.0986 -0.2300
11262TIP3   OH255200   0.536   6.575  11.573  0.1636  0.0725  0.0748
11262TIP3    H155201   0.531   6.617  11.659  0.5060  0.8705 -0.2904
11262TIP3    H255202   0.609   6.514  11.581 -0.9114 -1.1758  0.8998
11263TIP3   OH255203   4.521   6.189   4.959 -0.1719 -0.2899 -0.4964
11263TIP3    H155204   4.477   6.105   4.968 -1.4833  0.5452  1.7393
11263TIP3    H255205   4.463   6.240   4.901 -0.9475  0.0113  0.5155
11264TIP3   OH255206   5.396   2.958  15.414  0.6617 -0.2806 -0.2356
11264TIP3    H155207   5.308   2.979  15.385  0.1339 -0.4482  1.1673
11264TIP3    H255208   5.440   3.043  15.418  0.5688 -0.1940 -0.9121
11265TIP3   OH255209   1.029   6.377  16.584  0.2392  0.0050 -0.5950
11265TIP3    H155210   1.039   6.309  16.516 -3.1191 -2.1074  0.7236
11265TIP3    H255211   1.046   6.331  16.666 -1.2824  0.9545  0.2936
11266TIP3   OH255212   5.886   5.812  15.545  0.2609 -0.3147  0.4715
11266TIP3    H155213   5.819   5.744  15.551  1.8910 -2.3580 -2.3059
11266TIP3    H255214   5.962   5.775  15.590  0.3817  0.8453  1.2661
11267TIP3   OH255215   6.493   1.718  11.584  0.6232 -0.0077  0.7402
11267TIP3    H155216   6.475   1.624  11.594  0.9105  0.0507  2.0738
11267TIP3    H255217   6.415   1.753  11.541  0.4427 -0.8328  0.3780
11268TIP3   OH255218   6.502   0.400  11.012  0.5596  0.0606 -0.1374
11268TIP3    H155219   6.420   0.424  10.971  0.2983 -1.3463 -0.4887
11268TIP3    H255220   6.569   0.445  10.961  0.0005  2.3708  0.9956
11269TIP3   OH255221   3.561   6.628   5.292 -0.1340  0.1386 -0.1080
11269TIP3    H155222   3.586   6.599   5.380 -0.2570  1.8134  0.5175
11269TIP3    H255223   3.472   6.662   5.303 -0.7320 -1.0110 -1.2185
11270TIP3   OH255224   1.967   2.786  13.411 -0.1288 -0.5172 -0.1075
11270TIP3    H155225   1.913   2.819  13.483  0.0981 -0.5475  0.0767
11270TIP3    H255226   1.924   2.704  13.385 -0.0482 -0.6545  0.1860
11271TIP3   OH255227   5.718   1.749   5.399  0.1223  0.3313  0.3861
11271TIP3    H155228   5.664   1.823   5.429 -0.1978  0.0622  0.4797
11271TIP3    H255229   5.746   1.775   5.311  1.2118  1.2028  0.9721
11272TIP3   OH255230   5.772   3.348   1.053  0.8644 -0.1444 -0.1267
11272TIP3    H155231   5.857   3.370   1.092  1.9932 -1.8896 -1.4616
11272TIP3    H255232   5.715   3.421   1.078  1.6698 -0.7170  4.0375
11273TIP3   OH255233   3.794   2.688  13.072  0.0170 -0.0303 -0.1390
11273TIP3    H155234   3.862   2.696  13.139  0.7021  1.1440 -0.9520
11273TIP3    H255235   3.840   2.655  12.994 -0.6614 -0.7890 -0.2362
11274TIP3   OH255236   1.204   5.909  16.335 -0.0886  0.2447  0.7968
11274TIP3    H155237   1.261   5.850  16.285 -0.9380 -1.3695  1.6804
11274TIP3    H255238   1.218   5.995  16.295  0.4905 -0.7019 -1.1449
11275TIP3   OH255239   2.963   1.961   2.155 -0.4554  0.1079  0.0236
11275TIP3    H155240   3.027   2.026   2.183  0.7087 -1.2627  0.7023
11275TIP3    H255241   3.015   1.889   2.119 -1.7030 -0.3922 -0.8645
11276TIP3   OH255242   0.812   3.115  14.470 -0.3173  0.6386 -0.3891
11276TIP3    H155243   0.847   3.205  14.475 -1.9257  1.3402 -1.1998
11276TIP3    H255244   0.718   3.126  14.460 -0.4857 -1.1406 -1.1611
11277TIP3   OH255245   2.687   3.822  16.747  0.6552  0.3344 -0.2390
11277TIP3    H155246   2.754   3.891  16.749  1.5423 -0.4818 -0.9285
11277TIP3    H255247   2.695   3.779  16.832  1.7185 -0.3909 -0.6812
11278TIP3   OH255248   1.255   4.990   5.471 -0.1170  0.4443  0.2527
11278TIP3    H155249   1.273   4.998   5.378  0.6733  0.8157  0.4314
11278TIP3    H255250   1.233   5.079   5.499  1.1984  0.6334  0.7284
11279TIP3   OH255251   6.109   1.649  13.744 -0.0316 -0.1279 -0.6136
11279TIP3    H155252   6.192   1.678  13.784 -0.5448  1.0742 -0.3619
11279TIP3    H255253   6.136   1.597  13.668  0.9535 -1.2010  0.4448
11280TIP3   OH255254   0.481   1.893   2.235 -0.2903  0.2558  0.2336
11280TIP3    H155255   0.542   1.840   2.286 -0.8941  0.0916  0.7942
11280TIP3    H255256   0.516   1.982   2.240 -0.2102  0.1976  0.7240
11281TIP3   OH255257   2.006   3.584  13.562 -0.0133 -0.1485  1.0056
11281TIP3    H155258   2.041   3.516  13.504  1.3812  2.5401 -1.5829
11281TIP3    H255259   2.082   3.615  13.611 -0.5994 -0.2351  2.0036
11282TIP3   OH255260   2.462   3.592   3.199  0.9668  0.4473 -0.0092
11282TIP3    H155261   2.419   3.598   3.113  0.8551 -0.4898 -0.0302
11282TIP3    H255262   2.552   3.620   3.183  1.7685 -2.4022 -1.0936
11283TIP3   OH255263   3.372   5.445   2.102 -0.2308  0.4340 -0.1530
11283TIP3    H155264   3.433   5.388   2.148  0.8007 -0.0221 -1.9763
11283TIP3    H255265   3.393   5.534   2.132  0.8105  0.2032 -0.1833
11284TIP3   OH255266   2.130   0.982   6.269  0.1459 -0.1841 -0.3051
11284TIP3    H155267   2.195   0.914   6.251  0.0577 -0.1262 -0.8453
11284TIP3    H255268   2.182   1.056   6.300  0.1760 -0.7538  1.0669
11285TIP3   OH255269   6.623   1.401   3.920 -0.5012 -0.2437  0.2806
11285TIP3    H155270   6.554   1.437   3.975  0.0874  0.9454  0.2655
11285TIP3    H255271   6.692   1.467   3.920 -0.6318  0.0051 -2.2031
11286TIP3   OH255272   5.265   3.710   4.094  0.3466  0.5958 -0.5002
11286TIP3    H155273   5.221   3.649   4.035 -1.8342  1.6456 -0.0534
11286TIP3    H255274   5.325   3.656   4.145 -0.6548 -0.9764 -0.9372
11287TIP3   OH255275   0.396   0.131   3.406  0.0335 -0.3259 -0.0336
11287TIP3    H155276   0.340   0.061   3.438 -1.5937  0.7639 -0.3748
11287TIP3    H255277   0.390   0.199   3.473 -0.2617  0.4089 -0.7986
11288TIP3   OH255278   2.433   2.856  16.117 -0.2296 -0.0011 -0.4230
11288TIP3    H155279   2.352   2.829  16.160 -0.9712 -1.6703 -2.7117
11288TIP3    H255280   2.412   2.939  16.075 -0.5650 -0.1223 -0.4953
11289TIP3   OH255281   1.485   2.037  16.651 -0.0218  0.4419 -0.2694
11289TIP3    H155282   1.455   2.113  16.603  0.2779  1.0724  0.5257
11289TIP3    H255283   1.480   1.965  16.588 -0.7455  1.0216 -0.8864
11290TIP3   OH255284   2.558   1.260   1.038 -0.3120  0.0130 -0.8967
11290TIP3    H155285   2.590   1.340   0.997 -0.1441  0.1262 -0.5502
11290TIP3    H255286   2.620   1.192   1.010  1.6579  0.6235  1.5812
11291TIP3   OH255287   4.221   0.401   1.283 -0.1246  0.1148  0.4166
11291TIP3    H155288   4.223   0.496   1.284  2.0745  0.2729 -3.0056
11291TIP3    H255289   4.313   0.374   1.286 -0.5503 -1.7448 -0.8467
11292TIP3   OH255290   4.733   1.355  16.362 -0.0818 -0.4481  0.1970
11292TIP3    H155291   4.732   1.327  16.271  3.2851 -0.9222  0.1893
11292TIP3    H255292   4.697   1.281  16.410  0.2941 -1.1481 -0.5788
11293TIP3   OH255293   6.015   6.332   1.697 -0.1651  0.2300  0.2857
11293TIP3    H155294   6.046   6.313   1.786 -0.7179 -2.0668  0.0610
11293TIP3    H255295   5.988   6.424   1.700 -1.6782 -0.1893  2.9825
11294TIP3   OH255296   6.786   2.426   4.052  0.1756 -0.1799  0.0291
11294TIP3    H155297   6.723   2.381   3.995 -0.6210  0.5369  0.3218
11294TIP3    H255298   6.754   2.409   4.141  0.9585 -0.6215  0.2399
11295TIP3   OH255299   0.906   3.922   3.535  0.6821  0.2237  0.0278
11295TIP3    H155300   0.909   3.827   3.529  1.5648  0.2849 -0.6847
11295TIP3    H255301   0.940   3.942   3.623  2.0265 -0.0606 -0.4041
11296TIP3   OH255302   6.142   1.672  14.432  0.3015  0.5634  0.4110
11296TIP3    H155303   6.163   1.762  14.405 -3.6892  1.6515  0.1915
11296TIP3    H255304   6.074   1.645  14.370  1.8580 -2.9804  0.0309
11297TIP3   OH255305   0.920   1.574  13.615 -0.0765  0.1468  0.4423
11297TIP3    H155306   1.016   1.574  13.606 -0.1480 -0.9361 -0.6432
11297TIP3    H255307   0.889   1.532  13.534 -1.3240 -2.3908  2.1172
11298TIP3   OH255308   3.489   5.960   4.040 -0.1269 -0.1535 -0.3168
11298TIP3    H155309   3.563   6.019   4.027 -1.7053  1.6743 -1.3650
11298TIP3    H255310   3.455   5.983   4.127 -0.2783 -0.0618 -0.4008
11299TIP3   OH255311   0.202   6.363   5.796 -0.2559  0.1880  0.0155
11299TIP3    H155312   0.202   6.455   5.824 -0.7851  0.2660 -0.2312
11299TIP3    H255313   0.247   6.317   5.866 -0.5597  0.5447  0.4537
11300TIP3   OH255314   2.094   2.177  10.238 -0.1229 -0.0646 -0.4248
11300TIP3    H155315   2.148   2.247  10.202 -0.8412  0.8059  0.1421
11300TIP3    H255316   2.153   2.127  10.294  0.7493 -0.7982 -1.9273
11301TIP3   OH255317   4.048   2.639   0.046  0.3991 -0.3806 -0.1802
11301TIP3    H155318   4.031   2.553   0.085  1.0126 -0.1950  0.5092
11301TIP3    H255319   4.130   2.668   0.085 -0.0977  0.7860  0.0432
11302TIP3   OH255320   4.554   5.047  10.782 -0.4435  0.2260 -0.3195
11302TIP3    H155321   4.528   5.005  10.700  0.7892 -0.8058 -0.2079
11302TIP3    H255322   4.644   5.076  10.766 -0.2419  0.1357  0.6184
11303TIP3   OH255323   2.943   1.438  14.164  0.0062 -0.0383  0.3971
11303TIP3    H155324   3.004   1.488  14.110 -1.2486  0.5382 -0.5308
11303TIP3    H255325   2.943   1.483  14.248 -0.8492  1.3636 -0.3149
11304TIP3   OH255326   4.805   6.308  14.640  0.0822  0.2186 -0.2361
11304TIP3    H155327   4.773   6.235  14.587  0.5046  0.8725 -1.4514
11304TIP3    H255328   4.900   6.304  14.633  0.1347  0.4960  0.2303
11305TIP3   OH255329   6.290   5.809  12.027 -0.6129 -0.4870 -0.5036
11305TIP3    H155330   6.327   5.854  12.103 -0.6613 -0.2680 -0.6106
11305TIP3    H255331   6.366   5.790  11.972 -0.6720  0.1182 -0.8057
11306TIP3   OH255332   4.579   2.388  15.303  0.2573  0.5581 -0.2811
11306TIP3    H155333   4.611   2.384  15.213 -1.4966 -0.2822 -0.9133
11306TIP3    H255334   4.617   2.311  15.346 -1.2801 -0.7374 -1.1704
11307TIP3   OH255335   2.186   4.247  11.695  0.2260 -0.3358 -0.0061
11307TIP3    H155336   2.227   4.186  11.755  0.3605  0.2078  0.4610
11307TIP3    H255337   2.121   4.195  11.648  1.6490 -1.2961 -0.9959
11308TIP3   OH255338   1.376   1.438   0.119 -0.9574  0.0863 -0.2472
11308TIP3    H155339   1.344   1.380   0.189 -0.3628  1.3254  1.1086
11308TIP3    H255340   1.325   1.518   0.130  0.3423  0.9204 -0.0993
11309TIP3   OH255341   0.444   1.124   5.218 -0.4001 -0.1170 -0.1489
11309TIP3    H155342   0.522   1.146   5.268 -1.3449  1.9016  0.5776
11309TIP3    H255343   0.383   1.196   5.236 -1.5481 -0.3687 -2.5800
11310TIP3   OH255344   2.351   5.588   0.464 -0.4409  0.6512  0.1719
11310TIP3    H155345   2.417   5.646   0.501 -0.5908  1.7809 -1.2247
11310TIP3    H255346   2.349   5.611   0.371 -2.0079 -0.1318 -0.0245
11311TIP3   OH255347   0.977   0.666  16.604 -0.3217  0.2647 -0.1753
11311TIP3    H155348   0.885   0.645  16.590  0.0484 -1.8869  0.2787
11311TIP3    H255349   0.979   0.711  16.688 -0.8337 -0.9602  0.5218
11312TIP3   OH255350   1.660   6.642   1.899 -0.4664 -0.3250  0.0370
11312TIP3    H155351   1.657   6.736   1.917 -0.8454 -0.4351  0.5426
11312TIP3    H255352   1.753   6.620   1.907 -0.5842 -0.3233  1.6245
11313TIP3   OH255353   5.062   5.685  10.549  0.6251 -0.0085 -0.0181
11313TIP3    H155354   5.087   5.630  10.623  2.8519  0.0641 -0.6392
11313TIP3    H255355   5.103   5.643  10.473 -0.2574  0.8032 -0.9717
11314TIP3   OH255356   0.920   5.858  15.447 -0.1810 -0.0929 -0.4806
11314TIP3    H155357   0.958   5.869  15.535  0.3354 -0.5759 -0.6420
11314TIP3    H255358   0.940   5.940  15.402  1.6403 -0.7270 -0.9168
11315TIP3   OH255359   0.565   0.627  14.575 -0.6016 -0.0210  0.2847
11315TIP3    H155360   0.585   0.670  14.492 -0.9814 -2.0996 -0.9659
11315TIP3    H255361   0.635   0.563  14.586 -0.4373  0.3752  1.7170
11316TIP3   OH255362   6.708   2.095   1.546 -0.3217  0.3879 -0.4743
11316TIP3    H155363   6.790   2.054   1.518 -1.4558  0.0537 -3.7690
11316TIP3    H255364   6.642   2.028   1.529 -1.2952  0.2459  3.1196
11317TIP3   OH255365   1.461   4.584   3.414  0.2995 -0.4585 -0.4220
11317TIP3    H155366   1.551   4.577   3.384  0.9151  0.3018  1.1225
11317TIP3    H255367   1.408   4.549   3.342  1.7335  0.1555 -1.8255
11318TIP3   OH255368   3.328   0.557   2.753 -0.2841  0.6570 -0.1637
11318TIP3    H155369   3.288   0.589   2.834 -1.1224 -1.3436  0.2795
11318TIP3    H255370   3.399   0.499   2.784  0.3794  1.0691 -0.8930
11319TIP3   OH255371   0.722   3.796   6.063 -0.2406 -0.3053 -0.0178
11319TIP3    H155372   0.813   3.808   6.090  0.2467  0.4786 -1.8081
11319TIP3    H255373   0.691   3.723   6.115  1.8315 -1.4643 -0.2898
11320TIP3   OH255374   0.158   2.947  13.817  0.1810 -0.2025  0.9394
11320TIP3    H155375   0.206   2.921  13.738  1.3992  1.9054  0.8971
11320TIP3    H255376   0.206   2.907  13.889  1.0680  0.5171  0.7782
11321TIP3   OH255377   0.106   5.929   0.280 -0.4368  0.1922 -0.4018
11321TIP3    H155378   0.179   5.911   0.221 -1.0732  0.2398 -1.2130
11321TIP3    H255379   0.102   6.024   0.286 -0.1057  0.1774  0.0558
11322TIP3   OH255380   2.971   1.727   0.509  0.2666  0.1531  0.2360
11322TIP3    H155381   2.948   1.709   0.417 -0.1246  1.5660  0.0335
11322TIP3    H255382   3.066   1.730   0.509  0.3318 -1.2217  0.1674
11323TIP3   OH255383   1.089   5.408   5.026  0.6580  0.1289  0.0571
11323TIP3    H155384   1.133   5.440   5.105  0.2994 -0.1853  0.3859
11323TIP3    H255385   1.160   5.375   4.971  0.9182  0.4392  0.2012
11324TIP3   OH255386   3.310   5.740   5.326 -0.2387 -0.0442  0.0941
11324TIP3    H155387   3.367   5.814   5.304  0.2585  0.3495  2.4428
11324TIP3    H255388   3.363   5.685   5.383 -1.8598 -0.1865  1.5287
11325TIP3   OH255389   2.217   6.573  16.456  0.0097 -0.4015  0.3083
11325TIP3    H155390   2.146   6.611  16.404  0.5978  0.4327  0.0776
11325TIP3    H255391   2.292   6.573  16.396  0.4770 -0.2224  0.8867
11326TIP3   OH255392   6.549   4.566   5.282 -0.3468  0.7300 -0.9100
11326TIP3    H155393   6.629   4.617   5.266  1.2764 -1.2348  0.3998
11326TIP3    H255394   6.551   4.498   5.215  0.7280 -1.0700  0.8397
11327TIP3   OH255395   0.634   2.634  11.807  0.0177  0.2867  0.0997
11327TIP3    H155396   0.608   2.566  11.744  0.5630  0.0383  0.1362
11327TIP3    H255397   0.598   2.604  11.891  2.7198 -1.5424  0.7471
11328TIP3   OH255398   1.023   0.433   6.479 -0.2776 -0.1020 -0.1783
11328TIP3    H155399   1.022   0.529   6.476  1.5021 -0.0200  0.2849
11328TIP3    H255400   1.089   0.412   6.545 -0.6135 -1.6633 -0.2880
11329TIP3   OH255401   2.520   2.940  16.802 -0.2817  0.0702  0.0737
11329TIP3    H155402   2.497   2.988  16.722 -1.1268  3.1303  1.9912
11329TIP3    H255403   2.609   2.909  16.786 -1.8303 -3.3330 -3.6361
11330TIP3   OH255404   3.752   4.202  13.388 -0.6288 -0.1529 -0.0553
11330TIP3    H155405   3.822   4.137  13.378  0.3789  0.5565  1.7194
11330TIP3    H255406   3.697   4.191  13.311  0.0137 -2.4810 -0.2677
11331TIP3   OH255407   5.149   2.885   4.040 -0.1904 -0.3389 -0.0212
11331TIP3    H155408   5.063   2.871   4.001 -0.0495  1.8047 -1.2770
11331TIP3    H255409   5.205   2.818   4.001 -0.6033  0.2745 -1.7789
11332TIP3   OH255410   0.315   5.380  16.401 -0.2644 -0.7931 -0.3359
11332TIP3    H155411   0.274   5.415  16.322 -0.7941 -2.7630 -0.9782
11332TIP3    H255412   0.374   5.450  16.429 -1.1548  0.5491 -1.6134
11333TIP3   OH255413   4.035   5.306  13.462 -0.3369  0.2041  0.4985
11333TIP3    H155414   3.999   5.383  13.505  0.1330  0.2949  0.7337
11333TIP3    H255415   4.007   5.315  13.371 -1.1856  0.0984  0.7406
11334TIP3   OH255416   2.094   2.176   2.432  0.0812  0.6600  0.2127
11334TIP3    H155417   2.189   2.180   2.444 -0.0365 -1.1201  2.4413
11334TIP3    H255418   2.083   2.138   2.344  1.3658  1.8952 -0.5270
11335TIP3   OH255419   6.672   2.376  14.734 -0.7436 -0.1312  0.0175
11335TIP3    H155420   6.616   2.328  14.673  0.8394 -0.0967 -1.5422
11335TIP3    H255421   6.745   2.316  14.751  0.3947  1.0519 -0.6006
11336TIP3   OH255422   3.487   0.513   0.709  0.1329 -0.5683  0.4854
11336TIP3    H155423   3.500   0.421   0.688  0.3845 -0.0010 -2.1028
11336TIP3    H255424   3.568   0.539   0.755  1.1568 -1.0528 -0.9901
11337TIP3   OH255425   6.569   5.048   0.436  0.0942  0.6189  0.1594
11337TIP3    H155426   6.585   5.025   0.344 -0.6703  0.9743 -0.0714
11337TIP3    H255427   6.552   4.964   0.479 -0.0771  0.5001 -0.1362
11338TIP3   OH255428   5.734   2.198  13.954 -0.4728  0.1784 -0.4905
11338TIP3    H155429   5.788   2.247  13.893 -0.5278 -0.2135 -0.8624
11338TIP3    H255430   5.767   2.108  13.949 -1.4956 -0.1874 -1.1359
11339TIP3   OH255431   1.426   0.277  13.250  1.2283  0.3750  0.0245
11339TIP3    H155432   1.431   0.187  13.282  1.1781  0.9495  1.7694
11339TIP3    H255433   1.432   0.331  13.329 -0.1906  1.8731 -0.8289
11340TIP3   OH255434   4.747   0.592   4.334 -1.2414 -0.3981  0.0390
11340TIP3    H155435   4.807   0.545   4.276 -0.9477  0.3709 -0.2960
11340TIP3    H255436   4.696   0.648   4.275 -0.1744  1.2239  0.5884
11341TIP3   OH255437   6.481   5.578  10.928  0.6507 -0.1862  0.2426
11341TIP3    H155438   6.400   5.546  10.967  0.4579  0.5892  0.5051
11341TIP3    H255439   6.530   5.499  10.903 -0.0189 -0.6579  0.4195
11342TIP3   OH255440   1.304   1.922   6.379 -0.1545 -0.1156  0.0307
11342TIP3    H155441   1.252   1.945   6.456  0.9135 -0.4510  0.8774
11342TIP3    H255442   1.251   1.858   6.332 -0.7926  0.0501  0.5200
11343TIP3   OH255443   1.759   6.148  14.775 -0.1281 -0.5033 -0.0332
11343TIP3    H155444   1.843   6.194  14.771 -0.9960  1.2059  0.4169
11343TIP3    H255445   1.701   6.199  14.718 -1.2900 -0.6799  0.9542
11344TIP3   OH255446   4.417   2.191   3.058  0.1899 -0.0852  0.2081
11344TIP3    H155447   4.365   2.257   3.105  1.9263  0.6214  1.2065
11344TIP3    H255448   4.478   2.158   3.124  0.8543 -1.0635 -0.8835
11345TIP3   OH255449   5.398   2.381  11.023  0.3565 -0.2901  0.2666
11345TIP3    H155450   5.307   2.410  11.022  0.5312  0.2622 -0.0142
11345TIP3    H255451   5.422   2.374  10.931  0.9205  0.6172  0.3290
11346TIP3   OH255452   2.011   3.098  12.283 -0.3799  0.6167  0.3464
11346TIP3    H155453   1.978   3.175  12.237 -0.2291  0.0710 -0.6972
11346TIP3    H255454   2.105   3.096  12.264 -0.2982  0.4291  0.7496
11347TIP3   OH255455   6.292   5.193   5.330  0.4288 -0.3923  0.0299
11347TIP3    H155456   6.287   5.123   5.395 -0.0854 -0.6475 -0.2746
11347TIP3    H255457   6.276   5.149   5.247  0.3870  0.0448 -0.1953
11348TIP3   OH255458   2.259   4.185  15.108  0.2722 -0.2095  0.3678
11348TIP3    H155459   2.249   4.101  15.153  0.7664 -0.4473  0.0444
11348TIP3    H255460   2.185   4.188  15.047  0.0512 -0.2502  0.6338
11349TIP3   OH255461   0.218   4.615  16.200 -0.1963  0.1736 -0.1183
11349TIP3    H155462   0.176   4.696  16.228  0.1991  0.1144  0.6717
11349TIP3    H255463   0.312   4.632  16.210  0.0679  0.5562 -2.5149
11350TIP3   OH255464   5.902   4.246   0.918  0.5359  0.5968  0.0523
11350TIP3    H155465   5.905   4.325   0.971 -0.2478  1.3358 -0.9498
11350TIP3    H255466   5.811   4.238   0.891  0.0634 -1.9671  1.9843
11351TIP3   OH255467   2.209   2.130  14.495  0.3569  0.7562  0.0056
11351TIP3    H155468   2.235   2.180  14.417  1.8387  0.6420  0.4080
11351TIP3    H255469   2.269   2.055  14.497 -0.0813  0.4129  0.9133
11352TIP3   OH255470   2.870   6.700   0.820 -0.7672  0.6829 -0.3508
11352TIP3    H155471   2.859   6.625   0.878 -0.4058  0.8421 -0.0704
11352TIP3    H255472   2.960   6.728   0.834 -0.8771  1.1271 -0.5049
11353TIP3   OH255473   1.567   3.106   4.111 -0.1169  0.2687  0.3293
11353TIP3    H155474   1.509   3.083   4.183 -0.6708 -0.2477 -0.2685
11353TIP3    H255475   1.649   3.061   4.132 -0.2637  0.1436  0.6472
11354TIP3   OH255476   4.602   0.984   0.381 -0.5013 -0.4444  0.0761
11354TIP3    H155477   4.542   0.915   0.411 -1.5750 -0.4415 -1.8475
11354TIP3    H255478   4.685   0.964   0.423 -1.2461 -1.8563  0.9650
11355TIP3   OH255479   3.085   0.585  15.850 -0.5660  0.2730 -0.4296
11355TIP3    H155480   3.180   0.589  15.850 -0.5544  0.1920 -1.1482
11355TIP3    H255481   3.060   0.613  15.762 -1.2320  0.9064 -0.0526
11356TIP3   OH255482   1.228   0.627  15.657 -0.5878 -0.0203  0.1968
11356TIP3    H155483   1.183   0.634  15.573  0.0011 -0.7599 -0.1942
11356TIP3    H255484   1.313   0.667  15.643  0.0014 -1.2571  0.0485
11357TIP3   OH255485   4.614   5.395   3.011 -0.4546  0.0520 -0.1842
11357TIP3    H155486   4.708   5.395   2.995 -0.5893  1.0427 -1.0831
11357TIP3    H255487   4.582   5.316   2.968  0.0087 -0.5601  0.5538
11358TIP3   OH255488   5.073   1.571  10.359 -0.4409 -0.1871 -0.2884
11358TIP3    H155489   5.154   1.611  10.390 -0.7048  1.0719 -1.1086
11358TIP3    H255490   5.030   1.539  10.438 -0.2101  1.2174  0.4377
11359TIP3   OH255491   3.068   4.623   0.619  0.1042 -0.1234  0.0835
11359TIP3    H155492   3.160   4.618   0.593  0.2920 -1.4931  0.9092
11359TIP3    H255493   3.020   4.607   0.537  0.5519  1.6093 -0.5498
11360TIP3   OH255494   0.597   5.103   0.244  0.3703  0.1584  0.0678
11360TIP3    H155495   0.673   5.071   0.293  0.3345 -0.2765 -0.1511
11360TIP3    H255496   0.619   5.193   0.220  1.9375 -0.7270 -2.1845
11361TIP3   OH255497   0.281   4.486   0.059 -0.3808 -0.2935 -0.3536
11361TIP3    H155498   0.296   4.577   0.033 -2.4450 -0.0953 -0.9983
11361TIP3    H255499   0.328   4.478   0.142  0.7366  1.0246 -0.8079
11362TIP3   OH255500   6.155   1.330   4.586 -0.2959 -0.0160 -0.0819
11362TIP3    H155501   6.169   1.265   4.518 -0.5148 -0.4991  0.3308
11362TIP3    H255502   6.172   1.414   4.543 -2.6131 -0.1180 -1.3853
11363TIP3   OH255503   2.312   3.884  16.016 -0.4557 -0.0964  0.0740
11363TIP3    H155504   2.287   3.810  15.960  0.7571  0.2887 -1.0371
11363TIP3    H255505   2.230   3.913  16.056 -1.4726 -0.0653 -1.9229
11364TIP3   OH255506   5.922   5.574   3.130 -0.0758  0.5550 -0.5354
11364TIP3    H155507   5.915   5.484   3.101  0.2906  0.6610 -0.9540
11364TIP3    H255508   5.995   5.611   3.079  0.6203  0.7227  0.5455
11365TIP3   OH255509   4.254   4.701   2.975 -0.2735  0.0986 -0.1734
11365TIP3    H155510   4.232   4.792   2.996  0.2525  0.2558 -0.2876
11365TIP3    H255511   4.348   4.703   2.955 -0.2617 -0.4676 -0.1906
11366TIP3   OH255512   3.163   4.847  13.428  1.0750 -0.5604  0.7420
11366TIP3    H155513   3.202   4.793  13.359 -2.0270 -1.9252 -0.1281
11366TIP3    H255514   3.124   4.920  13.380 -2.8385 -2.5208  0.5351
11367TIP3   OH255515   5.113   1.934   6.383 -0.4082 -0.5138 -0.1577
11367TIP3    H155516   5.135   1.978   6.301 -1.3985 -1.0593 -0.7379
11367TIP3    H255517   5.024   1.965   6.403  0.5575  1.2446  1.8364
11368TIP3   OH255518   3.028   3.666   1.680 -0.1738 -0.0777 -0.1958
11368TIP3    H155519   2.934   3.651   1.691 -0.5325  0.5426 -2.0097
11368TIP3    H255520   3.041   3.758   1.699  0.6867 -0.7495  3.1677
11369TIP3   OH255521   5.928   3.491   0.442 -0.1444  0.0748  0.1328
11369TIP3    H155522   5.900   3.505   0.532 -2.8247  0.3720 -0.6799
11369TIP3    H255523   5.904   3.400   0.423  0.2858  0.0532 -0.3432
11370TIP3   OH255524   1.608   0.205   5.136 -0.1180 -0.1139  0.1870
11370TIP3    H155525   1.514   0.222   5.144 -0.1289 -0.5854  1.2687
11370TIP3    H255526   1.613   0.118   5.097 -0.1095  0.3432 -0.8555
11371TIP3   OH255527   2.961   6.594   3.486  0.2999  0.1800  0.1784
11371TIP3    H155528   2.943   6.526   3.551  1.3688 -0.7063 -0.4331
11371TIP3    H255529   2.971   6.547   3.403  0.8517  1.1030 -0.2937
11372TIP3   OH255530   5.774   5.702   2.105  0.1587  0.1097 -0.1004
11372TIP3    H155531   5.852   5.741   2.066 -0.4087  0.2493 -1.1388
11372TIP3    H255532   5.757   5.625   2.052  1.7258 -2.1371  2.3989
11373TIP3   OH255533   2.699   0.615  16.805  0.7667 -0.0635  0.1365
11373TIP3    H155534   2.655   0.557  16.743  1.8124  0.0869 -0.7881
11373TIP3    H255535   2.776   0.647  16.757  1.8338 -0.2549  1.6508
11374TIP3   OH255536   1.367   5.108   2.437 -0.0474 -0.3831  0.0922
11374TIP3    H155537   1.283   5.062   2.441  0.4378 -1.2075  2.5003
11374TIP3    H255538   1.345   5.200   2.456 -0.5184 -0.3365 -0.6097
11375TIP3   OH255539   4.082   5.352   0.920 -0.5331  0.8566  0.0849
11375TIP3    H155540   4.173   5.350   0.948 -0.6915  3.0945  0.9979
11375TIP3    H255541   4.032   5.332   0.999 -0.8490  0.5208 -0.1982
11376TIP3   OH255542   0.127   2.468   4.518 -0.4315 -0.2337 -0.0125
11376TIP3    H155543   0.089   2.478   4.606 -0.3170 -0.9342  0.1198
11376TIP3    H255544   0.166   2.381   4.518  3.2467  1.2075  0.6679
11377TIP3   OH255545   0.941   1.683  16.693  0.7374 -0.3681  0.1569
11377TIP3    H155546   1.025   1.644  16.716  0.5144 -1.1914 -0.3818
11377TIP3    H255547   0.882   1.657  16.763  1.1127  0.9110  0.9756
11378TIP3   OH255548   4.378   1.272  11.696 -0.0315 -0.1412  0.8247
11378TIP3    H155549   4.327   1.193  11.679  0.3427 -0.1955 -0.0875
11378TIP3    H255550   4.357   1.294  11.787 -1.1501 -0.5373  0.6792
11379TIP3   OH255551   2.746   4.042  12.524  0.3659 -0.0839 -0.4982
11379TIP3    H155552   2.709   4.129  12.513 -0.1646 -0.1845  0.3964
11379TIP3    H255553   2.676   3.982  12.500  0.9929 -0.2843 -1.9323
11380TIP3   OH255554   5.446   3.204   5.414 -0.3913  0.4368  0.2673
11380TIP3    H155555   5.412   3.155   5.489 -0.2125 -0.4156 -0.1970
11380TIP3    H255556   5.519   3.151   5.382 -0.0485  1.1246 -0.1088
11381TIP3   OH255557   6.664   2.021   6.242 -0.0610  0.9432 -0.1829
11381TIP3    H155558   6.690   2.087   6.306 -2.5768  0.2682  1.6727
11381TIP3    H255559   6.666   2.068   6.158  2.7265  2.0095  0.3730
11382TIP3   OH255560   3.807   6.276  10.299  0.1132  0.0220 -0.0467
11382TIP3    H155561   3.748   6.292  10.373  0.7765 -0.7731  0.6848
11382TIP3    H255562   3.893   6.302  10.330  0.3598 -0.0711 -0.6327
11383TIP3   OH255563   5.485   5.473   2.693  0.0539  0.6307 -0.7682
11383TIP3    H155564   5.532   5.433   2.766  0.2685  1.4919 -0.4275
11383TIP3    H255565   5.535   5.551   2.671 -0.7260  1.0866 -0.9779
11384TIP3   OH255566   0.328   4.524  15.317 -0.3123 -0.1094 -0.4889
11384TIP3    H155567   0.295   4.553  15.232  1.3613  0.8734 -0.8421
11384TIP3    H255568   0.368   4.602  15.355 -0.3235 -0.7317  0.8554
11385TIP3   OH255569   4.843   5.071   0.674 -0.2832  0.1453 -0.0157
11385TIP3    H155570   4.874   5.081   0.584  1.9202 -0.6926  0.5915
11385TIP3    H255571   4.796   5.153   0.692  0.2679  0.8328 -1.5438
11386TIP3   OH255572   1.508   1.437  15.603 -0.7874 -0.4411 -0.4617
11386TIP3    H155573   1.582   1.471  15.552 -0.8095 -1.1559 -0.9800
11386TIP3    H255574   1.449   1.512  15.612  0.7122  0.6228  1.3575
11387TIP3   OH255575   5.935   3.337  14.291 -0.5853  0.5158  0.9198
11387TIP3    H155576   5.985   3.378  14.220 -0.2132  1.5297  1.7424
11387TIP3    H255577   5.995   3.272  14.328 -0.0460  1.3731  1.5730
11388TIP3   OH255578   5.313   1.179  11.094 -0.3994 -0.6066 -0.0386
11388TIP3    H155579   5.361   1.123  11.033 -0.0686  1.0844 -1.3980
11388TIP3    H255580   5.263   1.239  11.037 -0.7180  0.4962  1.3509
11389TIP3   OH255581   5.321   6.284   5.227 -0.0528  0.1355 -0.6569
11389TIP3    H155582   5.360   6.371   5.220 -1.7559  1.2168  1.9057
11389TIP3    H255583   5.395   6.224   5.239  0.9981  1.5815  0.2328
11390TIP3   OH255584   5.296   2.244  11.502 -0.4186  0.3628 -0.1934
11390TIP3    H155585   5.210   2.244  11.460 -0.2164 -3.8555 -1.0797
11390TIP3    H255586   5.277   2.242  11.596 -1.2254  0.8341 -0.3415
11391TIP3   OH255587   6.080   6.339  15.120 -0.0058 -0.2797  0.2677
11391TIP3    H155588   6.009   6.321  15.182  0.7138 -0.5661  1.0251
11391TIP3    H255589   6.045   6.311  15.035 -0.8693 -0.2231  0.5928
11392TIP3   OH255590   0.805   1.843  13.720 -0.2569 -0.1562  0.6947
11392TIP3    H155591   0.844   1.774  13.666  0.6810  0.4065  0.6479
11392TIP3    H255592   0.710   1.830  13.710 -0.0920 -0.8823 -0.0173
11393TIP3   OH255593   4.013   0.586   1.013 -0.1231  0.2749 -0.1849
11393TIP3    H155594   4.003   0.520   0.945  0.5722  0.8211 -0.8365
11393TIP3    H255595   4.107   0.604   1.015 -0.2922  1.1912  0.0295
11394TIP3   OH255596   2.880   2.527  15.258 -0.6271 -0.1942  0.0544
11394TIP3    H155597   2.810   2.582  15.223  0.0498 -0.2350 -1.4367
11394TIP3    H255598   2.879   2.450  15.202  0.1477 -0.5139  0.4767
11395TIP3   OH255599   0.622   4.498  14.290  0.2410 -0.4004  0.4525
11395TIP3    H155600   0.676   4.540  14.357  0.0793 -0.0086  0.3409
11395TIP3    H255601   0.635   4.551  14.212  0.2333 -0.7117  0.2399
11396TIP3   OH255602   5.866   1.332  13.844 -0.1726  0.2837  0.6163
11396TIP3    H155603   5.805   1.274  13.888 -1.0945  1.9794  1.6632
11396TIP3    H255604   5.831   1.420  13.858  0.7553  1.0783 -1.5488
11397TIP3   OH255605   3.865   3.524  16.121 -0.1544  0.6326  0.1167
11397TIP3    H155606   3.863   3.573  16.039  0.8282 -1.3824 -1.1790
11397TIP3    H255607   3.780   3.480  16.124  0.4783 -0.6801 -0.7376
11398TIP3   OH255608   5.447   5.529  13.495  0.4565 -0.2228 -0.9779
11398TIP3    H155609   5.470   5.447  13.539  1.7193 -0.1140 -1.4014
11398TIP3    H255610   5.523   5.585  13.509 -0.1767  0.7013 -1.1522
11399TIP3   OH255611   5.593   4.414   4.759  0.2318 -0.0644  0.2586
11399TIP3    H155612   5.677   4.447   4.726 -0.7359  0.8159 -1.4636
11399TIP3    H255613   5.601   4.319   4.754  0.4235  0.0130 -1.8967
11400TIP3   OH255614   3.972   2.754   2.080  0.3215  0.8139  0.9416
11400TIP3    H155615   3.920   2.746   2.160  0.0686 -0.1757  0.6926
11400TIP3    H255616   4.008   2.667   2.066 -0.5625  0.6529 -0.6378
11401TIP3   OH255617   3.334   1.431  13.250  0.6074 -0.3370  0.2063
11401TIP3    H155618   3.420   1.472  13.239  0.7542 -0.6184  0.2836
11401TIP3    H255619   3.348   1.366  13.319 -0.2601  1.3010  1.9934
11402TIP3   OH255620   0.348   2.789  13.582 -0.1375 -0.3052 -0.4101
11402TIP3    H155621   0.392   2.867  13.550 -0.2778  0.7935  1.8761
11402TIP3    H255622   0.418   2.734  13.617 -0.1897 -0.4351 -0.5112
11403TIP3   OH255623   5.149   4.070   2.067 -0.1636 -0.0623  0.0702
11403TIP3    H155624   5.206   4.053   2.143  0.2666  1.0278  0.0161
11403TIP3    H255625   5.081   4.128   2.101  0.5452  1.1810 -0.5546
11404TIP3   OH255626   5.657   1.733   5.798 -0.2712 -0.3005  0.0396
11404TIP3    H155627   5.661   1.653   5.850  0.2113 -1.5143 -1.7854
11404TIP3    H255628   5.738   1.780   5.819 -0.3931 -0.4430  0.8579
11405TIP3   OH255629   1.166   4.686  14.298  0.5607  0.3093 -0.5686
11405TIP3    H155630   1.110   4.611  14.282 -0.2931  1.0672 -1.2347
11405TIP3    H255631   1.106   4.761  14.300  1.2301  0.8534  1.3214
11406TIP3   OH255632   2.068   1.611   4.753 -0.5279 -0.1366  1.3462
11406TIP3    H155633   2.092   1.693   4.710  1.0965  0.1310  2.6609
11406TIP3    H255634   2.024   1.560   4.685 -0.2151  1.2270  0.0765
11407TIP3   OH255635   6.607   2.218  12.172  0.3552  0.1202  0.2406
11407TIP3    H155636   6.684   2.275  12.164  0.1400  0.1998 -1.5032
11407TIP3    H255637   6.628   2.162  12.247  1.8938  0.4742  0.1244
11408TIP3   OH255638   6.619   6.676  13.554 -0.3532  0.1349  0.1151
11408TIP3    H155639   6.685   6.724  13.503  1.1971 -1.5764  0.4028
11408TIP3    H255640   6.631   6.706  13.644 -0.0193 -0.0963  0.1499
11409TIP3   OH255641   2.595   5.095  13.965  0.2821  0.3745  0.2612
11409TIP3    H155642   2.629   5.184  13.972  0.3437  0.4514 -0.8850
11409TIP3    H255643   2.649   5.044  14.026  1.0987  0.8858 -0.0166
11410TIP3   OH255644   1.711   3.831  12.188 -0.2447 -0.4678 -0.2726
11410TIP3    H155645   1.634   3.800  12.141  0.4934  1.0821 -2.6464
11410TIP3    H255646   1.722   3.921  12.160  2.4271 -0.6267  0.0021
11411TIP3   OH255647   6.049   1.139  11.403  0.3375 -1.2254  0.4334
11411TIP3    H155648   6.095   1.086  11.468  2.1069  1.4032  1.4635
11411TIP3    H255649   6.045   1.226  11.441 -1.8581 -0.3895 -1.4694
11412TIP3   OH255650   3.742   4.388  16.754 -0.1664  0.1396  0.3095
11412TIP3    H155651   3.722   4.298  16.731 -0.3176  0.5915 -1.5142
11412TIP3    H255652   3.747   4.434  16.670  3.8612  1.0354  0.8047
11413TIP3   OH255653   3.873   0.344  14.485 -0.8702  0.1349  0.6458
11413TIP3    H155654   3.838   0.255  14.494 -0.8597  0.1230  0.5694
11413TIP3    H255655   3.895   0.352  14.392  0.5885 -0.3278  0.9197
11414TIP3   OH255656   6.810   4.124  12.372  0.2683 -0.0097 -0.0590
11414TIP3    H155657   6.816   4.032  12.347  0.1626 -0.2238  0.6904
11414TIP3    H255658   6.830   4.125  12.466 -2.9447  0.2970  0.7178
11415TIP3   OH255659   3.996   1.595   0.354 -0.0233  0.0796  0.0752
11415TIP3    H155660   3.971   1.520   0.300 -1.1261 -0.5386  1.3999
11415TIP3    H255661   4.012   1.665   0.290 -0.5619 -0.8193 -1.0920
11416TIP3   OH255662   6.792   6.734  16.647 -0.5899 -0.2725  0.5951
11416TIP3    H155663   6.836   6.652  16.622 -0.9633 -0.0848 -0.7583
11416TIP3    H255664   6.856   6.779  16.703  0.8371 -0.1639 -1.0465
11417TIP3   OH255665   4.018   4.109   3.573  0.5790  0.0612 -0.8383
11417TIP3    H155666   4.082   4.142   3.510  1.8420  1.4178  1.0518
11417TIP3    H255667   3.974   4.188   3.605 -0.6966 -0.6845 -0.6755
11418TIP3   OH255668   6.456   2.855  13.397  0.2841 -0.2110 -0.2210
11418TIP3    H155669   6.466   2.760  13.390  2.7233  0.0612 -1.3053
11418TIP3    H255670   6.450   2.886  13.307  0.8977  0.7638  0.0522
11419TIP3   OH255671   3.072   5.088  14.057 -0.1786 -0.2689 -0.0480
11419TIP3    H155672   3.000   5.122  14.004 -2.6775 -4.0970  0.4778
11419TIP3    H255673   3.136   5.057  13.993 -0.5692  0.1724 -0.6631
11420TIP3   OH255674   0.590   5.966  12.962  0.4883 -0.0607  0.0174
11420TIP3    H155675   0.630   5.898  13.017 -0.7515  0.6071  1.8595
11420TIP3    H255676   0.506   5.929  12.934  0.0174  0.5079  0.6433
11421TIP3   OH255677   3.238   3.877  15.014 -0.2622 -0.6471 -0.2442
11421TIP3    H155678   3.197   3.857  15.098  0.6779  0.5256  0.5127
11421TIP3    H255679   3.203   3.962  14.989  2.4015  0.9354  0.9638
11422TIP3   OH255680   0.237   3.756  10.867 -0.0326  0.1559 -0.5417
11422TIP3    H155681   0.216   3.702  10.791 -0.3709 -0.7314  0.1746
11422TIP3    H255682   0.188   3.837  10.853 -0.4716 -0.1874 -1.0341
11423TIP3   OH255683   3.326   3.052  15.002  0.2215  0.1060 -0.4346
11423TIP3    H155684   3.315   2.968  14.957 -0.8175 -0.9407  1.5949
11423TIP3    H255685   3.374   3.030  15.082  0.2098  1.5007 -0.0142
11424TIP3   OH255686   5.940   0.734   0.287 -0.2752 -0.3914 -0.4178
11424TIP3    H155687   5.961   0.813   0.337  1.1791 -1.1990  0.3225
11424TIP3    H255688   5.905   0.767   0.204 -1.0750  1.0012  0.4259
11425TIP3   OH255689   3.569   3.400  16.087 -0.3065  0.5445  0.3081
11425TIP3    H155690   3.517   3.322  16.102  1.7449 -1.1657 -0.8911
11425TIP3    H255691   3.519   3.471  16.128 -3.2174 -1.0232 -0.2799
11426TIP3   OH255692   1.856   2.307   2.452 -0.3609  0.0508  0.5811
11426TIP3    H155693   1.926   2.242   2.445  2.3826  2.9199 -0.8696
11426TIP3    H255694   1.802   2.292   2.375 -0.2443 -0.9755  0.6838
11427TIP3   OH255695   6.537   6.418  13.833  0.1833 -0.3910 -0.7936
11427TIP3    H155696   6.520   6.325  13.821  0.2468 -0.5662  0.3691
11427TIP3    H255697   6.557   6.427  13.926  0.0816  0.7977 -0.8710
11428TIP3   OH255698   6.778   1.264   3.130  0.2693 -0.2332 -0.0801
11428TIP3    H155699   6.783   1.199   3.199 -1.6195 -0.1020  0.2231
11428TIP3    H255700   6.700   1.315   3.150 -0.3913 -0.2402 -2.3534
11429TIP3   OH255701   5.526   1.079   5.366  0.2758 -0.1255 -0.0724
11429TIP3    H155702   5.434   1.100   5.383  0.6042  0.4392  1.1582
11429TIP3    H255703   5.530   0.984   5.368 -0.2374 -0.1456  0.1555
11430TIP3   OH255704   2.529   0.977  15.376 -0.0256 -0.1529  0.4707
11430TIP3    H155705   2.521   0.941  15.464  1.2432  0.5945  0.9142
11430TIP3    H255706   2.523   0.900  15.319  1.4006 -0.9421  1.3251
11431TIP3   OH255707   3.640   0.407  12.002  0.1617 -0.1784  0.4712
11431TIP3    H155708   3.733   0.402  11.980  0.2795 -0.0075  0.9159
11431TIP3    H255709   3.623   0.330  12.056 -0.2314 -0.8418 -0.5622
11432TIP3   OH255710   2.369   1.229   3.855 -0.3142 -0.2614  0.1692
11432TIP3    H155711   2.284   1.207   3.817  0.6361 -1.1964 -1.5634
11432TIP3    H255712   2.380   1.167   3.927 -1.7712  0.9623  1.5160
11433TIP3   OH255713   4.239   1.553   0.496  0.1360  0.3504 -0.5836
11433TIP3    H155714   4.293   1.477   0.474  0.5044 -0.2711  2.1156
11433TIP3    H255715   4.154   1.534   0.456  0.8636 -0.3862 -1.8382
11434TIP3   OH255716   3.131   1.473   6.199  0.5277 -0.1396  0.1209
11434TIP3    H155717   3.160   1.384   6.179  0.8062  0.4152 -2.2823
11434TIP3    H255718   3.077   1.498   6.124  4.4159  3.3916 -1.9428
11435TIP3   OH255719   4.320   1.063   0.277 -0.0586  0.6669  0.1758
11435TIP3    H155720   4.403   1.016   0.266  0.2807  1.1862  0.4335
11435TIP3    H255721   4.260   0.998   0.312 -0.0342  0.0284 -0.9124
11436TIP3   OH255722   0.726   2.080  15.900  0.3860 -0.3476  0.3360
11436TIP3    H155723   0.731   2.029  15.819  2.9592  0.8909 -0.3764
11436TIP3    H255724   0.767   2.164  15.879 -0.3775  0.6371  2.4868
11437TIP3   OH255725   6.186   5.190   0.331  0.3278  0.0281  0.5204
11437TIP3    H155726   6.221   5.219   0.416  0.8051  1.3169 -0.0850
11437TIP3    H255727   6.257   5.208   0.269 -0.0571 -0.8025 -0.1704
11438TIP3   OH255728   3.508   5.077  16.557 -0.4686  0.1442 -0.2089
11438TIP3    H155729   3.596   5.093  16.590 -0.3523  0.0281 -0.4608
11438TIP3    H255730   3.499   4.981  16.558  0.2843  0.0045 -2.4173
11439TIP3   OH255731   2.496   4.777  12.163  0.0074  0.1744 -0.4846
11439TIP3    H155732   2.587   4.757  12.142 -0.1668 -2.9485  1.0831
11439TIP3    H255733   2.447   4.749  12.086  0.2846  0.7244 -0.8630
11440TIP3   OH255734   5.075   2.811   4.849 -0.0324 -0.0313 -0.0694
11440TIP3    H155735   4.989   2.768   4.850  0.9111 -2.0786 -0.3959
11440TIP3    H255736   5.102   2.807   4.757  0.7756 -0.2012  0.1704
11441TIP3   OH255737   4.385   3.102  13.675 -0.0564  0.4009 -0.7911
11441TIP3    H155738   4.387   3.191  13.709 -0.7882  0.7766 -1.6880
11441TIP3    H255739   4.476   3.072  13.682  0.0968  1.0238  0.0010
11442TIP3   OH255740   3.306   2.052  15.840 -0.0184 -0.5899 -0.2227
11442TIP3    H155741   3.323   1.959  15.855  0.3426 -0.5780 -0.5370
11442TIP3    H255742   3.211   2.060  15.838 -0.0463 -1.0203 -0.6387
11443TIP3   OH255743   1.049   2.279  14.526  0.0779  0.1168  0.3859
11443TIP3    H155744   1.001   2.231  14.593  0.4952 -2.3614 -0.9764
11443TIP3    H255745   1.134   2.235  14.522  1.7043  2.9401  1.1420
11444TIP3   OH255746   6.182   2.134  15.684  0.6152 -0.1715  0.0836
11444TIP3    H155747   6.219   2.212  15.642  1.4253 -1.1925 -1.1601
11444TIP3    H255748   6.159   2.076  15.612 -4.0856  0.5451  0.6377
11445TIP3   OH255749   2.219   0.369   2.639 -0.2103  0.6879 -1.0121
11445TIP3    H155750   2.221   0.274   2.648 -0.6190  0.7873  0.1870
11445TIP3    H255751   2.299   0.399   2.683 -1.0381  1.0142  0.3185
11446TIP3   OH255752   2.401   0.944   0.562  0.8388  0.2453  0.1799
11446TIP3    H155753   2.311   0.923   0.538  1.0405 -0.5480  0.0998
11446TIP3    H255754   2.394   0.986   0.648  0.3754  0.4735  0.0358
11447TIP3   OH255755   5.993   3.014   4.395 -0.5314  0.4565 -0.6188
11447TIP3    H155756   5.958   2.953   4.460 -0.2072  0.7776 -0.1386
11447TIP3    H255757   5.917   3.062   4.363 -0.6267  0.6906 -0.0606
11448TIP3   OH255758   3.835   4.413   2.207 -0.1691 -0.1285 -0.1265
11448TIP3    H155759   3.921   4.390   2.244  0.8076  2.4651 -0.5565
11448TIP3    H255760   3.778   4.422   2.283 -0.3066 -2.4866  0.1344
11449TIP3   OH255761   2.682   0.517  11.551  0.1231  0.0314 -0.5441
11449TIP3    H155762   2.621   0.457  11.595  0.1317 -0.8776 -1.7094
11449TIP3    H255763   2.762   0.465  11.539  0.9330  1.0154  0.4238
11450TIP3   OH255764   1.110   4.946   0.351  0.0016  0.3711  0.1185
11450TIP3    H155765   1.198   4.964   0.384  0.0745  1.0672 -0.4285
11450TIP3    H255766   1.116   4.860   0.311  0.6412  0.7340 -0.5892
11451TIP3   OH255767   3.817   2.434   5.702  0.3195  0.5095  0.2883
11451TIP3    H155768   3.828   2.383   5.783  1.1769 -0.5889 -0.4875
11451TIP3    H255769   3.878   2.394   5.640 -0.8706  0.8313 -1.1441
11452TIP3   OH255770   6.703   3.021   5.701  0.3662  0.6962 -0.1014
11452TIP3    H155771   6.662   2.965   5.634 -0.8342 -0.7173  1.7198
11452TIP3    H255772   6.641   3.093   5.712 -0.8327 -0.4780  1.3294
11453TIP3   OH255773   6.794   6.753  16.046 -0.6455 -0.0530  0.2506
11453TIP3    H155774   6.859   6.746  16.116  0.4991 -2.7291 -0.9531
11453TIP3    H255775   6.752   6.668  16.044  0.3050 -0.5819 -3.1374
11454TIP3   OH255776   1.648   1.935  11.660 -0.2948 -0.9624  0.0418
11454TIP3    H155777   1.692   1.972  11.583  0.2116  0.2673  0.8982
11454TIP3    H255778   1.719   1.906  11.717 -0.5987 -0.1721  0.8492
11455TIP3   OH255779   4.550   4.155   5.983  0.1256 -0.5651  0.7084
11455TIP3    H155780   4.484   4.090   5.958  0.2420 -0.4225  0.0114
11455TIP3    H255781   4.578   4.128   6.071 -0.5229 -0.8941  0.8234
11456TIP3   OH255782   5.469   6.707  16.971  0.0486  0.3248  0.3279
11456TIP3    H155783   5.456   6.633  17.031  1.0493 -1.7627 -1.8903
11456TIP3    H255784   5.535   6.762  17.015  2.9930 -2.6647  0.0093
11457TIP3   OH255785   5.183   2.865   1.162  0.0402 -0.0855  0.1046
11457TIP3    H155786   5.167   2.869   1.068  0.9500 -1.4532 -0.1406
11457TIP3    H255787   5.278   2.853   1.170  0.2954  2.2900  1.2980
11458TIP3   OH255788   1.538   5.234  12.110 -0.0369 -0.0847  0.2911
11458TIP3    H155789   1.527   5.161  12.170 -2.1759  0.7079  0.9688
11458TIP3    H255790   1.571   5.306  12.165 -2.2394  0.7166  0.6965
11459TIP3   OH255791   6.545   3.363   5.114  0.3685  0.0474  0.0353
11459TIP3    H155792   6.529   3.292   5.176  1.3336  0.9312  1.3501
11459TIP3    H255793   6.615   3.414   5.154  0.1581  1.3680 -1.2063
11460TIP3   OH255794   5.711   6.337  15.554 -0.3831  0.1843  0.3477
11460TIP3    H155795   5.760   6.336  15.472 -1.6612  0.2518 -0.4448
11460TIP3    H255796   5.722   6.249  15.590 -1.8603 -0.7013 -1.1997
11461TIP3   OH255797   6.460   0.917   1.494 -0.0804  0.6104  0.0704
11461TIP3    H155798   6.552   0.943   1.496 -0.4821  2.1179  0.8128
11461TIP3    H255799   6.415   0.993   1.455 -0.7665 -1.0648 -2.6937
11462TIP3   OH255800   0.857   5.336  13.369  0.2252  0.2102  0.2892
11462TIP3    H155801   0.863   5.424  13.407 -0.4512 -0.2757  1.5425
11462TIP3    H255802   0.934   5.290  13.402 -0.0339 -0.0240  0.5674
11463TIP3   OH255803   0.638   5.063   1.682  0.1761 -0.4765 -0.8020
11463TIP3    H155804   0.693   5.120   1.736  0.8708 -1.4474 -0.4596
11463TIP3    H255805   0.662   5.084   1.592 -1.2933  1.4656 -0.8061
11464TIP3   OH255806   0.588   2.477  15.249  0.2445 -0.0550  0.2545
11464TIP3    H155807   0.625   2.564  15.268 -0.9626  0.5328  0.0327
11464TIP3    H255808   0.514   2.469  15.309 -0.5979 -0.2633 -0.7812
11465TIP3   OH255809   5.815   2.519  12.193  0.3209  0.2565  0.2305
11465TIP3    H155810   5.910   2.516  12.191  0.3177  0.4476 -1.6792
11465TIP3    H255811   5.789   2.533  12.102 -1.5745 -1.3217  0.4475
11466TIP3   OH255812   2.860   6.094  13.577  0.1327  0.2494 -0.0509
11466TIP3    H155813   2.817   6.072  13.660  1.2033 -3.1176 -0.2474
11466TIP3    H255814   2.943   6.134  13.603 -0.0894  0.4095  0.4364
11467TIP3   OH255815   0.736   5.125  15.085 -0.6725  0.0443 -0.2738
11467TIP3    H155816   0.801   5.097  15.149  1.0801  0.5972 -1.7382
11467TIP3    H255817   0.756   5.074  15.006 -2.4734 -0.2771 -0.5606
11468TIP3   OH255818   1.231   1.422   0.932 -0.4094 -0.0998  0.5240
11468TIP3    H155819   1.322   1.452   0.928 -1.1410  2.2297 -0.6328
11468TIP3    H255820   1.221   1.365   0.856  0.2462 -1.0084  1.0916
11469TIP3   OH255821   3.953   4.162  16.504  0.1691  0.0297  0.4233
11469TIP3    H155822   4.015   4.218  16.550  0.4231  0.6388 -0.6235
11469TIP3    H255823   3.998   4.078  16.496  0.9733  0.5110 -0.4772
11470TIP3   OH255824   4.547   4.878   1.870 -0.0984  0.1045  0.1875
11470TIP3    H155825   4.546   4.974   1.871  1.0304  0.1840 -1.9224
11470TIP3    H255826   4.634   4.855   1.903  0.3831 -0.0988 -1.1700
11471TIP3   OH255827   3.925   1.687   5.073  0.2395  0.1949  0.4461
11471TIP3    H155828   3.972   1.679   4.990 -0.9506 -0.8286 -0.1696
11471TIP3    H255829   3.841   1.645   5.056 -0.9777  2.0986  1.4518
11472TIP3   OH255830   2.216   3.555  10.665 -0.4632 -0.0353  0.8261
11472TIP3    H155831   2.257   3.505  10.735  0.5814 -1.4410 -0.7118
11472TIP3    H255832   2.289   3.601  10.622 -0.9962  0.3253  0.2865
11473TIP3   OH255833   0.586   2.176   0.428  0.2234  0.1303  0.3640
11473TIP3    H155834   0.538   2.144   0.351 -1.2069 -0.1884  1.3386
11473TIP3    H255835   0.549   2.263   0.445  2.9943  1.7821 -1.3319
11474TIP3   OH255836   4.219   1.946  16.281 -0.3242 -0.2869 -0.1721
11474TIP3    H155837   4.192   1.912  16.196 -0.9678 -0.4048  0.0764
11474TIP3    H255838   4.176   1.889  16.345 -0.0905 -0.0122  0.2372
11475TIP3   OH255839   0.138   5.346  17.009  0.2118  0.6105 -0.1407
11475TIP3    H155840   0.233   5.348  16.993 -0.0278 -1.1631 -2.2298
11475TIP3    H255841   0.108   5.433  16.986  1.0686  0.5302 -1.7192
11476TIP3   OH255842   2.060   4.594  12.198  0.4350  0.1593 -0.1886
11476TIP3    H155843   2.129   4.554  12.250 -0.6883 -1.6208  0.0207
11476TIP3    H255844   1.979   4.558  12.233 -0.5147  0.9726 -1.4417
11477TIP3   OH255845   5.651   3.197   2.324 -0.5147  0.5149 -0.3596
11477TIP3    H155846   5.727   3.254   2.333 -0.5508  0.5275 -0.1137
11477TIP3    H255847   5.675   3.117   2.373 -0.7707  0.6350 -0.0306
11478TIP3   OH255848   4.901   6.070  12.143  0.5463 -0.4192 -0.3082
11478TIP3    H155849   4.947   6.013  12.205  2.1213  0.3664 -0.7005
11478TIP3    H255850   4.845   6.010  12.093  0.1692 -1.2315  1.0218
11479TIP3   OH255851   3.278   4.881  13.934  0.7223  0.4180 -0.7074
11479TIP3    H155852   3.231   4.852  13.856  1.7167 -0.9676 -0.8263
11479TIP3    H255853   3.230   4.844  14.007  0.9124  0.0626 -0.7635
11480TIP3   OH255854   3.265   5.719  14.186  0.1078  0.0492  0.2074
11480TIP3    H155855   3.182   5.763  14.171 -0.9726 -1.9444  0.0015
11480TIP3    H255856   3.327   5.790  14.205 -1.8530  1.5267  1.4792
11481TIP3   OH255857   0.402   5.447  16.846 -0.2787  0.0381 -0.1058
11481TIP3    H155858   0.397   5.519  16.783  0.9438 -0.0951 -0.3809
11481TIP3    H255859   0.450   5.484  16.921 -0.0566 -0.3425 -0.0544
11482TIP3   OH255860   5.826   0.477   5.934 -0.1529 -0.8455 -0.2052
11482TIP3    H155861   5.864   0.565   5.923  1.4887 -1.3512  1.0203
11482TIP3    H255862   5.742   0.493   5.977 -0.3451  0.1752 -0.9120
11483TIP3   OH255863   0.783   2.195   3.794 -0.5243  0.0713 -0.0295
11483TIP3    H155864   0.780   2.287   3.768 -1.2469  0.1384  0.2631
11483TIP3    H255865   0.748   2.194   3.883 -0.6026 -0.4961 -0.0619
11484TIP3   OH255866   3.393   1.473   2.205  0.0930  0.2514 -0.3869
11484TIP3    H155867   3.326   1.475   2.274  0.4604  1.6243 -0.0283
11484TIP3    H255868   3.450   1.548   2.225  0.1923  0.7010 -2.2136
11485TIP3   OH255869   6.632   4.591  11.858 -0.0270  0.5969 -0.3591
11485TIP3    H155870   6.643   4.536  11.781  1.2252  0.4630 -0.0960
11485TIP3    H255871   6.671   4.675  11.833 -0.6856  0.9400 -0.2724
11486TIP3   OH255872   2.705   6.038   2.602  0.2149  0.0463 -0.1707
11486TIP3    H155873   2.721   6.043   2.697 -0.0719 -0.9478 -0.0534
11486TIP3    H255874   2.614   6.009   2.596 -0.5982  2.5026 -0.7863
11487TIP3   OH255875   4.822   0.159  15.657 -0.6285 -0.5203  0.0442
11487TIP3    H155876   4.748   0.109  15.691 -0.4373 -0.5201  0.4779
11487TIP3    H255877   4.814   0.154  15.562 -1.2873 -0.3649  0.0891
11488TIP3   OH255878   3.596   6.774  13.491  0.7010 -0.1611  1.1987
11488TIP3    H155879   3.653   6.840  13.452  1.2911  0.5249  3.1172
11488TIP3    H255880   3.615   6.694  13.442  0.2711  0.9486 -0.9007
11489TIP3   OH255881   0.495   2.335  11.302  0.0990  0.0127 -0.1871
11489TIP3    H155882   0.492   2.425  11.270 -0.2753  0.0480 -0.0589
11489TIP3    H255883   0.408   2.319  11.338  0.3736 -0.1701  0.4245
11490TIP3   OH255884   1.405   1.233   4.178 -0.0722  0.2006 -0.4172
11490TIP3    H155885   1.387   1.318   4.137 -0.9709  0.9986  1.5183
11490TIP3    H255886   1.321   1.206   4.215  0.4433 -1.0384 -0.1005
11491TIP3   OH255887   2.734   2.696   1.744  0.0687  0.2457 -0.0100
11491TIP3    H155888   2.756   2.652   1.826 -2.2554  1.0268  1.1379
11491TIP3    H255889   2.811   2.684   1.688  1.3255 -1.1869  1.9061
11492TIP3   OH255890   6.448   5.816  12.306  0.0376 -0.6450 -0.0556
11492TIP3    H155891   6.464   5.866  12.386 -0.7038 -0.2613 -0.1385
11492TIP3    H255892   6.534   5.806  12.266  0.3797 -0.6342  0.6685
11493TIP3   OH255893   3.583   3.404  11.684  0.0475  0.1542 -0.4957
11493TIP3    H155894   3.537   3.463  11.624 -2.1285 -0.2988  0.6203
11493TIP3    H255895   3.592   3.322  11.636  0.7022  0.5758 -1.1128
11494TIP3   OH255896   5.353   5.916   1.592 -0.1571 -0.5216  0.4474
11494TIP3    H155897   5.352   5.890   1.500 -1.1357 -0.6757  0.4904
11494TIP3    H255898   5.446   5.918   1.615  0.0693 -1.1448 -0.3556
11495TIP3   OH255899   1.441   4.193  13.302 -0.2400  0.3915 -0.0179
11495TIP3    H155900   1.445   4.194  13.398  3.3295 -0.3285  0.0081
11495TIP3    H255901   1.471   4.280  13.276  0.0355  0.1697 -0.4515
11496TIP3   OH255902   1.081   2.188   3.491  0.4670  0.0938  0.3653
11496TIP3    H155903   1.020   2.251   3.529  1.1669  0.2378  1.2853
11496TIP3    H255904   1.103   2.226   3.405  2.2506  2.0968  1.6100
11497TIP3   OH255905   0.071   4.460   2.231 -0.6659  0.0753 -0.2724
11497TIP3    H155906  -0.017   4.487   2.206 -0.9699 -1.8280 -1.4947
11497TIP3    H255907   0.121   4.462   2.149 -0.2233 -1.0999 -0.0543
11498TIP3   OH255908   4.583   6.302  15.383  0.5152 -0.2006 -0.2251
11498TIP3    H155909   4.496   6.290  15.346  1.3386 -1.7741 -1.8002
11498TIP3    H255910   4.592   6.396  15.394 -1.0719  0.0438 -0.7758
11499TIP3   OH255911   1.108   2.632   3.502  0.5756 -0.6369 -0.7458
11499TIP3    H155912   1.189   2.650   3.453  0.9056  0.3446  0.1064
11499TIP3    H255913   1.051   2.706   3.480  0.5980 -0.3766  0.0521
11500TIP3   OH255914   0.959   3.474   2.682  0.2124 -0.0611 -0.2223
11500TIP3    H155915   1.011   3.502   2.758 -0.7868  0.5558  0.2654
11500TIP3    H255916   0.929   3.556   2.643  1.3185 -0.3478 -1.7428
11501TIP3   OH255917   4.814   5.664   4.414 -0.3574 -0.1605 -0.1330
11501TIP3    H155918   4.887   5.669   4.476 -1.3213 -0.2092  1.0228
11501TIP3    H255919   4.737   5.646   4.468 -1.0279 -1.5835 -1.4718
11502TIP3   OH255920   3.054   1.447  15.498 -0.3046  0.2863  0.2360
11502TIP3    H155921   2.967   1.444  15.459 -0.1382  0.5065 -0.1579
11502TIP3    H255922   3.053   1.377  15.564  0.2741 -2.0386 -2.0307
11503TIP3   OH255923   5.162   3.845  13.060 -0.0567 -0.2101 -0.0140
11503TIP3    H155924   5.228   3.863  13.127 -0.0198 -1.0567  0.1835
11503TIP3    H255925   5.090   3.803  13.107 -0.1638 -0.5301 -0.4535
11504TIP3   OH255926   4.336   0.441   5.355 -0.2945  0.1640 -0.1786
11504TIP3    H155927   4.361   0.511   5.416 -0.6546  0.0343  0.1226
11504TIP3    H255928   4.273   0.388   5.404  1.9517 -1.9964  0.6408
11505TIP3   OH255929   0.406   6.733  14.393  0.0167  0.0751  0.8497
11505TIP3    H155930   0.466   6.658  14.395  0.7206  0.6204  0.8539
11505TIP3    H255931   0.448   6.796  14.334 -0.7120  0.3473  0.6127
11506TIP3   OH255932   6.143   2.475  10.762  0.2241 -0.0026  0.0230
11506TIP3    H155933   6.092   2.464  10.842  1.8695 -1.5544  0.9315
11506TIP3    H255934   6.145   2.387  10.723  3.1087 -0.2855  0.6425
11507TIP3   OH255935   5.365   3.337  11.248 -0.1106 -0.2986 -0.7574
11507TIP3    H155936   5.436   3.288  11.290 -0.7874 -0.7164 -0.0558
11507TIP3    H255937   5.408   3.410  11.204  0.5760  0.8806  1.6632
11508TIP3   OH255938   3.803   3.270  13.109 -0.0202 -0.3025 -1.0920
11508TIP3    H155939   3.874   3.331  13.131 -0.5125 -0.3632  0.8400
11508TIP3    H255940   3.847   3.187  13.091  0.5764  0.3263 -2.7154
11509TIP3   OH255941   6.199   4.081   1.519  0.2976  0.3692  0.3583
11509TIP3    H155942   6.156   4.081   1.604  1.4549  1.1048  0.9686
11509TIP3    H255943   6.135   4.120   1.460 -1.1366 -1.5971  0.5180
11510TIP3   OH255944   2.788   0.049  10.569 -0.3363  0.0328  0.3829
11510TIP3    H155945   2.801   0.014  10.481 -1.2207 -1.3216  0.7558
11510TIP3    H255946   2.697   0.029  10.590  0.1149 -0.5615  1.9755
11511TIP3   OH255947   6.434   2.176   2.318 -0.0339  1.0906  0.1580
11511TIP3    H155948   6.491   2.252   2.312  0.5844  0.7600  1.4654
11511TIP3    H255949   6.493   2.102   2.328 -0.6566  0.7316  1.4657
11512TIP3   OH255950   2.649   0.998  11.617  0.3942  0.3618  0.3722
11512TIP3    H155951   2.557   0.983  11.640 -0.4574  0.5170 -2.5130
11512TIP3    H255952   2.693   0.917  11.642 -0.7779 -0.1835  0.7479
11513TIP3   OH255953   4.942   1.174   2.175  0.1052 -0.0889 -0.0522
11513TIP3    H155954   4.901   1.225   2.105  0.4661 -0.8434 -0.8222
11513TIP3    H255955   4.997   1.110   2.130  1.2221  0.1286  0.9365
11514TIP3   OH255956   4.490   3.871  11.922 -0.4005  0.3854 -0.5204
11514TIP3    H155957   4.453   3.857  12.008  1.5378 -0.8950  0.1715
11514TIP3    H255958   4.570   3.819  11.921 -0.0023  0.9052 -2.8527
11515TIP3   OH255959   0.460   3.662   4.647  0.1502  0.6589  0.5915
11515TIP3    H155960   0.500   3.672   4.733 -1.3036 -0.0741  1.3926
11515TIP3    H255961   0.438   3.569   4.640 -1.1766  0.9769  0.1105
11516TIP3   OH255962   2.197   2.639   6.361  0.1030  0.1123 -0.1698
11516TIP3    H155963   2.289   2.656   6.378 -0.2965  0.4156  2.0494
11516TIP3    H255964   2.163   2.723   6.329  0.0051  1.0399  2.1155
11517TIP3   OH255965   3.495   2.663  13.413  0.6294  0.0636 -0.2620
11517TIP3    H155966   3.558   2.593  13.399  1.5238  1.3156 -3.3564
11517TIP3    H255967   3.427   2.624  13.467  2.0713 -2.5471 -0.1754
11518TIP3   OH255968   6.248   5.721   4.961  0.5404 -0.6250  0.5784
11518TIP3    H155969   6.308   5.795   4.956  1.1286 -1.1614 -2.4272
11518TIP3    H255970   6.172   5.747   4.909  1.5382 -2.6343 -2.1425
11519TIP3   OH255971   5.494   0.342  12.307  0.1602 -0.3789 -0.5659
11519TIP3    H155972   5.510   0.422  12.256 -2.6310 -0.4735 -1.7927
11519TIP3    H255973   5.432   0.369  12.375 -1.0114 -1.5035 -1.1503
11520TIP3   OH255974   3.673   4.227   1.338 -0.8025  0.0453 -0.1957
11520TIP3    H155975   3.760   4.245   1.303 -0.1217 -2.3227  0.1006
11520TIP3    H255976   3.645   4.310   1.377  1.2984  0.8689 -0.3085
11521TIP3   OH255977   4.547   0.212   3.317 -0.0407 -0.0505 -0.1278
11521TIP3    H155978   4.568   0.299   3.349 -0.2735  0.0973 -0.3757
11521TIP3    H255979   4.631   0.176   3.286  0.2071 -0.2419  0.7526
11522TIP3   OH255980   3.249   5.293  16.625  0.9075  0.1702  0.2583
11522TIP3    H155981   3.192   5.325  16.556  0.0726 -0.0437  0.8263
11522TIP3    H255982   3.234   5.352  16.699 -1.5434 -2.0635  1.7244
11523TIP3   OH255983   5.661   2.963  12.042 -0.2724 -0.0931 -0.3317
11523TIP3    H155984   5.717   2.906  12.095 -0.6566 -1.7315 -1.6117
11523TIP3    H255985   5.678   2.936  11.952 -3.2841 -0.8419 -0.7587
11524TIP3   OH255986   2.469   3.384   0.301  0.2843  0.5107  0.5201
11524TIP3    H155987   2.384   3.407   0.339  0.9206  1.3000  1.5363
11524TIP3    H255988   2.464   3.290   0.284 -0.8391  0.5780  0.4313
11525TIP3   OH255989   3.344   6.329   3.806 -0.1236  0.2942 -0.0406
11525TIP3    H155990   3.381   6.408   3.767 -1.4252  0.2880 -1.3968
11525TIP3    H255991   3.325   6.272   3.731 -2.7715  0.2850  0.5373
11526TIP3   OH255992   0.454   5.354  13.736  0.1438 -0.1116 -0.0861
11526TIP3    H155993   0.434   5.262  13.722 -0.0399  0.0297 -0.7998
11526TIP3    H255994   0.502   5.380  13.658  1.6430 -0.0064  0.8243
11527TIP3   OH255995   0.873   2.271   3.219 -0.0838  0.2537  0.0916
11527TIP3    H155996   0.969   2.268   3.209  0.0835 -2.4904  1.6477
11527TIP3    H255997   0.859   2.323   3.298  0.0926  0.7641 -0.2046
11528TIP3   OH255998   5.614   3.699   5.658 -0.2676  0.4637  0.4038
11528TIP3    H155999   5.577   3.787   5.662  0.5841  0.9159 -1.0237
11528TIP3    H256000   5.684   3.700   5.724  0.8128  1.4255 -0.6998
11529TIP3   OH256001   5.187   6.406   4.940  0.0946 -0.2261  0.2401
11529TIP3    H156002   5.255   6.389   5.006  0.4252 -0.6229 -0.1923
11529TIP3    H256003   5.105   6.407   4.990  0.2077 -1.6628  0.5126
11530TIP3   OH256004   5.901   2.114  13.750  0.3008 -0.0451 -0.2722
11530TIP3    H156005   5.949   2.038  13.718 -1.3471 -0.4636 -1.9212
11530TIP3    H256006   5.967   2.182  13.761  1.4259 -0.9135 -1.3708
11531TIP3   OH256007   2.229   6.547  15.094  0.3827 -0.0876  0.8012
11531TIP3    H156008   2.287   6.472  15.107 -0.2380 -0.6977  0.1636
11531TIP3    H256009   2.226   6.559  14.999 -0.2433  0.1599  0.8447
11532TIP3   OH256010   2.539   2.250   0.290  0.0929 -0.3650 -0.2377
11532TIP3    H156011   2.608   2.191   0.258 -0.6359 -0.5172 -1.5981
11532TIP3    H256012   2.584   2.334   0.302  0.6548 -0.6184 -0.4936
11533TIP3   OH256013   1.871   3.724  13.927 -0.6448 -0.0982 -0.1534
11533TIP3    H156014   1.871   3.628  13.925 -0.9146 -0.1127  0.4558
11533TIP3    H256015   1.810   3.749  13.857 -0.4665 -0.3674 -0.4072
11534TIP3   OH256016   1.521   0.632  11.834  0.1959  1.1046  0.1125
11534TIP3    H156017   1.520   0.686  11.755  0.9755 -0.1799 -0.8106
11534TIP3    H256018   1.611   0.635  11.864  0.1229  0.7622  0.3736
11535TIP3   OH256019   2.116   5.816   2.664  0.2130  0.0692 -0.3242
11535TIP3    H156020   2.181   5.821   2.734 -0.3255  0.5438  0.1499
11535TIP3    H256021   2.167   5.795   2.586  0.5527 -3.0308  0.6050
11536TIP3   OH256022   0.937   6.551   5.817  0.1321 -0.5177  0.0889
11536TIP3    H156023   0.914   6.549   5.910  1.3067  0.3052  0.4242
11536TIP3    H256024   0.864   6.595   5.775  0.2724  0.4873  0.8560
11537TIP3   OH256025   4.052   4.728  12.931  0.4300  0.7443  0.4001
11537TIP3    H156026   4.080   4.818  12.916 -0.8224  0.9605 -0.8428
11537TIP3    H256027   3.968   4.736  12.976  0.2494  0.1971  0.1673
11538TIP3   OH256028   5.624   5.534   3.399 -0.1297  0.5912  0.0924
11538TIP3    H156029   5.621   5.542   3.495 -2.1898 -1.9694  0.3666
11538TIP3    H256030   5.706   5.489   3.381 -1.2726 -2.2006  1.1447
11539TIP3   OH256031   5.964   0.258  16.484 -0.2013 -0.0974  0.3533
11539TIP3    H156032   5.882   0.294  16.516 -0.4817 -1.5784  1.3972
11539TIP3    H256033   6.031   0.296  16.542 -0.2312  0.4370  0.0460
11540TIP3   OH256034   4.340   2.460   1.312 -0.1208  0.0908 -0.6058
11540TIP3    H156035   4.288   2.400   1.258 -0.1510 -0.1429 -0.3191
11540TIP3    H256036   4.302   2.452   1.400  1.2539 -1.1057 -0.0796
11541TIP3   OH256037   2.891   3.490  13.221 -0.1983 -0.7052 -0.0416
11541TIP3    H156038   2.897   3.466  13.128 -1.5085  1.0000 -0.6082
11541TIP3    H256039   2.895   3.407  13.267 -1.3996 -1.7525 -1.7278
11542TIP3   OH256040   1.677   0.689  12.758 -0.2540 -0.2289 -0.1368
11542TIP3    H156041   1.643   0.645  12.836 -1.2210 -1.6813 -1.3086
11542TIP3    H256042   1.770   0.667  12.756 -0.6457 -2.0411 -0.5138
11543TIP3   OH256043   4.348   6.333  16.849 -0.8135  0.0716  0.8130
11543TIP3    H156044   4.429   6.370  16.883 -0.5899  1.0185 -0.6695
11543TIP3    H256045   4.279   6.386  16.889 -0.5680  1.0174  0.0083
11544TIP3   OH256046   1.654   0.538   1.293  0.2407 -0.1901  0.7240
11544TIP3    H156047   1.637   0.632   1.291 -0.0542 -0.1758  2.6352
11544TIP3    H256048   1.667   0.514   1.201  0.4070  1.7237  0.2161
11545TIP3   OH256049   6.348   4.563   4.688 -0.0985  0.0062  0.4732
11545TIP3    H156050   6.301   4.613   4.755 -0.5285 -1.1315  1.0549
11545TIP3    H256051   6.405   4.627   4.646 -1.4179  1.2268  0.4348
11546TIP3   OH256052   3.721   5.744   1.382  0.5720 -0.2411 -0.3762
11546TIP3    H156053   3.695   5.689   1.456  0.6800  0.7473  0.4173
11546TIP3    H256054   3.732   5.683   1.310 -1.2731 -1.0200 -0.0421
11547TIP3   OH256055   2.870   2.266  16.299  0.1096  0.0393  0.3284
11547TIP3    H156056   2.877   2.235  16.208 -1.8320  0.8427 -0.1464
11547TIP3    H256057   2.905   2.355  16.297  1.9920 -0.6493  0.8492
11548TIP3   OH256058   5.663   3.297   3.055 -0.6212  0.5412  0.1660
11548TIP3    H156059   5.706   3.382   3.063 -0.0557  0.1772  1.3474
11548TIP3    H256060   5.653   3.267   3.146  2.4494 -2.2514 -0.2246
11549TIP3   OH256061   3.436   0.768   1.029 -0.6578 -0.0094 -0.4495
11549TIP3    H156062   3.408   0.831   1.096  1.8742  0.8518 -0.1096
11549TIP3    H256063   3.529   0.753   1.047 -0.3830 -1.2918 -2.5929
11550TIP3   OH256064   0.596   3.392  14.951  0.4109 -0.4018  0.3379
11550TIP3    H156065   0.616   3.483  14.971  0.0651  0.1129 -1.4641
11550TIP3    H256066   0.587   3.390  14.855 -1.7169 -1.8884  0.5120
11551TIP3   OH256067   0.552   3.091   1.104 -0.1618 -0.4389  0.6226
11551TIP3    H156068   0.464   3.128   1.104 -0.3636 -0.8441 -0.9462
11551TIP3    H256069   0.607   3.159   1.144 -1.2472 -0.4116  2.1363
11552TIP3   OH256070   1.435   1.205  15.720 -1.0269 -0.7964 -1.0565
11552TIP3    H156071   1.459   1.291  15.684 -0.7077 -0.6211 -0.4464
11552TIP3    H256072   1.502   1.187  15.786 -3.3225  0.4390  1.8777
11553TIP3   OH256073   0.001   1.233   3.844 -0.0615 -0.1157  0.1605
11553TIP3    H156074  -0.007   1.235   3.749  0.1497  1.7583  0.1432
11553TIP3    H256075  -0.077   1.280   3.876  0.7276  0.7924  0.8110
11554TIP3   OH256076   0.163   5.714  12.681 -0.1712 -0.1928  0.0076
11554TIP3    H156077   0.185   5.805  12.704  0.6769 -0.0643 -1.1828
11554TIP3    H256078   0.216   5.661  12.741 -0.0010  0.1169  0.1339
11555TIP3   OH256079   1.839   0.007  14.094 -0.0614  0.0713 -0.1003
11555TIP3    H156080   1.749  -0.026  14.097 -0.3414  0.8525  0.4063
11555TIP3    H256081   1.883  -0.048  14.029 -0.4977 -1.3316  0.7432
11556TIP3   OH256082   3.057   1.238  15.702  0.1153  0.5683  0.0212
11556TIP3    H156083   3.087   1.188  15.778  1.6749  0.8741 -0.3520
11556TIP3    H256084   2.964   1.217  15.695  0.7104 -2.5121 -0.2713
11557TIP3   OH256085   3.597   6.773   3.564  0.0227  0.3669 -0.4873
11557TIP3    H156086   3.622   6.791   3.655  2.2187 -2.8601 -0.2584
11557TIP3    H256087   3.678   6.783   3.514 -0.8308  0.6658 -1.8684
11558TIP3   OH256088   3.159   6.017  15.803 -0.2709  0.4220  0.2040
11558TIP3    H156089   3.139   6.100  15.761  1.0121  0.8620  0.4349
11558TIP3    H256090   3.245   6.029  15.842  0.2557 -1.2194 -0.3325
11559TIP3   OH256091   3.012   0.955  14.893  0.1230 -0.0148 -0.4326
11559TIP3    H156092   3.088   0.898  14.910 -0.2098 -0.7971 -1.4596
11559TIP3    H256093   3.049   1.043  14.891  1.0255 -0.3865 -0.9880
11560TIP3   OH256094   0.603   1.682   0.652  0.1997 -0.0687  0.6104
11560TIP3    H156095   0.555   1.618   0.600  0.0160  0.0395  0.6457
11560TIP3    H256096   0.535   1.736   0.693  0.2998 -0.8162  1.8103
11561TIP3   OH256097   5.795   6.457   5.569  0.5974 -0.4716  0.5418
11561TIP3    H156098   5.759   6.439   5.482 -1.6095  0.0850  1.2880
11561TIP3    H256099   5.857   6.528   5.554 -1.3248  1.1226 -0.3342
11562TIP3   OH256100   3.650   5.413  11.067  0.1709 -0.2376 -0.6033
11562TIP3    H156101   3.687   5.497  11.039 -0.4573  0.4936  0.6710
11562TIP3    H256102   3.565   5.409  11.023  0.3959 -0.4251 -1.0254
11563TIP3   OH256103   1.236   1.500   2.969 -0.2288  0.0431 -0.0772
11563TIP3    H156104   1.300   1.562   2.935 -3.0785  2.1581 -2.0993
11563TIP3    H256105   1.182   1.552   3.029 -0.9309 -1.2619  0.4772
11564TIP3   OH256106   2.528   2.251   4.782  0.3037 -0.2047 -0.0648
11564TIP3    H156107   2.503   2.246   4.874 -3.3666  0.7406 -0.8278
11564TIP3    H256108   2.479   2.181   4.740  1.0819  0.0529 -1.4676
11565TIP3   OH256109   4.455   2.403   0.979  0.9377  0.0484 -0.4317
11565TIP3    H156110   4.463   2.352   1.059  1.4007 -1.1501 -1.2123
11565TIP3    H256111   4.543   2.439   0.964  0.7488  0.6135 -0.1761
11566TIP3   OH256112   6.621   0.605  15.665 -0.2910  0.2731  0.4052
11566TIP3    H156113   6.560   0.602  15.591  0.5397 -1.7371 -0.2557
11566TIP3    H256114   6.704   0.631  15.625  0.1267 -0.6756  0.6575
11567TIP3   OH256115   0.727   3.934   3.106 -0.0604 -0.4908 -0.4373
11567TIP3    H156116   0.745   3.842   3.086  0.3178 -0.4740 -0.1914
11567TIP3    H256117   0.678   3.932   3.188 -0.0441 -0.4710 -0.4272
11568TIP3   OH256118   5.823   4.080  16.908 -1.0550  0.4109  0.3718
11568TIP3    H156119   5.750   4.029  16.873 -1.4374 -0.1264  1.8768
11568TIP3    H256120   5.901   4.039  16.871 -1.4686  1.3339 -1.7010
11569TIP3   OH256121   6.530   4.126  14.715 -0.2672  0.0414 -0.7018
11569TIP3    H156122   6.573   4.208  14.740 -0.9957  1.2332 -3.0891
11569TIP3    H256123   6.594   4.058  14.738  0.3904  1.2263  1.2596
11570TIP3   OH256124   1.194   1.111   4.375 -0.4439  0.4208  0.3013
11570TIP3    H156125   1.271   1.113   4.431 -2.6299 -0.4176  3.5828
11570TIP3    H256126   1.205   1.033   4.321  1.2809  0.7104  0.1823
11571TIP3   OH256127   2.017   6.264  11.625  0.3996  0.1377  0.0608
11571TIP3    H156128   2.028   6.215  11.543  2.8799 -0.3065  0.6071
11571TIP3    H256129   1.927   6.299  11.619 -0.1829 -1.4895 -1.9410
11572TIP3   OH256130   5.143   6.408   4.031  0.1508 -0.0607  0.3611
11572TIP3    H156131   5.220   6.385   4.084 -0.0556  0.5067  0.9206
11572TIP3    H256132   5.136   6.336   3.968  1.0931 -0.1662  0.3508
11573TIP3   OH256133   2.692   0.226   1.976  0.2651 -0.7295 -0.3681
11573TIP3    H156134   2.683   0.297   2.040  0.8396  0.1263 -1.1988
11573TIP3    H256135   2.669   0.267   1.893  0.2001 -1.6393 -0.8032
11574TIP3   OH256136   3.034   2.240  12.692 -0.3951  0.1494 -0.3493
11574TIP3    H156137   3.109   2.181  12.685 -0.9516 -0.8363  1.2479
11574TIP3    H256138   3.054   2.296  12.767 -1.7862 -1.0759  1.0306
11575TIP3   OH256139   1.964   2.179  16.824  0.2040  0.7687  0.2933
11575TIP3    H156140   2.022   2.188  16.749  0.0946  0.4232  0.1624
11575TIP3    H256141   1.897   2.116  16.795 -0.6556  1.7002  0.1830
11576TIP3   OH256142   3.969   3.884   5.353  0.3154  0.4343  0.4501
11576TIP3    H156143   3.967   3.978   5.336 -0.0322  0.0407 -1.9787
11576TIP3    H256144   3.908   3.872   5.427  0.3670  2.0880  0.7988
11577TIP3   OH256145   2.380   2.736   1.903  0.1799  0.0619  0.6700
11577TIP3    H156146   2.475   2.747   1.901  0.1878 -0.0518 -0.1490
11577TIP3    H256147   2.360   2.688   1.822 -0.5607  0.0031  0.8807
11578TIP3   OH256148   0.711   5.432  12.359 -0.1107 -0.4906  0.2654
11578TIP3    H156149   0.656   5.366  12.401 -1.6465  1.2483  1.1599
11578TIP3    H256150   0.657   5.467  12.288 -0.1442  1.0747  0.9985
11579TIP3   OH256151   3.603   0.484   3.251  0.3184  0.1878 -0.8566
11579TIP3    H156152   3.643   0.571   3.254  0.9533 -0.1283  0.3239
11579TIP3    H256153   3.677   0.423   3.256 -0.2536 -0.4188  1.9485
11580TIP3   OH256154   2.273   3.675   3.672 -0.4630 -0.4886 -0.4093
11580TIP3    H156155   2.296   3.599   3.620  0.2981 -0.1805 -0.5356
11580TIP3    H256156   2.278   3.748   3.610  0.6910 -0.0839  0.1340
11581TIP3   OH256157   1.198   1.709  13.537 -1.0762  0.5078 -0.3925
11581TIP3    H156158   1.201   1.623  13.495 -0.5970 -0.3217  1.2763
11581TIP3    H256159   1.280   1.751  13.510 -0.4655 -0.2713  0.2112
11582TIP3   OH256160   6.717   1.119  16.404 -0.1694  0.3162  0.0359
11582TIP3    H156161   6.690   1.183  16.339 -0.1160  0.6433  0.3312
11582TIP3    H256162   6.654   1.047  16.396  1.1164 -0.6770 -1.9058
11583TIP3   OH256163   5.172   3.172  16.805  0.3199  0.0773  0.4103
11583TIP3    H156164   5.234   3.100  16.820  1.4215  1.4089  3.0439
11583TIP3    H256165   5.216   3.228  16.741 -0.3015 -1.2249 -1.2361
11584TIP3   OH256166   5.796   4.779   1.425  0.5689  0.2064  0.2308
11584TIP3    H156167   5.748   4.843   1.478 -0.4766 -0.7238  0.4382
11584TIP3    H256168   5.855   4.832   1.371  0.4352  1.2718  1.1035
11585TIP3   OH256169   3.408   0.225   3.278 -0.1237 -0.4081 -0.0291
11585TIP3    H156170   3.373   0.257   3.195  0.3774  0.1163 -0.0509
11585TIP3    H256171   3.391   0.296   3.340  1.4932  0.1658 -0.1966
11586TIP3   OH256172   2.422   0.920   2.398  0.0285 -0.2440  0.7810
11586TIP3    H156173   2.467   0.960   2.324 -2.1951  0.4499 -0.2902
11586TIP3    H256174   2.345   0.878   2.359 -0.1282 -1.6296  2.4738
11587TIP3   OH256175   2.500   1.799  11.872  0.0209  0.2150  0.2716
11587TIP3    H156176   2.452   1.725  11.834 -0.1505 -0.0807  1.0437
11587TIP3    H256177   2.538   1.844  11.797  0.7601 -1.0878 -0.1709
11588TIP3   OH256178   2.887   3.115   6.367  0.3539 -0.1488 -0.5877
11588TIP3    H156179   2.944   3.051   6.324 -0.5155 -0.5367 -1.1751
11588TIP3    H256180   2.799   3.082   6.353 -0.0781  0.9351 -0.4760
11589TIP3   OH256181   2.071   4.919  12.930 -0.0655 -0.6101  0.3793
11589TIP3    H156182   2.114   4.848  12.882  0.9512  0.7958 -0.8970
11589TIP3    H256183   1.984   4.925  12.891 -0.7604 -2.1403  1.5819
11590TIP3   OH256184   2.985   4.312  10.748 -0.7233 -0.0453 -0.5594
11590TIP3    H156185   3.048   4.293  10.679 -3.2766 -1.8697 -2.6012
11590TIP3    H256186   2.954   4.400  10.729  2.5026  1.7675  1.7153
11591TIP3   OH256187   3.440   5.831  11.990 -0.6391 -0.2275 -0.0793
11591TIP3    H156188   3.423   5.899  11.924  1.6961  2.7012  2.0661
11591TIP3    H256189   3.526   5.796  11.966 -1.4883 -1.9763 -0.7150
11592TIP3   OH256190   4.723   2.848   5.168  0.0767  0.1959  0.1728
11592TIP3    H156191   4.706   2.893   5.086 -2.2392  1.2820  1.1673
11592TIP3    H256192   4.716   2.755   5.147 -0.1148  0.4498 -0.9193
11593TIP3   OH256193   6.292   1.668   3.599  0.3720 -0.6295 -0.8077
11593TIP3    H156194   6.253   1.587   3.565  0.4016 -1.3844  0.8969
11593TIP3    H256195   6.386   1.658   3.582  0.3336 -0.7909 -0.9269
11594TIP3   OH256196   4.835   5.329   3.539 -0.5669  0.0883  0.2923
11594TIP3    H156197   4.858   5.377   3.619 -1.0103 -0.5918  0.8423
11594TIP3    H256198   4.808   5.243   3.570 -1.6424  0.1116 -0.5196
11595TIP3   OH256199   6.480   6.442   5.463 -0.1995  0.4527 -0.9777
11595TIP3    H156200   6.547   6.426   5.529 -0.4550 -0.5716 -0.9571
11595TIP3    H256201   6.489   6.535   5.442  0.9362  0.4279 -0.6634
11596TIP3   OH256202   4.625   2.894  13.384 -0.4540 -0.0804  0.1212
11596TIP3    H156203   4.702   2.946  13.363  0.1473 -0.3538  1.5194
11596TIP3    H256204   4.631   2.816  13.329  0.5285 -0.3178  0.5533
11597TIP3   OH256205   4.592   4.287   5.426 -1.0270 -0.5737 -0.2609
11597TIP3    H156206   4.638   4.305   5.345 -1.8749  3.2102 -0.0533
11597TIP3    H256207   4.563   4.196   5.417  0.1132 -0.7378 -3.5148
11598TIP3   OH256208   6.642   6.033   5.178 -0.2070  0.1216 -0.1889
11598TIP3    H156209   6.554   6.068   5.191  0.1985  1.9627 -1.8804
11598TIP3    H256210   6.699   6.093   5.226  0.0534 -3.4112  4.7150
11599TIP3   OH256211   5.815   3.171  12.071 -0.1598  0.0115  0.0449
11599TIP3    H156212   5.741   3.110  12.072 -0.1347 -0.0659 -1.3005
11599TIP3    H256213   5.893   3.115  12.076 -0.0503 -0.3141 -3.1478
11600TIP3   OH256214   0.563   3.250  11.603  0.4896 -0.1060 -0.3188
11600TIP3    H156215   0.632   3.309  11.636  1.4185 -1.1095 -0.4042
11600TIP3    H256216   0.483   3.283  11.643  0.9744  1.2044 -0.3498
11601TIP3   OH256217   3.391   5.549  11.315  0.8738  0.2653 -0.6753
11601TIP3    H156218   3.466   5.491  11.325  0.1169 -0.9266 -1.6373
11601TIP3    H256219   3.428   5.637  11.310  2.4190 -0.4620 -3.4650
11602TIP3   OH256220   3.355   1.316  12.185  0.3210 -0.2745 -0.3856
11602TIP3    H156221   3.366   1.222  12.170 -0.7027 -0.5253  0.3151
11602TIP3    H256222   3.296   1.345  12.116  0.0756 -0.2891 -0.1814
11603TIP3   OH256223   6.484   6.215  10.142  0.1596  0.0729 -0.4085
11603TIP3    H156224   6.412   6.236  10.202  0.6895  3.0658 -0.6470
11603TIP3    H256225   6.443   6.210  10.056  0.2912  3.7538 -0.8581
11604TIP3   OH256226   2.929   5.807  13.750  0.2411 -0.7871 -0.3534
11604TIP3    H156227   2.932   5.746  13.824 -0.9554 -0.8963 -0.3643
11604TIP3    H256228   2.940   5.893  13.789  0.6279 -0.9143 -0.1768
11605TIP3   OH256229   3.432   3.312  13.551 -0.1630  0.1077 -0.3760
11605TIP3    H156230   3.474   3.278  13.630 -1.6289  0.2461  0.4896
11605TIP3    H256231   3.503   3.317  13.487  0.9058 -0.7145  0.6951
11606TIP3   OH256232   0.940   0.356   4.423  0.0122 -0.5010 -0.3785
11606TIP3    H156233   0.911   0.268   4.446  0.3751 -0.0011  2.3012
11606TIP3    H256234   0.860   0.401   4.395 -0.2214 -1.5647 -1.4724
11607TIP3   OH256235   1.519   3.400  15.402  0.8887  0.5302 -0.2594
11607TIP3    H156236   1.593   3.409  15.462  1.0597 -0.3323 -0.3251
11607TIP3    H256237   1.547   3.334  15.338  0.1100  0.2568 -0.3388
11608TIP3   OH256238   6.327   1.653  14.935  0.1017 -0.1761 -0.7397
11608TIP3    H156239   6.383   1.679  15.009 -1.2642 -0.6294  0.4937
11608TIP3    H256240   6.321   1.732  14.881  1.1196  0.1683 -0.3663
11609TIP3   OH256241   5.777   2.719  14.931  0.1416 -0.5391 -0.3013
11609TIP3    H156242   5.714   2.767  14.985  0.3413  0.3374 -0.8253
11609TIP3    H256243   5.821   2.659  14.992 -0.8209 -0.7886  0.1665
11610TIP3   OH256244   1.217   3.553  15.217  0.2839  0.1906  0.6010
11610TIP3    H156245   1.259   3.629  15.176  2.3313  0.2959  2.6912
11610TIP3    H256246   1.132   3.587  15.248  0.9414  1.5032  1.0546
11611TIP3   OH256247   5.685   0.928   2.804  0.7077  0.1516  0.4549
11611TIP3    H156248   5.697   1.002   2.864  1.4669 -0.1344  0.6548
11611TIP3    H256249   5.754   0.866   2.826 -1.1731 -1.6149  1.7453
11612TIP3   OH256250   5.228   0.322   0.798 -0.1913 -0.2122 -0.8500
11612TIP3    H156251   5.175   0.265   0.853 -0.1891  0.4789 -0.1170
11612TIP3    H256252   5.314   0.279   0.795 -0.5271 -0.8814 -1.3323
11613TIP3   OH256253   3.667   1.924  14.337  0.2563  0.2758  0.1359
11613TIP3    H156254   3.655   1.994  14.400 -1.0369 -0.6668  0.9875
11613TIP3    H256255   3.668   1.968  14.252  0.3766  1.3966  0.6993
11614TIP3   OH256256   4.314   5.340   3.641 -0.4734 -0.2732  0.2234
11614TIP3    H156257   4.291   5.330   3.733  1.1285 -0.0431  0.6774
11614TIP3    H256258   4.356   5.257   3.617 -0.5097 -0.1814 -0.1783
11615TIP3   OH256259   5.760   4.114  12.999 -0.1684 -0.3074 -0.2598
11615TIP3    H156260   5.788   4.062  12.924 -0.6661 -0.7754 -0.1303
11615TIP3    H256261   5.686   4.165  12.966  0.1889  0.1749 -0.3304
11616TIP3   OH256262   2.728   1.356  14.459  0.4227 -0.0938  0.5004
11616TIP3    H156263   2.739   1.381  14.551 -2.3914 -3.8008  2.1067
11616TIP3    H256264   2.807   1.307  14.437  1.7056  1.9148  0.4024
11617TIP3   OH256265   1.582   4.531  16.615  0.2347  0.7800  0.4976
11617TIP3    H156266   1.616   4.612  16.653 -2.1551  2.0727  0.0773
11617TIP3    H256267   1.498   4.556  16.576 -0.6129 -1.9221  0.3837
11618TIP3   OH256268   0.958   1.093  12.612 -0.4707  0.3242 -0.5723
11618TIP3    H156269   0.964   1.003  12.646 -0.3754  0.0779 -1.2313
11618TIP3    H256270   0.864   1.112  12.612 -0.3862  1.2711  2.2107
11619TIP3   OH256271   1.561   3.597  13.803  0.2428 -0.2170 -0.2819
11619TIP3    H156272   1.617   3.665  13.764 -1.1704  0.9416 -0.3802
11619TIP3    H256273   1.565   3.615  13.897  0.2802 -0.3308 -0.2617
11620TIP3   OH256274   1.057   4.387   2.377  0.1538  0.5380 -0.2851
11620TIP3    H156275   0.967   4.389   2.347 -0.5806 -1.5073  1.5689
11620TIP3    H256276   1.077   4.294   2.390  2.2927  0.9764  0.0399
11621TIP3   OH256277   1.516   0.370   0.819  0.5760 -0.3293 -0.4463
11621TIP3    H156278   1.491   0.433   0.752  0.7088  1.1306  0.8107
11621TIP3    H256279   1.438   0.315   0.831 -1.1300  2.2808  1.3492
11622TIP3   OH256280   0.364   1.467  14.876 -1.1603 -0.5677  0.1802
11622TIP3    H156281   0.386   1.413  14.800 -1.1035  0.3243 -0.4390
11622TIP3    H256282   0.315   1.541  14.840 -1.4572 -0.3244  1.0558
11623TIP3   OH256283   0.395   2.114  12.820 -0.0879 -0.0275  0.1023
11623TIP3    H156284   0.486   2.136  12.802  0.2028  0.0935  1.5881
11623TIP3    H256285   0.345   2.187  12.783  0.0059 -1.8830 -4.2859
11624TIP3   OH256286   3.863   1.462   0.568  0.2257  0.0305  0.1148
11624TIP3    H156287   3.911   1.510   0.501 -1.7828  1.5859 -0.2795
11624TIP3    H256288   3.932   1.420   0.620  1.9302  0.8038 -1.3932
11625TIP3   OH256289   0.695   0.149   5.306  0.3357 -0.1365  0.2203
11625TIP3    H156290   0.739   0.137   5.222  0.6074  1.2561  0.1309
11625TIP3    H256291   0.756   0.203   5.358 -1.5274  2.6096 -0.2182
11626TIP3   OH256292   4.240   3.665  16.506 -0.0937  0.6600  0.1109
11626TIP3    H156293   4.179   3.599  16.473 -0.9855  1.9721 -0.9689
11626TIP3    H256294   4.322   3.646  16.460 -0.3802  0.4071 -0.3023
11627TIP3   OH256295   6.356   0.366  14.390  0.1421  0.6916  0.2297
11627TIP3    H156296   6.265   0.357  14.414  0.5439  1.3436  2.1300
11627TIP3    H256297   6.356   0.360  14.294 -1.6344 -1.1610  0.2920
11628TIP3   OH256298   0.439   1.297  10.712 -0.0005  0.2419  0.0264
11628TIP3    H156299   0.406   1.256  10.632 -0.9313 -0.1595  0.5826
11628TIP3    H256300   0.472   1.382  10.685  1.8047 -0.7787 -1.1432
11629TIP3   OH256301   3.602   3.738   4.748  0.0211 -0.1640  0.4300
11629TIP3    H156302   3.629   3.817   4.702 -2.5176  1.1322  1.0403
11629TIP3    H256303   3.567   3.681   4.679 -0.5360  0.3162  0.3143
11630TIP3   OH256304   6.365   4.915   5.360  0.0776 -0.3298  0.4622
11630TIP3    H156305   6.333   4.836   5.317  0.5678 -0.1922 -0.1791
11630TIP3    H256306   6.409   4.884   5.439  0.2851 -0.6992  0.2048
11631TIP3   OH256307   5.595   1.468   5.009  0.1028  0.2960  0.1951
11631TIP3    H156308   5.603   1.553   4.967  0.5466 -0.3151 -1.0006
11631TIP3    H256309   5.613   1.485   5.101  0.5370  1.4373 -0.0887
11632TIP3   OH256310   3.147   5.331   6.239  0.0282 -0.2468 -0.1478
11632TIP3    H156311   3.121   5.274   6.311 -0.2440  1.6376  1.3197
11632TIP3    H256312   3.064   5.369   6.207  0.2037 -0.6212 -1.0839
11633TIP3   OH256313   5.801   2.087  14.917  0.1610  0.1382  0.0347
11633TIP3    H156314   5.758   2.013  14.960  0.8445 -0.0187  0.4724
11633TIP3    H256315   5.849   2.130  14.988  1.6024 -0.3239 -0.6198
11634TIP3   OH256316   3.771   1.972   5.046  0.0611  0.1480 -0.6844
11634TIP3    H156317   3.764   1.920   4.966 -0.7144 -1.4307  0.3384
11634TIP3    H256318   3.857   1.950   5.082 -0.7786 -1.5847  0.4295
11635TIP3   OH256319   0.137   3.953  13.743  0.7585  0.1488 -0.2006
11635TIP3    H156320   0.200   3.900  13.793  1.2254  0.5431 -0.3646
11635TIP3    H256321   0.186   3.982  13.666  0.0843 -0.3499 -0.8367
11636TIP3   OH256322   1.473   4.094  12.604  0.3908 -0.2600  0.0851
11636TIP3    H156323   1.416   4.170  12.591  0.7492 -0.1988 -1.3748
11636TIP3    H256324   1.472   4.049  12.519  1.6963 -0.8275  0.3504
11637TIP3   OH256325   1.512   4.766   1.963  0.3141 -0.6530  0.2064
11637TIP3    H156326   1.495   4.832   1.896 -0.0967  0.1227  1.0461
11637TIP3    H256327   1.558   4.696   1.917  1.9727  0.7908 -0.4524
11638TIP3   OH256328   6.706   4.578  16.309 -0.1523 -0.1880 -0.0936
11638TIP3    H156329   6.716   4.621  16.394 -2.6387 -0.4659  0.3885
11638TIP3    H256330   6.795   4.552  16.285  0.6694  0.3071  2.1872
11639TIP3   OH256331   0.144   5.982  10.554  0.7553  0.7539 -0.2120
11639TIP3    H156332   0.071   5.925  10.531  1.4386  0.4863 -1.8256
11639TIP3    H256333   0.162   6.032  10.475  1.1497  2.1450  0.7222
11640TIP3   OH256334   4.609   1.258  14.489  0.0910 -0.3236  0.3589
11640TIP3    H156335   4.600   1.310  14.568  0.6373  1.3326 -0.6150
11640TIP3    H256336   4.660   1.181  14.516 -0.8728 -0.4656  1.8601
11641TIP3   OH256337   5.774   2.328  12.396  0.0926 -0.0891 -0.0466
11641TIP3    H156338   5.679   2.312  12.400  0.1313 -0.1098  1.5044
11641TIP3    H256339   5.789   2.364  12.309 -1.0741 -1.7886 -1.0143
11642TIP3   OH256340   1.577   4.396   3.685 -0.6131  0.1183  0.4115
11642TIP3    H156341   1.497   4.405   3.634 -0.5780 -2.2379 -0.1739
11642TIP3    H256342   1.647   4.394   3.620 -0.2992 -0.0906  0.7550
11643TIP3   OH256343   0.691   0.197   3.823  0.5951  0.6598  0.2750
11643TIP3    H156344   0.640   0.144   3.884  0.6169 -0.9103 -1.0014
11643TIP3    H256345   0.675   0.156   3.738 -0.8461  3.7817 -1.1209
11644TIP3   OH256346   3.241   6.665  14.580  0.7986 -0.0703 -0.1456
11644TIP3    H156347   3.191   6.735  14.621  1.3294 -0.0390  0.4752
11644TIP3    H256348   3.311   6.645  14.643 -0.6136 -2.6524  0.7446
11645TIP3   OH256349   1.409   4.192   2.217  0.1843 -0.0429 -0.2524
11645TIP3    H156350   1.386   4.159   2.130 -2.4292  1.3815 -0.2100
11645TIP3    H256351   1.374   4.126   2.277  1.7149 -0.8701 -0.2109
11646TIP3   OH256352   6.147   2.938   1.875 -0.0193  0.3217  0.2733
11646TIP3    H156353   6.064   2.972   1.910  0.5741  1.8641  0.2597
11646TIP3    H256354   6.158   2.854   1.920 -1.8372 -0.1849 -0.1229
11647TIP3   OH256355   0.047   5.157   5.645 -0.0122  0.1500 -0.3582
11647TIP3    H156356   0.122   5.125   5.595 -1.4592 -0.8462 -1.9744
11647TIP3    H256357  -0.028   5.109   5.611 -1.3799  0.8937  1.4131
11648TIP3   OH256358   2.048   6.167   0.971 -0.1239  0.0050 -0.9072
11648TIP3    H156359   2.012   6.207   0.892 -0.5058  0.0262 -0.7228
11648TIP3    H256360   2.062   6.075   0.946 -0.7208 -0.1077 -0.8461
11649TIP3   OH256361   4.722   3.241  14.163 -0.3549  0.2279 -0.0809
11649TIP3    H156362   4.715   3.171  14.098  0.2311 -1.3160  1.4325
11649TIP3    H256363   4.750   3.196  14.243 -0.1470  2.1861  1.0021
11650TIP3   OH256364   1.894   3.623  16.123  0.4142 -0.1934 -0.7671
11650TIP3    H156365   1.891   3.681  16.046 -0.6886 -0.9482 -1.3192
11650TIP3    H256366   1.890   3.683  16.198 -1.2850  0.4802 -1.3302
11651TIP3   OH256367   3.201   0.383  11.089  0.3485 -0.0308 -0.0106
11651TIP3    H156368   3.292   0.399  11.067  0.5720 -0.4021  0.6273
11651TIP3    H256369   3.168   0.467  11.122 -0.1746  0.7330 -2.2713
11652TIP3   OH256370   2.602   1.594   2.494  0.3277  0.3103 -0.2330
11652TIP3    H156371   2.550   1.547   2.429  0.3083  0.2604 -0.1806
11652TIP3    H256372   2.594   1.686   2.468  0.0333  0.3240 -0.0967
11653TIP3   OH256373   3.261   4.698  15.017 -0.3217  0.3120 -0.1290
11653TIP3    H156374   3.289   4.624  14.962 -1.4806 -0.2203 -0.0219
11653TIP3    H256375   3.215   4.756  14.956 -0.5190  0.3268  0.0350
11654TIP3   OH256376   5.220   3.242   0.338 -0.2681 -0.0025  0.3840
11654TIP3    H156377   5.243   3.226   0.430  1.0065 -0.5299  0.0008
11654TIP3    H256378   5.149   3.306   0.342 -0.3381 -0.1251  1.7370
11655TIP3   OH256379   6.804   3.654   3.931 -0.4017  0.0644  0.3997
11655TIP3    H156380   6.814   3.668   4.026  0.0018  1.1876  0.2090
11655TIP3    H256381   6.865   3.584   3.910 -1.7785 -1.4625  1.2546
11656TIP3   OH256382   6.485   4.917   4.720  0.4928  0.3537  0.6605
11656TIP3    H156383   6.482   4.952   4.631  2.0961 -1.2758 -0.1014
11656TIP3    H256384   6.417   4.850   4.722  1.5994 -0.8381  0.0387
11657TIP3   OH256385   3.237   1.869  15.193  0.8535  0.0063  0.5436
11657TIP3    H156386   3.303   1.809  15.227  1.2704  0.2082  0.0981
11657TIP3    H256387   3.184   1.816  15.134  1.7011  0.2405 -0.4557
11658TIP3   OH256388   5.303   0.193   5.446  0.2538 -0.6898 -0.3675
11658TIP3    H156389   5.226   0.225   5.494  1.4049  0.9299  0.4900
11658TIP3    H256390   5.368   0.174   5.514  1.2811 -0.1509 -1.1702
11659TIP3   OH256391   6.698   6.403   0.565 -0.3088 -0.2507  0.1873
11659TIP3    H156392   6.612   6.444   0.564 -0.1415  0.1474  1.0251
11659TIP3    H256393   6.699   6.351   0.645 -0.0973 -0.9864 -0.2799
11660TIP3   OH256394   3.608   2.895   1.167  0.1766  0.2663  0.4239
11660TIP3    H156395   3.529   2.893   1.222  0.3460 -1.3259  0.6677
11660TIP3    H256396   3.680   2.876   1.227  0.5465  0.0819 -0.0668
11661TIP3   OH256397   5.905   0.726  16.140 -0.1489 -0.0945  0.0096
11661TIP3    H156398   5.979   0.665  16.148 -0.2320 -0.1521  0.3671
11661TIP3    H256399   5.853   0.691  16.068  0.1577 -0.0696 -0.2238
11662TIP3   OH256400   0.911   0.634  14.261  0.2576  0.6168 -0.1274
11662TIP3    H156401   0.950   0.667  14.342  0.8296  0.2366 -0.2380
11662TIP3    H256402   0.963   0.556  14.240 -1.5649 -0.8415  0.5532
11663TIP3   OH256403   6.447   4.841   0.605  0.0955  0.3672  0.0533
11663TIP3    H156404   6.395   4.766   0.575 -1.6100  1.1197  0.9681
11663TIP3    H256405   6.430   4.846   0.699  0.2130  1.8731  0.0181
11664TIP3   OH256406   6.710   3.989   2.543  1.0663  0.1694 -0.0769
11664TIP3    H156407   6.705   4.084   2.546 -1.7182  0.1479 -0.7466
11664TIP3    H256408   6.803   3.969   2.530  1.5631  2.8256 -1.1309
11665TIP3   OH256409   4.354   5.577  13.341  0.3027  0.0930  0.2214
11665TIP3    H156410   4.450   5.569  13.344  0.3733  0.9093  2.7233
11665TIP3    H256411   4.331   5.554  13.251  2.8852  0.4055 -0.6186
11666TIP3   OH256412   6.052   5.048  11.426 -0.0933 -0.3236 -0.1500
11666TIP3    H156413   6.078   4.982  11.490 -0.9120 -1.3717 -0.8547
11666TIP3    H256414   6.043   5.129  11.476 -0.3467 -1.0378  0.9942
11667TIP3   OH256415   6.172   3.369  16.360  0.3401 -0.1111  0.1860
11667TIP3    H156416   6.192   3.353  16.268 -3.8279 -1.1281 -0.7251
11667TIP3    H256417   6.167   3.282  16.399  0.1385  0.2099  0.8893
11668TIP3   OH256418   0.803   2.239   6.480 -0.0459 -0.0592  0.0958
11668TIP3    H156419   0.762   2.167   6.526 -2.0562  1.6644  1.1662
11668TIP3    H256420   0.859   2.281   6.545  0.0301  0.1614 -0.1085
11669TIP3   OH256421   0.001   4.555   0.958 -0.2588 -0.4900  0.1189
11669TIP3    H156422  -0.082   4.522   0.994 -0.9724  1.3784  0.3071
11669TIP3    H256423  -0.013   4.555   0.863  0.0093 -1.3628  0.0741
11670TIP3   OH256424   0.167   0.409  12.360 -0.2413  0.2612 -0.3394
11670TIP3    H156425   0.113   0.382  12.434  0.3840 -0.0580  0.0061
11670TIP3    H256426   0.105   0.420  12.288 -0.8161  0.2742  0.1459
11671TIP3   OH256427   2.502   2.217  12.656 -0.3190 -0.0148 -0.2525
11671TIP3    H156428   2.433   2.251  12.713 -0.3424  0.4638 -0.5591
11671TIP3    H256429   2.583   2.241  12.700 -0.3313  0.6391 -0.5690
11672TIP3   OH256430   1.826   6.771   5.204  0.3838  0.4321  0.1024
11672TIP3    H156431   1.868   6.853   5.227  1.5878  0.4925 -2.0269
11672TIP3    H256432   1.891   6.724   5.152 -0.8280 -1.1940 -0.0439
11673TIP3   OH256433   5.225   0.335  15.917  0.4364  0.5155  0.2851
11673TIP3    H156434   5.233   0.363  16.008  1.6898 -0.9448  0.6677
11673TIP3    H256435   5.138   0.296  15.912  0.3027  0.7362  0.8160
11674TIP3   OH256436   1.941   1.176   1.900  1.1861  0.0696  0.1918
11674TIP3    H156437   1.987   1.104   1.856 -0.3681  0.1983 -1.7718
11674TIP3    H256438   1.892   1.219   1.830 -1.6692  0.1343  2.0712
11675TIP3   OH256439   2.356   3.964  13.322 -0.4350  0.0524  0.3460
11675TIP3    H156440   2.392   3.933  13.239 -2.0331  0.2999 -0.4917
11675TIP3    H256441   2.262   3.947  13.314 -0.9340  2.1891  1.1658
11676TIP3   OH256442   5.191   1.664   2.679 -0.0113 -0.0589 -0.0138
11676TIP3    H156443   5.194   1.583   2.730 -1.0054 -0.8582 -1.1746
11676TIP3    H256444   5.256   1.721   2.721  1.0208 -1.5957  0.5747
11677TIP3   OH256445   1.711   5.190   0.473  0.3751 -0.4071  0.0429
11677TIP3    H156446   1.715   5.106   0.519  2.1176 -0.2065  0.3286
11677TIP3    H256447   1.770   5.247   0.522 -0.2826  0.8056 -0.5325
11678TIP3   OH256448   1.173   3.752  17.036  0.2189  0.4965  0.0650
11678TIP3    H156449   1.247   3.785  17.088  1.0913 -2.2116  0.6928
11678TIP3    H256450   1.118   3.829  17.022  0.9078  1.7657  3.3804
11679TIP3   OH256451   5.614   2.815  14.576 -0.4536 -0.2665 -0.0237
11679TIP3    H156452   5.579   2.843  14.661 -0.6205  0.1884 -0.2395
11679TIP3    H256453   5.677   2.747  14.597  0.3797  0.6625  0.5510
11680TIP3   OH256454   5.590   5.229  13.330 -0.3409 -0.2032  0.3359
11680TIP3    H156455   5.588   5.136  13.351  0.0746 -0.1190  0.7642
11680TIP3    H256456   5.505   5.247  13.290 -0.7712 -0.5742  1.0740
11681TIP3   OH256457   5.471   1.578  15.495  0.0385  0.2058  0.4642
11681TIP3    H156458   5.532   1.602  15.564  0.0272  1.9140 -0.0537
11681TIP3    H256459   5.483   1.484  15.483  1.5359  0.2506  1.3458
11682TIP3   OH256460   5.022   0.445  10.597 -0.6390 -0.0798 -0.5433
11682TIP3    H156461   4.939   0.462  10.643  0.2675  2.2945  0.3467
11682TIP3    H256462   5.077   0.519  10.619  1.5390 -1.2792 -1.6627
11683TIP3   OH256463   5.319   5.563   3.748  0.0521  0.5679  0.0596
11683TIP3    H156464   5.412   5.553   3.729 -0.0015  0.2387 -0.0361
11683TIP3    H256465   5.308   5.521   3.833  0.1134  1.1971  0.3859
11684TIP3   OH256466   3.997   1.316  15.175  0.4018 -0.2075  0.6414
11684TIP3    H156467   3.981   1.406  15.146  2.8215  0.3967  0.9326
11684TIP3    H256468   3.913   1.272  15.164 -0.9288  2.1326  0.7215
11685TIP3   OH256469   3.578   6.467  11.345  0.2855 -0.1502  0.4309
11685TIP3    H156470   3.575   6.513  11.262 -1.2601  2.1863  1.6759
11685TIP3    H256471   3.519   6.392  11.333 -0.1652  0.3397 -0.4738
11686TIP3   OH256472   2.775   0.878  14.969  0.1252 -0.2397 -0.6909
11686TIP3    H156473   2.862   0.895  14.931  1.0419 -0.8060  1.0459
11686TIP3    H256474   2.760   0.951  15.029 -0.0818 -0.7177 -0.1445
11687TIP3   OH256475   3.650   1.732  15.066  0.2298 -0.1017 -0.5443
11687TIP3    H156476   3.660   1.791  15.142  0.6833  1.0610 -1.4675
11687TIP3    H256477   3.555   1.727  15.053  0.1844  0.6749 -0.6132
11688TIP3   OH256478   4.229   1.420  15.630 -0.3114  0.0353 -0.2206
11688TIP3    H156479   4.195   1.508  15.645 -0.0293  0.7537 -3.0770
11688TIP3    H256480   4.208   1.402  15.538  2.0626 -1.7219 -0.5256
11689TIP3   OH256481   3.722   2.263  11.996  0.2702  0.2097 -0.6006
11689TIP3    H156482   3.771   2.218  12.065 -1.4060  0.8373  1.1056
11689TIP3    H256483   3.762   2.350  11.992 -0.1312  0.4373  0.1698
11690TIP3   OH256484   4.018   6.080  15.761 -0.3264 -0.5484  0.0490
11690TIP3    H156485   4.025   6.050  15.852  0.3644  4.4103  1.9522
11690TIP3    H256486   3.924   6.075  15.742 -0.5180 -1.4265  1.1163
11691TIP3   OH256487   4.220   5.271  13.246 -0.1096 -0.1113 -0.1392
11691TIP3    H156488   4.140   5.219  13.237  0.3085 -0.9317  0.6830
11691TIP3    H256489   4.215   5.308  13.335  2.0218 -3.0866  1.4159
11692TIP3   OH256490   6.144   1.200  13.825  0.0477  0.5152 -0.0669
11692TIP3    H156491   6.057   1.236  13.842  0.2921  1.5755 -0.9666
11692TIP3    H256492   6.199   1.235  13.896 -0.6611 -1.9077  1.7907
11693TIP3   OH256493   5.229   0.052  15.161  0.4814 -0.1971 -0.1436
11693TIP3    H156494   5.302   0.062  15.222  1.6096 -0.0511 -1.4662
11693TIP3    H256495   5.234  -0.039  15.133  1.1336  0.2102 -1.4068
11694TIP3   OH256496   6.774   2.047   4.980 -0.0641  0.0254  0.3090
11694TIP3    H156497   6.785   2.142   4.974 -0.4681  0.0751  0.3223
11694TIP3    H256498   6.692   2.036   5.029 -0.6398 -0.3221 -0.7105
11695TIP3   OH256499   6.724   3.531  11.764 -0.5540  0.1532  0.6570
11695TIP3    H156500   6.685   3.520  11.678 -0.3891 -2.1266  0.8247
11695TIP3    H256501   6.679   3.468  11.820  1.1543 -0.3143  1.5899
11696TIP3   OH256502   3.193   4.194   1.631  0.0608  0.3268  0.4328
11696TIP3    H156503   3.182   4.284   1.660 -1.6414 -0.0876  1.1758
11696TIP3    H256504   3.217   4.146   1.711  1.5569  0.1803 -0.0629
11697TIP3   OH256505   1.651   2.393  16.355  0.0339  0.7184 -0.1984
11697TIP3    H156506   1.735   2.438  16.344  1.3225 -1.1123  1.5295
11697TIP3    H256507   1.671   2.301  16.341 -1.0905 -0.0681  2.6374
11698TIP3   OH256508   4.965   3.703   5.032 -0.2228  0.2382 -0.3099
11698TIP3    H156509   4.949   3.779   5.089 -0.7411  0.3309 -0.5719
11698TIP3    H256510   5.059   3.688   5.038 -0.1045  0.9297 -0.2775
11699TIP3   OH256511   5.347   0.940   3.178 -0.2899 -0.7239 -0.2552
11699TIP3    H156512   5.297   0.965   3.100 -0.7011  0.6071  0.4154
11699TIP3    H256513   5.431   0.909   3.143  0.8546  2.9431 -1.1677
11700TIP3   OH256514   0.838   5.415  15.633 -0.1054 -0.0393  0.1359
11700TIP3    H156515   0.837   5.444  15.542 -0.6870 -0.4545  0.0035
11700TIP3    H256516   0.851   5.321  15.629  0.7510  0.0559  0.5239
11701TIP3   OH256517   2.756   3.558  10.716 -0.1822 -0.1755  0.2423
11701TIP3    H156518   2.837   3.585  10.759  0.2075  0.3633 -0.7832
11701TIP3    H256519   2.706   3.639  10.706 -1.0112 -0.5536  1.1606
11702TIP3   OH256520   0.680   4.355   5.257 -0.8149  0.2468 -0.4756
11702TIP3    H156521   0.742   4.414   5.214  0.1314 -0.5082 -0.1817
11702TIP3    H256522   0.615   4.413   5.297  0.1757  1.0956 -0.0559
11703TIP3   OH256523   3.327   3.417   4.876 -0.1720  0.4140  0.3615
11703TIP3    H156524   3.417   3.394   4.852 -0.6751 -0.8553 -0.4327
11703TIP3    H256525   3.332   3.439   4.969  1.2539  2.0994 -0.0515
11704TIP3   OH256526   1.201   3.259  13.806  0.1998  0.2407 -0.0741
11704TIP3    H156527   1.182   3.230  13.895  1.3805  0.6169  0.3223
11704TIP3    H256528   1.169   3.349  13.802 -3.9306 -1.1023 -1.4613
11705TIP3   OH256529   3.435   3.722  11.878 -0.0703 -0.1881 -0.3773
11705TIP3    H156530   3.409   3.776  11.803  0.3810  1.5867  0.6888
11705TIP3    H256531   3.404   3.634  11.856  0.7158  0.0963 -2.9717
11706TIP3   OH256532   6.429   4.328  11.591  0.3397 -0.1309  0.3256
11706TIP3    H156533   6.420   4.233  11.582  2.2632 -0.2333 -1.1764
11706TIP3    H256534   6.519   4.340  11.623  0.3845  1.2061 -0.2538
11707TIP3   OH256535   4.510   2.937  11.870 -0.0958 -0.9751  0.2439
11707TIP3    H156536   4.448   2.967  11.804  0.2272 -0.4083  0.1936
11707TIP3    H256537   4.536   3.016  11.917  0.8479 -1.1421  0.0334
11708TIP3   OH256538   6.211   2.120  13.405  0.6552  0.2722 -0.2950
11708TIP3    H156539   6.177   2.096  13.491 -0.4548  3.1680  0.1704
11708TIP3    H256540   6.268   2.047  13.381 -1.8644 -2.3786  1.1929
11709TIP3   OH256541   5.291   3.621   6.040  0.5606 -0.1717 -0.4034
11709TIP3    H156542   5.315   3.705   6.000 -0.0608  0.8563  1.2916
11709TIP3    H256543   5.220   3.642   6.100  1.2406 -1.6833  1.0172
11710TIP3   OH256544   0.320   1.101   3.403 -0.7403 -0.4784 -0.2213
11710TIP3    H156545   0.362   1.015   3.408 -2.6063 -1.4760 -0.7091
11710TIP3    H256546   0.361   1.152   3.472 -0.1769 -2.0451  0.6500
11711TIP3   OH256547   5.145   4.185  14.071  0.2278  0.7148 -0.0235
11711TIP3    H156548   5.099   4.169  13.989  0.2236  0.7406 -0.0261
11711TIP3    H256549   5.229   4.223  14.045  1.1611 -1.3100 -0.1596
11712TIP3   OH256550   6.354   6.192  13.926  0.1571  0.3815 -1.0676
11712TIP3    H156551   6.419   6.207  13.995 -1.3705 -0.2445  0.5732
11712TIP3    H256552   6.368   6.102  13.898 -0.7431 -0.1769  0.1705
11713TIP3   OH256553   4.371   3.618   0.718 -0.9083 -0.0027 -0.2720
11713TIP3    H156554   4.415   3.543   0.757 -1.5927 -0.8278 -1.0443
11713TIP3    H256555   4.400   3.693   0.770  1.9707 -0.3874 -1.1724
11714TIP3   OH256556   2.181   2.300  12.787  0.4074  0.6060 -0.2342
11714TIP3    H156557   2.192   2.205  12.792  0.6462  0.6904  0.9771
11714TIP3    H256558   2.160   2.316  12.695  0.3266 -0.6207 -0.4492
11715TIP3   OH256559   5.208   6.765   6.029  0.1030  0.0637 -0.2501
11715TIP3    H156560   5.170   6.813   6.102  0.8036  1.5218 -0.8019
11715TIP3    H256561   5.260   6.696   6.070  0.5493  0.9080  0.6388
11716TIP3   OH256562   2.427   5.384   2.957  1.0374  0.5537 -0.8578
11716TIP3    H156563   2.373   5.343   2.889  2.3892  0.7724 -2.0956
11716TIP3    H256564   2.373   5.456   2.990  0.2837  0.3296 -1.5664
11717TIP3   OH256565   2.270   2.510  15.640  0.3476 -0.1379 -0.5826
11717TIP3    H156566   2.297   2.482  15.727 -1.3003 -0.3279 -0.1067
11717TIP3    H256567   2.334   2.470  15.581  0.9438 -0.7554  0.4592
11718TIP3   OH256568   2.063   3.788  15.724  0.0795 -0.2658  0.1132
11718TIP3    H156569   2.155   3.807  15.709 -0.2488  1.2744 -0.0687
11718TIP3    H256570   2.029   3.764  15.638  0.3598 -1.1577  0.2370
11719TIP3   OH256571   0.708   0.026  15.776 -0.3108  0.3113 -0.4912
11719TIP3    H156572   0.670   0.049  15.692 -0.6378  0.7157 -0.2371
11719TIP3    H256573   0.784   0.084  15.785 -0.7259  0.8127 -0.1654
11720TIP3   OH256574   0.012   3.358  15.751 -0.6618  0.2385  0.0940
11720TIP3    H156575   0.003   3.281  15.808 -1.4819  0.5860  0.4536
11720TIP3    H256576   0.017   3.322  15.663 -3.6836 -0.1707 -0.0019
11721TIP3   OH256577   4.944   4.546   0.389  0.0898 -0.1801  0.3730
11721TIP3    H156578   5.006   4.593   0.333 -0.7322 -0.9218 -1.1933
11721TIP3    H256579   4.999   4.512   0.461  1.0983  1.0761  0.2362
11722TIP3   OH256580   4.746   5.416  12.038 -0.7227  0.0875 -0.0192
11722TIP3    H156581   4.760   5.360  11.961 -1.3337 -1.8958  1.2425
11722TIP3    H256582   4.685   5.483  12.007 -2.2628 -1.6093 -0.9288
11723TIP3   OH256583   0.372   1.482  16.643 -0.3583 -0.5512 -0.4516
11723TIP3    H156584   0.280   1.502  16.659  0.2596  1.5733  0.8682
11723TIP3    H256585   0.419   1.530  16.711  1.7885 -0.8767 -1.6211
11724TIP3   OH256586   5.313   1.727  17.074 -0.0322  0.6336  0.3344
11724TIP3    H156587   5.366   1.693  17.002 -1.0787 -0.6467  0.1282
11724TIP3    H256588   5.309   1.655  17.137 -4.0957 -0.6507 -1.0704
11725TIP3   OH256589   3.840   5.152   4.774  0.2710 -0.1844  0.0875
11725TIP3    H156590   3.810   5.228   4.823 -0.0702  1.2729 -2.2330
11725TIP3    H256591   3.925   5.177   4.738 -0.0067 -0.7080 -1.0063
11726TIP3   OH256592   4.307   0.357  16.518 -0.5408  0.4138 -0.5666
11726TIP3    H156593   4.315   0.264  16.540  0.2942  0.4383 -0.7613
11726TIP3    H256594   4.218   0.365  16.482 -0.0699 -0.6398 -2.0838
11727TIP3   OH256595   4.353   2.396  16.607  0.7380 -0.0963 -0.1684
11727TIP3    H156596   4.308   2.361  16.531  1.2361 -0.7136 -0.1897
11727TIP3    H256597   4.313   2.481  16.622 -1.2685 -1.0978  0.5218
11728TIP3   OH256598   2.128   3.693   3.927 -0.1040 -0.0104  0.0847
11728TIP3    H156599   2.177   3.692   3.845 -1.0145  2.0306 -0.5374
11728TIP3    H256600   2.128   3.784   3.955  0.7428 -0.7341  2.7551
11729TIP3   OH256601   4.226   4.596  10.589  0.4469 -0.4002  0.0463
11729TIP3    H156602   4.262   4.509  10.573 -0.3552 -0.6750 -0.3297
11729TIP3    H256603   4.154   4.581  10.651  0.5315  0.0434  0.2540
11730TIP3   OH256604   2.182   4.017  12.615 -0.3071 -0.1902 -0.3573
11730TIP3    H156605   2.182   3.921  12.612 -2.4253 -0.4656  3.1514
11730TIP3    H256606   2.268   4.040  12.650 -0.7305 -1.0666  1.3589
11731TIP3   OH256607   2.329   0.859  12.563 -0.1957 -0.2542 -1.0646
11731TIP3    H156608   2.301   0.768  12.577 -2.6953  0.2557 -2.2263
11731TIP3    H256609   2.283   0.886  12.484  1.4232  1.6932 -1.4046
11732TIP3   OH256610   4.048   5.539  15.800 -0.1992 -0.0211 -0.1501
11732TIP3    H156611   4.105   5.599  15.848  1.0001 -0.8238 -0.5114
11732TIP3    H256612   3.999   5.493  15.869  0.4251 -0.1116  0.2476
11733TIP3   OH256613   2.820   6.546  12.769  0.1908 -0.1457  0.3110
11733TIP3    H156614   2.746   6.580  12.819 -0.5502  1.8081 -1.9488
11733TIP3    H256615   2.780   6.482  12.709  0.7071 -0.7303  0.5800
11734TIP3   OH256616   0.564   3.394   0.714 -0.3444  0.1579 -0.2053
11734TIP3    H156617   0.558   3.307   0.674  1.6239  0.4207 -1.1824
11734TIP3    H256618   0.596   3.377   0.803  0.9870 -0.0845 -0.7123
11735TIP3   OH256619   3.340   5.619  12.656  0.0093 -0.1773  0.2624
11735TIP3    H156620   3.391   5.539  12.642  2.0534  0.8693  1.2841
11735TIP3    H256621   3.275   5.595  12.722  0.3229 -1.1016  0.2513
11736TIP3   OH256622   5.012   2.833   1.820 -0.2407 -0.6834 -0.2865
11736TIP3    H156623   5.087   2.813   1.764  0.0359 -0.0891 -0.1385
11736TIP3    H256624   5.021   2.774   1.895  0.2425 -0.4176 -0.1311
11737TIP3   OH256625   5.494   2.370   5.001 -0.6020  0.4319 -0.4432
11737TIP3    H156626   5.468   2.431   5.069 -0.2428 -0.0162  0.1060
11737TIP3    H256627   5.435   2.295   5.011 -1.3873  0.8894 -1.4484
11738TIP3   OH256628   0.310   6.414   2.249 -0.4560 -0.1074  0.9303
11738TIP3    H156629   0.261   6.485   2.207  1.3084  0.2239 -0.7240
11738TIP3    H256630   0.284   6.335   2.202  1.7962  0.3139 -1.2318
11739TIP3   OH256631   3.111   4.806  13.704  0.5293  0.5319  0.4818
11739TIP3    H156632   3.141   4.806  13.613 -0.6259 -0.6962  0.0704
11739TIP3    H256633   3.059   4.886  13.712  0.1427  0.3513 -0.1340
11740TIP3   OH256634   3.030   2.910   3.322  0.2426  0.5708 -0.0606
11740TIP3    H156635   2.951   2.927   3.270 -0.3367 -0.3005  0.5198
11740TIP3    H256636   3.097   2.888   3.257 -0.0928  0.9142 -0.5285
11741TIP3   OH256637   3.390   1.234  12.528  0.0009 -0.1902  0.3740
11741TIP3    H156638   3.316   1.276  12.572 -0.5027  0.3463 -0.9448
11741TIP3    H256639   3.416   1.164  12.588 -1.6329 -0.4543  0.8293
11742TIP3   OH256640   4.780   5.851   2.260  0.1016  0.2135 -0.0671
11742TIP3    H156641   4.710   5.807   2.309 -0.6625  3.6548  2.3149
11742TIP3    H256642   4.860   5.833   2.309  0.2765 -0.6140 -0.6306
11743TIP3   OH256643   6.011   6.100   0.966  0.2010  0.3607 -0.1245
11743TIP3    H156644   6.065   6.026   0.993  0.5215  0.0959 -1.4088
11743TIP3    H256645   6.024   6.166   1.034  0.6683 -0.4020  0.5387
11744TIP3   OH256646   1.911   2.024   0.418  0.1004  0.5121  0.2076
11744TIP3    H156647   1.963   1.999   0.342 -1.4053 -1.9464 -0.1397
11744TIP3    H256648   1.820   2.021   0.387 -0.4135  2.0881  1.4410
11745TIP3   OH256649   4.831   2.345  12.927 -0.0958 -0.6624 -0.4886
11745TIP3    H156650   4.872   2.388  13.002 -0.1011  0.3213 -1.0409
11745TIP3    H256651   4.738   2.364  12.936  0.0536  0.7072 -1.5056
11746TIP3   OH256652   2.544   2.706   4.550  0.0261  0.0667  0.4939
11746TIP3    H156653   2.509   2.632   4.500  1.9375  0.4864 -1.6634
11746TIP3    H256654   2.477   2.774   4.540  0.7537  0.4945 -2.5949
11747TIP3   OH256655   0.016   0.475   2.653  0.5396 -0.2984  0.3475
11747TIP3    H156656  -0.042   0.542   2.617 -0.2537 -0.3769  1.4060
11747TIP3    H256657   0.042   0.422   2.578  0.6609  0.7926 -0.4092
11748TIP3   OH256658   1.138   4.906  13.836 -0.0094  0.4415  0.7530
11748TIP3    H156659   1.098   4.820  13.853  1.1380 -0.2815 -0.0012
11748TIP3    H256660   1.231   4.891  13.852  0.1882  1.5837  0.6872
11749TIP3   OH256661   3.060   6.039  14.367  0.2362  0.7582 -0.3773
11749TIP3    H156662   3.047   6.033  14.462  0.3519  0.1954 -0.3963
11749TIP3    H256663   3.024   6.125  14.344 -1.9071 -0.0372 -0.1704
11750TIP3   OH256664   4.106   1.568   5.272 -0.0278  0.0143 -0.4451
11750TIP3    H156665   4.068   1.480   5.270 -0.5176  0.1991  0.5291
11750TIP3    H256666   4.061   1.614   5.202 -0.4735 -0.2294 -0.3250
11751TIP3   OH256667   2.444   3.887  14.840 -0.5272 -0.2496  0.4852
11751TIP3    H156668   2.429   3.838  14.920  0.0750 -0.2628  0.5924
11751TIP3    H256669   2.510   3.837  14.793 -1.0250 -0.3490 -0.1178
11752TIP3   OH256670   2.682   5.440  11.240 -0.2637  0.4224  0.4794
11752TIP3    H156671   2.664   5.452  11.333 -0.7887 -0.2897  0.4782
11752TIP3    H256672   2.627   5.366  11.214  2.2236 -1.5402  0.3408
11753TIP3   OH256673   0.852   1.342   0.182 -0.0017  0.1423 -0.3980
11753TIP3    H156674   0.921   1.281   0.206  0.8027  1.4262  0.7331
11753TIP3    H256675   0.856   1.410   0.250 -2.2424  0.3618 -0.4251
11754TIP3   OH256676   5.947   0.512  13.507 -0.1043  0.3824  0.2765
11754TIP3    H156677   5.933   0.606  13.507 -1.5891  0.1916  1.2348
11754TIP3    H256678   5.983   0.493  13.594 -0.3884 -0.0042  0.3120
11755TIP3   OH256679   1.296   3.206   0.959 -0.1297 -0.2066  0.0154
11755TIP3    H156680   1.324   3.119   0.986  0.1888  0.3159  1.4533
11755TIP3    H256681   1.289   3.200   0.863  0.6911 -1.5680  0.0109
11756TIP3   OH256682   2.526   6.059  16.471  0.2982 -0.1559  0.2840
11756TIP3    H156683   2.448   6.003  16.467  0.2257 -0.0546  0.2964
11756TIP3    H256684   2.528   6.103  16.386 -0.1032  0.4487  0.5892
11757TIP3   OH256685   4.857   1.999   2.200 -0.4360 -0.0058  0.5312
11757TIP3    H156686   4.782   2.008   2.141 -0.0606 -1.7826 -0.2917
11757TIP3    H256687   4.873   1.905   2.204  2.3030  0.3444 -0.0494
11758TIP3   OH256688   3.073   4.353   5.041 -0.0499  0.0438 -0.0342
11758TIP3    H156689   3.146   4.302   5.007  0.0624  0.9873 -1.2803
11758TIP3    H256690   3.094   4.367   5.134  0.9784 -0.3018 -0.2060
11759TIP3   OH256691   1.420   5.714   0.349 -0.1885  0.0507  0.0671
11759TIP3    H156692   1.418   5.630   0.304  0.7552  0.0280  0.0579
11759TIP3    H256693   1.351   5.707   0.415  0.9620 -1.3936  1.1893
11760TIP3   OH256694   3.077   6.802   4.122 -0.6022  0.3875  0.2059
11760TIP3    H156695   3.117   6.819   4.208 -3.4515 -0.4036  1.8294
11760TIP3    H256696   3.017   6.876   4.109 -1.6440 -0.4948 -0.1326
11761TIP3   OH256697   5.846   0.809  11.197 -0.3291  0.1783  0.1425
11761TIP3    H156698   5.776   0.875  11.194 -0.0326  0.4961 -2.6124
11761TIP3    H256699   5.800   0.726  11.207 -0.8168  0.6086  1.9168
11762TIP3   OH256700   5.958   4.113   3.519  0.0486 -0.6037 -0.7619
11762TIP3    H156701   5.878   4.066   3.495 -1.2443  0.8684  0.4489
11762TIP3    H256702   5.946   4.202   3.486  0.5347  0.0256  0.6440
11763TIP3   OH256703   3.228   3.910   0.365 -0.0165 -0.3195 -0.0904
11763TIP3    H156704   3.291   3.958   0.312  1.0087 -1.7261 -0.1948
11763TIP3    H256705   3.269   3.825   0.381 -1.0258 -0.5352  1.5668
11764TIP3   OH256706   0.962   3.301   5.575  0.2343 -0.0633  0.4144
11764TIP3    H156707   0.937   3.351   5.653  0.9843  1.0005 -0.0091
11764TIP3    H256708   1.050   3.270   5.594  0.3922  0.1454  0.0185
11765TIP3   OH256709   6.718   2.277  16.134  0.4509 -0.2804 -0.0684
11765TIP3    H156710   6.775   2.329  16.076  0.6297  1.1514  1.3265
11765TIP3    H256711   6.716   2.190  16.093  1.3468  0.4059 -1.6854
11766TIP3   OH256712   1.654   3.044   5.702 -0.0862 -0.2910 -0.6110
11766TIP3    H156713   1.633   2.958   5.738 -2.0646  0.3178 -0.1772
11766TIP3    H256714   1.634   3.038   5.609 -1.1529 -0.0659 -0.4136
11767TIP3   OH256715   3.142   3.362   4.012 -0.1382  0.1269  0.6587
11767TIP3    H156716   3.112   3.410   4.089 -0.4028  0.9914  0.0391
11767TIP3    H256717   3.214   3.414   3.978  1.3028 -1.2917  1.4269
11768TIP3   OH256718   6.116   6.345   5.807 -0.4169  0.0792  0.3930
11768TIP3    H156719   6.108   6.250   5.804  0.8628 -0.0690  0.9962
11768TIP3    H256720   6.211   6.361   5.813 -0.6697  1.3353  1.5825
11769TIP3   OH256721   3.524   4.767  13.905 -0.0016 -0.3731  0.0051
11769TIP3    H156722   3.469   4.842  13.930  0.5094  0.1116 -0.2978
11769TIP3    H256723   3.477   4.691  13.937 -1.3073 -0.0383 -1.0258
11770TIP3   OH256724   1.420   5.681  15.913 -0.0844 -0.1002 -0.3773
11770TIP3    H156725   1.353   5.749  15.904 -1.3468 -0.7583  2.8188
11770TIP3    H256726   1.372   5.599  15.912  0.9617 -0.7393 -0.2900
11771TIP3   OH256727   2.212   6.487   0.216  0.0832  0.1287 -0.6494
11771TIP3    H156728   2.261   6.522   0.290 -0.2913  0.2949 -0.4775
11771TIP3    H256729   2.273   6.493   0.142  0.6292 -0.4962 -0.2618
11772TIP3   OH256730   3.934   5.827  15.349  0.1214 -0.1859 -0.0806
11772TIP3    H156731   3.859   5.850  15.403 -0.8271 -2.7277 -0.1797
11772TIP3    H256732   3.999   5.794  15.410 -0.0955 -0.9753 -0.2652
11773TIP3   OH256733   2.379   2.871  13.337 -0.5831  0.2972  0.3173
11773TIP3    H156734   2.360   2.786  13.299 -1.4335  0.7156 -0.2350
11773TIP3    H256735   2.456   2.856  13.392 -0.6208 -0.7813  0.1037
11774TIP3   OH256736   3.007   6.413  14.617  0.4049  0.5043 -0.7843
11774TIP3    H156737   2.975   6.479  14.678  3.0291  0.7523  0.4926
11774TIP3    H256738   3.050   6.348  14.673  0.6581 -0.6131 -2.2207
11775TIP3   OH256739   5.769   5.352   2.249 -0.1888  0.5930 -0.2956
11775TIP3    H156740   5.768   5.374   2.155 -0.3473  0.7994 -0.2466
11775TIP3    H256741   5.714   5.419   2.289  0.5575  1.0037  0.0558
11776TIP3   OH256742   2.193   5.200   0.021  0.5094 -0.3236 -0.1217
11776TIP3    H156743   2.201   5.199  -0.075  3.8634 -2.3148 -0.0017
11776TIP3    H256744   2.189   5.293   0.044  1.3430  0.2780 -2.1646
11777TIP3   OH256745   5.563   2.154   4.043 -0.2382  0.1449 -0.0326
11777TIP3    H156746   5.550   2.248   4.055  0.3335  0.3604 -1.0142
11777TIP3    H256747   5.497   2.128   3.978 -0.6428 -0.2183  0.5081
11778TIP3   OH256748   5.978   0.221  12.125 -0.0837  0.2531  0.1314
11778TIP3    H156749   6.062   0.266  12.120  0.3285 -0.3081  1.4837
11778TIP3    H256750   5.916   0.287  12.155 -0.5449  1.1235 -2.5018
11779TIP3   OH256751   0.105   0.579   4.581  0.8406  0.1090 -0.7338
11779TIP3    H156752   0.172   0.516   4.555  0.4015 -1.4639  1.6663
11779TIP3    H256753   0.022   0.533   4.569  0.5660 -0.3744  2.1879
11780TIP3   OH256754   3.609   1.957  13.754 -0.0188 -0.3011  0.1850
11780TIP3    H156755   3.573   2.028  13.806  0.7010  0.5176 -0.3894
11780TIP3    H256756   3.659   1.903  13.816 -0.9074 -0.5513  0.6941
11781TIP3   OH256757   0.378   4.683  11.094 -0.2666 -0.1451 -0.0259
11781TIP3    H156758   0.440   4.736  11.145 -1.7380  0.3164  1.3909
11781TIP3    H256759   0.373   4.600  11.142 -0.2196 -0.4480 -0.5400
11782TIP3   OH256760   1.958   0.665  13.034  0.2360 -0.3457 -0.0815
11782TIP3    H156761   2.053   0.672  13.044  0.2845 -1.0490 -0.0169
11782TIP3    H256762   1.946   0.618  12.951 -0.0733  0.5094 -0.5343
11783TIP3   OH256763   1.631   1.509  14.903  0.4261 -0.1815 -0.4632
11783TIP3    H156764   1.719   1.506  14.867 -0.4482  3.0671 -3.4191
11783TIP3    H256765   1.576   1.538  14.831 -2.3608  2.0849  2.2786
11784TIP3   OH256766   4.958   1.750   2.818 -0.0990 -0.3567  0.5837
11784TIP3    H156767   5.034   1.706   2.779  0.1407  0.8564 -0.3739
11784TIP3    H256768   4.887   1.686   2.811  0.7085 -1.3394  1.0767
11785TIP3   OH256769   4.300   4.499   0.679  0.1416 -0.5779 -0.1248
11785TIP3    H156770   4.301   4.403   0.686 -0.9043 -1.0153 -3.7273
11785TIP3    H256771   4.293   4.515   0.585 -1.1396  3.0490  0.4545
11786TIP3   OH256772   1.649   4.140   5.520 -0.1645  0.0788 -0.6505
11786TIP3    H156773   1.585   4.193   5.567 -0.2852 -0.2614 -0.4342
11786TIP3    H256774   1.710   4.205   5.482 -1.2548  0.4758 -1.7887
11787TIP3   OH256775   0.298   6.238   5.289  0.6462  0.0771 -0.7588
11787TIP3    H156776   0.242   6.163   5.270  0.4585  0.1574 -0.5216
11787TIP3    H256777   0.380   6.219   5.243  0.2858  0.1499 -1.4520
11788TIP3   OH256778   3.785   0.522   6.109 -0.8103  0.0663 -0.5478
11788TIP3    H156779   3.860   0.469   6.081 -0.8703 -0.2752 -0.0616
11788TIP3    H256780   3.753   0.479   6.188 -1.6741  0.0691 -0.8869
11789TIP3   OH256781   4.120   2.668  15.340  0.2515  0.0353 -0.5343
11789TIP3    H156782   4.193   2.653  15.280  0.1572 -0.8170 -0.4495
11789TIP3    H256783   4.048   2.616  15.304 -0.2571  0.6904 -0.4956
11790TIP3   OH256784   4.424   3.362   5.744  0.2907  0.5218  0.6037
11790TIP3    H156785   4.484   3.340   5.816  2.5008  1.5283 -0.8215
11790TIP3    H256786   4.445   3.299   5.675 -2.0469 -0.6535  0.8585
11791TIP3   OH256787   0.959   3.693   1.852 -0.6632 -0.7307  0.6975
11791TIP3    H156788   0.903   3.649   1.788  0.5619 -0.1268 -0.8951
11791TIP3    H256789   0.922   3.781   1.860  0.1374 -0.2449 -0.5584
11792TIP3   OH256790   6.644   0.165  16.519 -0.2521  0.3074  0.0837
11792TIP3    H156791   6.724   0.217  16.510 -0.6835  0.9545  0.0062
11792TIP3    H256792   6.673   0.085  16.563  0.3552  0.7392  0.4832
11793TIP3   OH256793   3.820   5.598  14.035  0.0852  0.7371  0.1886
11793TIP3    H156794   3.807   5.663  14.104  3.3394  1.9055 -0.1549
11793TIP3    H256795   3.821   5.514  14.080 -0.6437  1.2121  1.1258
11794TIP3   OH256796   5.146   3.361   2.146 -0.7097  0.1224  0.0572
11794TIP3    H156797   5.197   3.284   2.121  1.2048  1.0919  0.7650
11794TIP3    H256798   5.081   3.328   2.208 -2.3867 -1.4859 -2.3595
11795TIP3   OH256799   2.729   0.749  15.292 -0.2754 -0.4293 -0.4018
11795TIP3    H156800   2.792   0.680  15.313  0.5402  1.2147  3.5159
11795TIP3    H256801   2.783   0.828  15.283 -1.5201  0.5116  0.0927
11796TIP3   OH256802   0.972   0.973  12.010  0.3353  0.0895 -0.0772
11796TIP3    H156803   0.988   1.003  12.099  0.3117 -1.3763  0.4446
11796TIP3    H256804   1.059   0.964  11.972  0.3420  0.8119 -0.2576
11797TIP3   OH256805   3.530   0.945  13.387  0.1498  0.1686 -0.0058
11797TIP3    H156806   3.566   0.987  13.465  0.3668 -0.9954  0.5576
11797TIP3    H256807   3.598   0.883  13.361 -0.7296 -0.8707  0.0782
11798TIP3   OH256808   5.985   5.710   6.287 -0.1628  0.1845 -0.4513
11798TIP3    H156809   5.928   5.653   6.235  0.1207 -0.0749 -0.4792
11798TIP3    H256810   6.014   5.778   6.226 -0.1626  0.1178 -0.5257
11799TIP3   OH256811   4.318   4.917   4.490 -0.1431  0.8408 -0.4972
11799TIP3    H156812   4.381   4.952   4.552  1.4419 -0.8518 -1.0728
11799TIP3    H256813   4.244   4.888   4.544  0.8251  0.2051  0.5156
11800TIP3   OH256814   1.969   3.583   0.416  0.0232  0.8224 -0.1672
11800TIP3    H156815   1.956   3.518   0.484 -0.2624  0.9446 -0.1048
11800TIP3    H256816   1.892   3.576   0.360  0.0948  0.9556 -0.2842
11801TIP3   OH256817   0.152   1.771  14.560  0.4138 -0.2639  0.1594
11801TIP3    H156818   0.059   1.782  14.584  0.1593 -3.0448  0.8343
11801TIP3    H256819   0.150   1.750  14.467  0.3383 -0.4225  0.1959
11802TIP3   OH256820   1.434   3.872   4.274 -0.1157 -0.0203  0.6238
11802TIP3    H156821   1.452   3.785   4.239 -1.8488  0.4724 -1.6898
11802TIP3    H256822   1.521   3.910   4.288  0.6914 -0.9850 -1.3689
11803TIP3   OH256823   2.610   1.664  12.203  0.0370  0.4983  0.0739
11803TIP3    H156824   2.684   1.612  12.170 -1.1647  0.0951 -2.1983
11803TIP3    H256825   2.621   1.749  12.161 -0.1055  0.8555  0.7473
11804TIP3   OH256826   1.880   4.871  15.781  0.5300  0.2694 -0.0162
11804TIP3    H156827   1.844   4.942  15.728  1.5405  0.8633  0.0803
11804TIP3    H256828   1.820   4.797  15.766  1.4744 -0.0192 -3.0467
11805TIP3   OH256829   0.991   0.005   4.773  0.0015  0.6089 -0.0467
11805TIP3    H156830   1.068   0.003   4.716  0.4788  1.3538  0.5576
11805TIP3    H256831   0.986   0.095   4.804 -1.3103  0.6523 -0.3254
11806TIP3   OH256832   1.438   1.006  11.590 -0.3525 -0.4421 -0.4740
11806TIP3    H156833   1.368   1.007  11.526 -0.9907 -1.3137  0.1881
11806TIP3    H256834   1.498   1.075  11.561 -1.8008  0.7790 -0.6874
11807TIP3   OH256835   6.315   4.824   4.515  0.0114 -0.3407 -0.3235
11807TIP3    H156836   6.285   4.851   4.428  0.2121  0.0372 -0.2780
11807TIP3    H256837   6.250   4.859   4.575 -2.1285 -3.5670 -0.5113
11808TIP3   OH256838   3.748   4.233  16.313 -0.4384 -0.5514 -0.0456
11808TIP3    H156839   3.793   4.291  16.252 -0.0320  1.6168  2.1557
11808TIP3    H256840   3.817   4.200  16.370 -0.9474 -1.7354 -0.0874
11809TIP3   OH256841   1.278   5.673  11.739 -0.0028 -0.0038  0.0704
11809TIP3    H156842   1.340   5.705  11.673  0.0683  0.1935  0.2296
11809TIP3    H256843   1.268   5.747  11.799 -0.8626  0.1813 -0.2885
11810TIP3   OH256844   6.709   3.220  14.673 -0.0009  0.0596  0.0525
11810TIP3    H156845   6.669   3.140  14.705 -1.0774  0.1474 -1.0292
11810TIP3    H256846   6.728   3.270  14.752 -0.4523 -0.7232  0.6690
11811TIP3   OH256847   1.144   0.789   5.246  0.4088  0.1334  0.4206
11811TIP3    H156848   1.068   0.825   5.200 -0.3411 -0.2869  1.2653
11811TIP3    H256849   1.216   0.795   5.184 -0.0681  1.5269 -0.0411
11812TIP3   OH256850   2.151   4.126   6.251  0.1703  0.0103  0.3182
11812TIP3    H156851   2.056   4.138   6.249  0.2041  0.2112 -1.3746
11812TIP3    H256852   2.165   4.060   6.319 -1.1734 -0.0792  0.5419
11813TIP3   OH256853   3.501   2.583  15.076 -0.3601 -0.1943  0.4037
11813TIP3    H156854   3.543   2.661  15.040  1.9637 -0.8978  1.4386
11813TIP3    H256855   3.455   2.615  15.154  0.4870  0.1834  0.7654
11814TIP3   OH256856   2.424   6.449  13.127 -0.5536  0.1279 -0.1660
11814TIP3    H156857   2.455   6.462  13.037 -0.4330  1.3373  0.0329
11814TIP3    H256858   2.490   6.490  13.182 -0.7689 -0.3552  0.4728
11815TIP3   OH256859   2.272   5.739   4.938 -0.0441  0.4520 -0.2823
11815TIP3    H156860   2.229   5.817   4.974 -1.4461 -0.4609  0.1231
11815TIP3    H256861   2.248   5.668   4.999 -0.4986 -0.6741 -1.7130
11816TIP3   OH256862   1.221   2.381   4.384  1.4114 -0.1603 -0.6041
11816TIP3    H156863   1.160   2.454   4.391  1.8516  0.4636 -2.6109
11816TIP3    H256864   1.243   2.359   4.475 -0.5581  0.6141  0.1047
11817TIP3   OH256865   5.934   1.529   5.484  0.5527  0.1004 -0.2274
11817TIP3    H156866   5.871   1.471   5.527 -0.9283 -0.1123 -2.4862
11817TIP3    H256867   5.993   1.557   5.554 -2.1561  0.4514  2.0870
11818TIP3   OH256868   2.197   1.419  12.206 -0.0284  0.0923 -0.2867
11818TIP3    H156869   2.229   1.348  12.150 -0.5541 -2.0252  1.8994
11818TIP3    H256870   2.238   1.402  12.291 -3.8810 -0.6470  1.6799
11819TIP3   OH256871   1.225   2.080  14.537 -0.5107 -0.1008 -0.4642
11819TIP3    H156872   1.208   2.074  14.631 -1.5363  1.5880 -0.4997
11819TIP3    H256873   1.319   2.067  14.529 -0.2428  0.7483  0.9250
11820TIP3   OH256874   1.821   3.895   2.495 -0.2279  0.1981  0.0518
11820TIP3    H156875   1.784   3.970   2.541 -0.8353 -0.2313  0.2778
11820TIP3    H256876   1.785   3.901   2.406 -0.6493 -0.0783  0.2003
11821TIP3   OH256877   5.611   4.209   0.929  0.2413  0.2088 -0.0813
11821TIP3    H156878   5.592   4.118   0.950 -1.7351  0.4151 -0.7681
11821TIP3    H256879   5.553   4.259   0.987 -1.5284  0.8911 -2.3002
11822TIP3   OH256880   4.689   3.105  11.455  0.0475  0.1648 -0.0919
11822TIP3    H156881   4.615   3.154  11.491 -0.2617 -0.3265 -0.0491
11822TIP3    H256882   4.650   3.024  11.422  0.0309  1.2237 -2.9835
11823TIP3   OH256883   6.003   6.025  15.373 -0.6978 -0.4664  0.4786
11823TIP3    H156884   6.067   5.981  15.317 -0.5241 -0.0052  0.3066
11823TIP3    H256885   5.962   5.955  15.424  1.0159 -0.6408  1.7013
11824TIP3   OH256886   1.599   6.332   5.762 -0.5271  0.4051 -0.1728
11824TIP3    H156887   1.559   6.419   5.763 -1.6079 -0.0229 -2.0587
11824TIP3    H256888   1.630   6.320   5.672  0.1002 -0.9647  0.1888
11825TIP3   OH256889   6.271   4.627   2.207  0.3714 -0.4201  0.3368
11825TIP3    H156890   6.188   4.613   2.162  0.2388  2.9151 -0.7400
11825TIP3    H256891   6.247   4.631   2.300 -0.6780  0.1942  0.0665
11826TIP3   OH256892   3.889   2.308   1.429 -0.9739 -0.3120 -0.2842
11826TIP3    H156893   3.952   2.257   1.376  0.1923  1.8133 -1.0644
11826TIP3    H256894   3.912   2.286   1.519 -2.2055 -3.0819 -0.5529
11827TIP3   OH256895   2.725   5.131   5.781  0.4962  0.0569 -0.7243
11827TIP3    H156896   2.726   5.223   5.757 -1.3336 -0.1285 -1.7266
11827TIP3    H256897   2.667   5.127   5.857 -0.2541 -0.3566 -1.2983
11828TIP3   OH256898   1.763   1.984   5.894 -0.4074 -0.8168 -0.1295
11828TIP3    H156899   1.780   1.997   5.987  1.6330 -0.4647 -0.5108
11828TIP3    H256900   1.811   1.905   5.871 -0.3314 -0.5237 -1.0307
11829TIP3   OH256901   0.294   4.051   2.236 -0.2047 -0.0486 -0.4462
11829TIP3    H156902   0.210   4.074   2.197  0.1182  2.0530 -0.0544
11829TIP3    H256903   0.359   4.089   2.177  0.3473  0.9429  0.7552
11830TIP3   OH256904   4.068   6.327  14.673  0.0270 -0.2465  0.0960
11830TIP3    H156905   4.033   6.284  14.751 -0.5649 -0.9952 -0.5632
11830TIP3    H256906   4.153   6.285  14.658  0.0323 -0.2716  0.1987
11831TIP3   OH256907   5.064   4.969  13.715 -0.6215  0.3458  0.7996
11831TIP3    H156908   4.998   4.904  13.740 -0.3781  0.3173  1.3834
11831TIP3    H256909   5.106   4.994  13.798  0.2968  0.1502  0.4125
11832TIP3   OH256910   6.722   5.269   3.302  0.5121  0.4278 -0.7954
11832TIP3    H156911   6.631   5.279   3.276 -0.3278  0.7278  1.8956
11832TIP3    H256912   6.750   5.186   3.262 -1.4070 -0.3918 -0.5487
11833TIP3   OH256913   2.064   1.922  13.769  0.4109  1.0658 -0.5629
11833TIP3    H156914   2.092   1.995  13.825  0.0262 -0.2073  1.3943
11833TIP3    H256915   2.005   1.962  13.705 -0.8335  2.3097  1.2631
11834TIP3   OH256916   0.441   2.266   0.932  0.1275 -0.3268 -0.1025
11834TIP3    H156917   0.502   2.230   0.868 -0.1337  0.9821 -1.1372
11834TIP3    H256918   0.447   2.361   0.920 -1.6433 -0.1440  0.2056
11835TIP3   OH256919   6.602   0.204   0.925 -0.4110  0.1854 -0.8219
11835TIP3    H156920   6.624   0.144   0.853 -2.0911 -2.4665  0.6722
11835TIP3    H256921   6.529   0.257   0.891  0.3353  0.6038 -1.8047
11836TIP3   OH256922   3.472   1.209   0.654  0.5243 -0.5604 -0.2139
11836TIP3    H156923   3.432   1.184   0.737  0.3371  0.5664  0.0479
11836TIP3    H256924   3.435   1.147   0.590 -1.0618 -0.0529  0.1613
11837TIP3   OH256925   0.741   2.110  14.388 -1.1149 -0.2068  0.2555
11837TIP3    H156926   0.793   2.146  14.461 -2.4031  0.0436  1.0883
11837TIP3    H256927   0.708   2.187  14.342  1.8899 -0.2667 -2.3700
11838TIP3   OH256928   3.999   5.712   0.101  0.1721  0.3097 -0.0750
11838TIP3    H156929   4.056   5.636   0.095  1.6782  1.1952  1.8081
11838TIP3    H256930   3.911   5.676   0.105  0.8504 -1.3460  0.8213
11839TIP3   OH256931   5.213   0.555  16.076 -0.2325  0.3588 -0.1671
11839TIP3    H156932   5.211   0.620  16.005 -0.5946  0.3122 -0.1981
11839TIP3    H256933   5.305   0.529  16.081 -0.1595  0.5588 -0.4424
11840TIP3   OH256934   2.165   4.550  13.014 -0.4761 -0.4517  0.0150
11840TIP3    H156935   2.258   4.570  13.024 -0.2782 -1.5298  0.4944
11840TIP3    H256936   2.139   4.512  13.098 -0.4654 -3.4016 -1.1857
11841TIP3   OH256937   5.588   2.118  10.588  0.0478  0.0165 -0.0479
11841TIP3    H156938   5.654   2.050  10.601  0.4389  0.3527 -0.2512
11841TIP3    H256939   5.560   2.108  10.497 -0.2565 -0.1843  0.0634
11842TIP3   OH256940   0.223   1.500  15.470  0.6946  0.7287 -0.4298
11842TIP3    H156941   0.318   1.495  15.461  0.6830  0.6195 -0.5052
11842TIP3    H256942   0.199   1.584  15.431  0.6513  0.2736 -1.4415
11843TIP3   OH256943   5.142   0.077  16.510 -0.5730 -0.3055  0.6996
11843TIP3    H156944   5.132   0.040  16.598  2.3135  0.4475  1.4662
11843TIP3    H256945   5.135   0.172  16.523  1.5666 -0.0569  0.5253
11844TIP3   OH256946   3.057   2.067   0.030 -0.0966  0.1294 -0.2198
11844TIP3    H156947   3.123   2.034  -0.031 -2.2068  0.5628 -2.9496
11844TIP3    H256948   2.989   2.000   0.030 -0.2356  0.2139  1.6456
11845TIP3   OH256949   5.888   0.728  11.985  0.1605  0.5062  0.2920
11845TIP3    H156950   5.856   0.741  11.896 -0.5567 -0.6877  0.3477
11845TIP3    H256951   5.929   0.811  12.009  1.1201  0.5617 -1.4425
11846TIP3   OH256952   2.078   2.173  13.942 -0.7480  0.0667 -0.2811
11846TIP3    H156953   2.028   2.227  13.881 -0.9058  0.5231  0.2428
11846TIP3    H256954   2.063   2.213  14.028 -0.2860 -0.3845  0.0178
11847TIP3   OH256955   3.665   1.492  11.720  0.1448  0.0893  0.0197
11847TIP3    H156956   3.618   1.449  11.792  0.7508 -1.9300 -0.7534
11847TIP3    H256957   3.693   1.575  11.758 -0.5749 -0.4026  1.7461
11848TIP3   OH256958   0.896   6.013  14.416 -0.0358 -1.0326  0.2361
11848TIP3    H156959   0.815   5.977  14.454 -1.0016 -0.9451 -1.6431
11848TIP3    H256960   0.946   6.045  14.492 -2.5770  0.6267  1.3383
11849TIP3   OH256961   3.277   3.017   5.888  0.2681 -0.5015 -0.0033
11849TIP3    H156962   3.287   2.943   5.948  0.2897  0.6127  1.4108
11849TIP3    H256963   3.364   3.056   5.883  0.1094 -0.1693 -0.2229
11850TIP3   OH256964   6.197   6.544  16.836  0.9207  0.0160 -0.1460
11850TIP3    H156965   6.221   6.632  16.808  1.2468  0.4617  1.4526
11850TIP3    H256966   6.139   6.557  16.910 -0.7196 -1.1198 -1.1561
11851TIP3   OH256967   3.704   4.368   5.354  0.1539  0.0605 -0.1960
11851TIP3    H156968   3.668   4.279   5.355  0.3837 -0.0427 -0.7761
11851TIP3    H256969   3.692   4.398   5.264 -0.6684  0.9303  0.1864
11852TIP3   OH256970   0.934   0.396  15.236  0.0584 -0.0336  0.1608
11852TIP3    H156971   0.896   0.455  15.171 -2.1206 -0.7570  0.6758
11852TIP3    H256972   1.024   0.383  15.207 -0.1619  1.5062 -1.3800
11853TIP3   OH256973   6.209   5.773  11.120  0.2626 -0.6291  0.2013
11853TIP3    H156974   6.280   5.814  11.071 -0.2071 -0.2377 -0.1678
11853TIP3    H256975   6.243   5.687  11.145  1.2963  0.0149  1.0692
11854TIP3   OH256976   3.632   3.515   1.605 -0.2814 -0.2018 -0.0411
11854TIP3    H156977   3.578   3.504   1.526  0.5531  0.2445 -0.6927
11854TIP3    H256978   3.604   3.444   1.662 -2.6250  0.8831  0.2922
11855TIP3   OH256979   2.411   1.359  10.830 -0.1977  0.3049  0.3264
11855TIP3    H156980   2.397   1.313  10.747  0.8877  0.0674  0.2639
11855TIP3    H256981   2.429   1.449  10.805 -0.5370  0.3816  0.3503
11856TIP3   OH256982   1.783   1.202   0.381 -0.0708  0.2590 -0.1579
11856TIP3    H156983   1.734   1.262   0.326 -1.0697 -0.0556  0.3656
11856TIP3    H256984   1.725   1.183   0.454  1.2014  0.6301  1.0016
11857TIP3   OH256985   2.237   5.075   1.355  0.2761  0.2166  0.3156
11857TIP3    H156986   2.174   5.126   1.304  0.5695 -0.0427 -0.3144
11857TIP3    H256987   2.315   5.130   1.357  0.3323  0.1366  0.3058
11858TIP3   OH256988   0.336   3.850   2.587 -0.0361 -1.0008  0.5432
11858TIP3    H156989   0.275   3.857   2.513  0.3022 -0.7726  0.2840
11858TIP3    H256990   0.295   3.902   2.657  1.3327  1.8564 -0.6149
11859TIP3   OH256991   5.588   1.979   0.865 -0.0055  0.2600 -0.4982
11859TIP3    H156992   5.498   2.007   0.882 -0.5218 -0.1117 -2.4667
11859TIP3    H256993   5.638   2.061   0.859 -0.4229  0.5102 -0.5577
11860TIP3   OH256994   4.171   5.705  12.167  0.0159 -0.3874  0.0676
11860TIP3    H156995   4.229   5.761  12.114  0.0772 -0.9755 -0.5078
11860TIP3    H256996   4.123   5.766  12.223 -1.6796  0.5365 -2.1973
11861TIP3   OH256997   2.299   1.773   3.023  0.1951  0.4521  0.0636
11861TIP3    H156998   2.247   1.710   3.073 -0.1578  0.5990 -0.1099
11861TIP3    H256999   2.390   1.754   3.047  0.2149 -1.0706 -1.0434
11862TIP3   OH257000   3.708   1.282   0.787 -0.1935  0.2976  0.2294
11862TIP3    H157001   3.636   1.268   0.726  0.7809  1.6417 -1.2883
11862TIP3    H257002   3.784   1.240   0.745  0.4758  1.1828  0.5347
11863TIP3   OH257003   1.708   3.886   4.318 -0.1641  0.0103 -0.3474
11863TIP3    H157004   1.784   3.863   4.265 -0.2721 -1.4024  0.0579
11863TIP3    H257005   1.711   3.825   4.392 -1.2967  0.3910  0.0451
11864TIP3   OH257006   1.971   6.588   0.132  0.0516 -0.1647 -0.1829
11864TIP3    H157007   2.063   6.574   0.154 -0.4769 -0.3519  2.1179
11864TIP3    H257008   1.966   6.681   0.107  0.5000  0.5114  2.0251
11865TIP3   OH257009   0.709   4.345   2.975  0.1303  0.4816  0.4385
11865TIP3    H157010   0.677   4.324   3.063  0.6268  0.2129  0.5601
11865TIP3    H257011   0.793   4.298   2.968  0.1565  0.6023 -0.1303
11866TIP3   OH257012   3.840   5.376   5.723  0.7069  0.3938 -0.1930
11866TIP3    H157013   3.860   5.286   5.748  1.5582  0.6278 -0.0033
11866TIP3    H257014   3.781   5.368   5.648  0.6247 -0.3172 -0.0557
11867TIP3   OH257015   6.095   3.199   5.911 -0.2505 -0.0111 -0.5623
11867TIP3    H157016   6.069   3.287   5.884  0.2347  0.4389  0.3679
11867TIP3    H257017   6.082   3.199   6.006 -0.4220 -1.0119 -0.5786
11868TIP3   OH257018   6.482   5.080  13.049 -0.1176  0.7191 -0.3628
11868TIP3    H157019   6.575   5.065  13.028 -0.0426  1.9698 -1.0621
11868TIP3    H257020   6.472   5.046  13.138  1.0631  0.7316 -0.2003
11869TIP3   OH257021   1.241   5.856  15.806 -0.6666  0.0974  0.0330
11869TIP3    H157022   1.270   5.928  15.864 -0.0349  0.0583 -0.2222
11869TIP3    H257023   1.229   5.898  15.721 -2.2347  0.2843  0.3197
11870TIP3   OH257024   1.671   6.607  13.544  0.4583 -0.2003 -0.5974
11870TIP3    H157025   1.754   6.610  13.592  0.8923 -0.9272 -1.2735
11870TIP3    H257026   1.605   6.634  13.608  1.3479  1.6989 -0.3982
11871TIP3   OH257027   6.537   5.251   5.254 -0.4362  0.3160  0.1672
11871TIP3    H157028   6.531   5.319   5.187 -0.5433 -1.2471 -1.4815
11871TIP3    H257029   6.447   5.230   5.276 -0.4584 -0.4401 -0.5824
11872TIP3   OH257030   2.428   1.109   2.149 -0.1427 -0.2344 -0.5617
11872TIP3    H157031   2.497   1.085   2.087  0.2508  1.4585 -0.8369
11872TIP3    H257032   2.381   1.180   2.105 -1.7673 -1.0402 -0.1701
11873TIP3   OH257033   5.756   1.985  13.069  0.5152  0.4794 -0.0378
11873TIP3    H157034   5.732   2.035  13.147 -0.5188 -0.9613  0.6192
11873TIP3    H257035   5.738   1.894  13.093  1.6695 -0.1477 -1.4288
11874TIP3   OH257036   6.394   5.093   2.668 -0.0841 -0.0690 -0.2051
11874TIP3    H157037   6.437   5.010   2.649 -0.0431 -0.1390  0.1897
11874TIP3    H257038   6.435   5.124   2.749 -0.9165 -0.2311  0.2851
11875TIP3   OH257039   6.553   3.258  13.277  0.0277  0.5915  0.3920
11875TIP3    H157040   6.496   3.191  13.240  1.9154 -0.1642 -1.3215
11875TIP3    H257041   6.569   3.230  13.366 -0.5600 -0.3136  0.2200
11876TIP3   OH257042   2.654   4.612   2.462  0.0581  0.3443  0.0211
11876TIP3    H157043   2.636   4.674   2.533 -1.3154 -0.1679  0.1462
11876TIP3    H257044   2.569   4.574   2.440  0.9312 -2.1008  0.5071
11877TIP3   OH257045   5.261   1.712   0.923  0.3549 -0.2735 -0.2122
11877TIP3    H157046   5.251   1.772   0.996 -1.8805 -1.0309  0.1823
11877TIP3    H257047   5.189   1.734   0.864  1.7937 -0.0367 -1.9617
11878TIP3   OH257048   4.623   1.411   3.715 -0.4271 -0.5711 -0.0827
11878TIP3    H157049   4.623   1.335   3.773  0.6362 -0.3870  0.1769
11878TIP3    H257050   4.708   1.408   3.672 -0.2893  0.5793  0.0732
11879TIP3   OH257051   5.218   6.675  15.398  0.3308 -0.6409  0.4829
11879TIP3    H157052   5.147   6.731  15.430 -0.5724 -2.7533  2.4346
11879TIP3    H257053   5.288   6.736  15.374 -2.0249  1.5188 -1.4086
11880TIP3   OH257054   3.912   1.773   3.387 -0.1518 -0.1974  0.0772
11880TIP3    H157055   3.991   1.762   3.440  0.1738  0.0444 -0.3547
11880TIP3    H257056   3.940   1.826   3.313 -0.7242 -0.0974 -0.0727
11881TIP3   OH257057   3.148   3.212   1.504  0.1115 -0.0611 -0.4739
11881TIP3    H157058   3.097   3.184   1.580 -2.2280  0.8496 -1.6000
11881TIP3    H257059   3.194   3.133   1.476  1.5433 -0.3017  2.1486
11882TIP3   OH257060   2.965   3.293   6.911 -0.1536  0.3961  0.2078
11882TIP3    H157061   2.904   3.335   6.850  1.0605  0.9296 -0.6809
11882TIP3    H257062   2.939   3.201   6.911 -1.6100  0.7913  0.6661
11883TIP3   OH257063   1.823   6.609   5.449 -0.4318  0.0159  0.3786
11883TIP3    H157064   1.794   6.518   5.441  1.4183 -0.7552  1.6505
11883TIP3    H257065   1.781   6.654   5.376 -0.6911 -2.0608 -0.8450
11884TIP3   OH257066   4.353   5.184  16.411  0.2927 -0.5018 -0.2794
11884TIP3    H157067   4.389   5.262  16.453  0.0262  0.7312 -2.2094
11884TIP3    H257068   4.258   5.195  16.420  0.2424 -0.3600 -0.9448
11885TIP3   OH257069   3.953   4.002  14.837  0.3136 -0.6849  0.2145
11885TIP3    H157070   4.037   4.035  14.867 -0.1119  0.0866  0.5634
11885TIP3    H257071   3.888   4.043  14.894 -0.3035 -1.3063 -0.0175
11886TIP3   OH257072   5.463   5.757  11.891 -0.3482  0.5940 -0.6771
11886TIP3    H157073   5.410   5.725  11.819 -0.2101 -1.4033  0.0518
11886TIP3    H257074   5.514   5.681  11.920  1.5633  1.9866 -0.1747
11887TIP3   OH257075   3.342   5.262   4.971 -0.5762  0.2647  0.2481
11887TIP3    H157076   3.364   5.308   5.052  0.0090  0.9176 -0.2727
11887TIP3    H257077   3.266   5.310   4.936 -0.9986 -0.1826  0.5443
11888TIP3   OH257078   1.324   0.458   3.086 -0.7594  0.2380  0.3769
11888TIP3    H157079   1.355   0.386   3.141 -0.6166 -0.9373 -1.1870
11888TIP3    H257080   1.293   0.524   3.149 -2.2901 -1.7702  1.8594
11889TIP3   OH257081   5.488   4.295   6.736 -0.3867  0.3387  0.5639
11889TIP3    H157082   5.407   4.347   6.743 -0.0396  1.5585 -2.5859
11889TIP3    H257083   5.491   4.244   6.816 -4.7574 -0.4187  0.5002
11890TIP3   OH257084   3.418   0.557  12.648 -0.0474  0.1326  0.2663
11890TIP3    H157085   3.375   0.606  12.719  0.4030  2.0197 -0.6988
11890TIP3    H257086   3.368   0.580  12.570  0.6882 -0.3159 -0.3500
11891TIP3   OH257087   6.073   5.371   2.117 -0.2382  0.6830  0.1056
11891TIP3    H157088   6.020   5.301   2.153 -0.1509  0.3531 -0.4072
11891TIP3    H257089   6.057   5.446   2.175 -2.0280  0.8899 -0.5872
11892TIP3   OH257090   3.764   2.593  13.901 -0.3278  0.0256 -0.2843
11892TIP3    H157091   3.780   2.539  13.823 -1.7242  0.7576 -1.1268
11892TIP3    H257092   3.802   2.678  13.879  0.0991 -0.0378  0.2158
11893TIP3   OH257093   1.549   4.393  12.321 -0.7224 -0.4764 -0.0596
11893TIP3    H157094   1.468   4.431  12.354 -1.4510 -0.8192 -1.3984
11893TIP3    H257095   1.536   4.299  12.327  0.3754 -0.5660  1.5583
11894TIP3   OH257096   0.023   1.182   2.868  0.2049 -0.2127 -0.2290
11894TIP3    H157097   0.010   1.195   2.962 -0.6638 -0.1409 -0.3504
11894TIP3    H257098  -0.065   1.167   2.833  0.7562 -3.1149 -0.6193
11895TIP3   OH257099   6.642   0.351   1.616  0.0587  0.3483  0.9785
11895TIP3    H157100   6.657   0.428   1.670 -0.9157  1.2813 -0.0237
11895TIP3    H257101   6.709   0.355   1.548 -1.6659  1.9735 -0.7742
11896TIP3   OH257102   0.720   0.582  16.492  0.0614 -0.2913 -0.1697
11896TIP3    H157103   0.773   0.576  16.412  0.3960 -0.3797  0.0588
11896TIP3    H257104   0.636   0.616  16.462 -0.3985 -1.9073 -0.8257
11897TIP3   OH257105   6.536   6.251   4.291  0.3099  0.0841  0.0952
11897TIP3    H157106   6.483   6.204   4.356  0.6195 -0.0452  0.2532
11897TIP3    H257107   6.492   6.232   4.207 -0.3087  0.5572  0.2987
11898TIP3   OH257108   6.257   5.748  14.864  0.1158  0.4670  0.0702
11898TIP3    H157109   6.177   5.762  14.914  0.3174 -0.3563  0.6373
11898TIP3    H257110   6.232   5.766  14.773 -1.2486 -1.6661 -0.0453
11899TIP3   OH257111   6.074   4.473  15.085  0.1299  0.1017  0.0888
11899TIP3    H157112   6.169   4.463  15.097  0.6113  0.1043 -2.8659
11899TIP3    H257113   6.036   4.403  15.139  1.7592  0.3129  1.6085
11900TIP3   OH257114   2.972   4.613   4.901 -0.1795  0.3462  0.0175
11900TIP3    H157115   2.903   4.551   4.923  0.4725 -0.2600  0.4112
11900TIP3    H257116   3.047   4.585   4.954  0.5473  0.6158 -0.8435
11901TIP3   OH257117   5.929   1.590  14.258  0.0972 -0.4788  0.3479
11901TIP3    H157118   5.935   1.640  14.177  0.2765 -0.9598  0.0609
11901TIP3    H257119   5.932   1.499  14.230 -1.1821 -0.6813  0.7833
11902TIP3   OH257120   0.184   6.303  14.250 -0.0185 -0.1538  0.2074
11902TIP3    H157121   0.146   6.349  14.175 -0.8047 -0.6419  0.2967
11902TIP3    H257122   0.128   6.327  14.323 -0.6820 -1.5536  0.1842
11903TIP3   OH257123   5.399   2.202  11.238 -0.2028 -0.3207 -0.1330
11903TIP3    H157124   5.386   2.284  11.190 -2.1746 -0.9422 -0.7774
11903TIP3    H257125   5.355   2.217  11.322 -0.3822 -0.6397 -0.1704
11904TIP3   OH257126   6.137   3.501  15.029 -0.3848  0.4839  0.3064
11904TIP3    H157127   6.093   3.579  14.996  1.0975  0.7852 -1.1013
11904TIP3    H257128   6.198   3.476  14.959 -0.0968 -1.3397  1.1492
11905TIP3   OH257129   2.182   3.525  12.247  0.0374  0.2315  0.0486
11905TIP3    H157130   2.087   3.534  12.241 -0.0437 -0.9060 -0.8487
11905TIP3    H257131   2.217   3.605  12.209 -0.5958 -0.9172 -3.3606
11906TIP3   OH257132   2.138   2.248  11.436  0.2111  0.2224  0.4087
11906TIP3    H157133   2.066   2.307  11.458  0.8638  0.8455  0.8997
11906TIP3    H257134   2.165   2.211  11.520 -0.2061 -0.8237  0.1101
11907TIP3   OH257135   4.391   5.559   2.811  0.4940 -0.2023  0.7313
11907TIP3    H157136   4.443   5.478   2.801  0.9721  0.2950 -1.4157
11907TIP3    H257137   4.302   5.533   2.790  0.6713 -0.1818 -0.1010
11908TIP3   OH257138   4.809   1.050  15.871  0.4520  0.3521  0.3118
11908TIP3    H157139   4.797   1.091  15.956  0.7980 -0.3524  0.7069
11908TIP3    H257140   4.892   1.003  15.878  0.4647  0.2564 -0.3981
11909TIP3   OH257141   3.193   0.773  16.049 -0.2643 -0.3682 -0.4853
11909TIP3    H157142   3.231   0.841  16.105 -0.8688  1.2978 -2.0324
11909TIP3    H257143   3.259   0.758  15.981 -1.0445  0.2686 -1.3958
11910TIP3   OH257144   4.199   4.151  14.881  0.5843 -0.4867  0.3303
11910TIP3    H157145   4.204   4.155  14.976 -1.9537  2.4747  0.5255
11910TIP3    H257146   4.222   4.240  14.852  0.9737 -1.2197 -1.8199
11911TIP3   OH257147   3.252   5.471   5.635  0.2500 -0.1230  0.3175
11911TIP3    H157148   3.197   5.411   5.687 -0.2794 -0.5814 -0.7465
11911TIP3    H257149   3.194   5.503   5.566  1.2514 -0.4210 -0.6912
11912TIP3   OH257150   6.108   0.806  11.380  0.4752  0.1422 -0.4350
11912TIP3    H157151   6.197   0.842  11.381  1.6781 -2.3142 -3.4890
11912TIP3    H257152   6.071   0.836  11.297 -1.4648  0.7187  0.5683
11913TIP3   OH257153   0.681   1.654  11.132  0.2694  0.5145 -0.3867
11913TIP3    H157154   0.672   1.590  11.203 -1.4650  0.4296 -0.6448
11913TIP3    H257155   0.653   1.737  11.171  0.7530  0.7711 -0.5728
11914TIP3   OH257156   6.505   2.999   0.528 -0.1872  0.1757 -0.3640
11914TIP3    H157157   6.551   2.952   0.459  0.9475 -0.1487  0.5800
11914TIP3    H257158   6.493   3.087   0.494 -0.8379 -0.3262 -1.4883
11915TIP3   OH257159   2.054   3.790  15.040 -0.4569  0.0069  0.9389
11915TIP3    H157160   2.017   3.827  14.960  0.2194  0.3386  0.7747
11915TIP3    H257161   2.023   3.699  15.041 -1.2892  0.2851  0.8229
11916TIP3   OH257162   5.566   1.347   0.795  0.5408  0.4143  0.1428
11916TIP3    H157163   5.639   1.399   0.830  0.2373  0.4806  0.6865
11916TIP3    H257164   5.489   1.383   0.839  0.4099 -1.0222  1.1379
11917TIP3   OH257165   1.003   3.792  13.741  0.0251  0.3445  0.0578
11917TIP3    H157166   0.940   3.800  13.669  0.8063  0.4828 -0.6282
11917TIP3    H257167   1.060   3.720  13.714  2.6351  2.7257 -1.3101
11918TIP3   OH257168   3.377   2.576   3.134 -0.0573  0.3247  0.4751
11918TIP3    H157169   3.420   2.502   3.177  0.6795  1.0290  0.9875
11918TIP3    H257170   3.399   2.566   3.042  1.5306  0.8559  0.7644
11919TIP3   OH257171   0.867   2.571   3.298  0.3253  0.2673  0.1693
11919TIP3    H157172   0.959   2.547   3.281  0.4600  1.5042 -0.9542
11919TIP3    H257173   0.821   2.550   3.217 -0.8610 -2.3199  1.3983
11920TIP3   OH257174   0.753   1.032   0.297 -0.4174 -0.6314  0.3204
11920TIP3    H157175   0.718   1.082   0.223 -0.2086 -1.8891 -0.6619
11920TIP3    H257176   0.759   1.095   0.368 -0.4395  0.6630 -0.7916
11921TIP3   OH257177   3.588   1.398  11.974  0.1881  0.0754  0.2737
11921TIP3    H157178   3.509   1.409  12.027  1.1006  0.7212  1.5395
11921TIP3    H257179   3.612   1.306  11.984 -0.9315 -0.3920 -0.9387
11922TIP3   OH257180   5.289   5.612  15.846  0.2296  0.1971  0.1477
11922TIP3    H157181   5.225   5.554  15.806 -0.2914 -0.6803  2.1026
11922TIP3    H257182   5.237   5.674  15.897  0.8188  1.9760 -1.3099
11923TIP3   OH257183   3.722   0.743   6.305 -0.4312  0.0536 -0.0910
11923TIP3    H157184   3.702   0.693   6.226 -0.6678 -2.0192  1.2082
11923TIP3    H257185   3.639   0.752   6.350 -0.0488 -0.1597  0.6734
11924TIP3   OH257186   5.385   3.562  13.063 -0.0951  0.1706  0.8850
11924TIP3    H157187   5.474   3.594  13.047 -0.2863 -0.0678 -0.7811
11924TIP3    H257188   5.393   3.511  13.144  0.9582  1.3619  1.5723
11925TIP3   OH257189   0.826   2.577  12.199 -0.9138  0.0577 -0.6681
11925TIP3    H157190   0.851   2.665  12.170 -0.2782 -0.3507 -1.4093
11925TIP3    H257191   0.842   2.521  12.123  0.8057 -1.0589  0.4454
11926TIP3   OH257192   1.177   0.437  13.489  0.0479 -0.0910 -0.0258
11926TIP3    H157193   1.117   0.369  13.458 -1.0326  1.2353 -0.9452
11926TIP3    H257194   1.185   0.498  13.416  1.4583  0.4895  0.5739
11927TIP3   OH257195   0.667   4.391   0.641 -0.4454 -0.2558 -0.0691
11927TIP3    H157196   0.624   4.472   0.668  0.5957  0.6261 -0.9398
11927TIP3    H257197   0.622   4.322   0.690 -2.9580  0.5650 -1.0891
11928TIP3   OH257198   2.589   0.859   6.022 -0.2529 -0.5612  0.1189
11928TIP3    H157199   2.652   0.926   6.047 -0.4958 -0.5246  0.6322
11928TIP3    H257200   2.643   0.789   5.984 -0.0731  0.3186 -1.3587
11929TIP3   OH257201   2.418   0.884   6.259  0.1141 -0.5759 -0.1400
11929TIP3    H157202   2.422   0.851   6.169  0.2110 -1.2546  0.1040
11929TIP3    H257203   2.480   0.830   6.307  1.4327  0.9875 -0.0095
11930TIP3   OH257204   6.095   5.548   3.615  0.0432  0.1121 -0.2147
11930TIP3    H157205   6.042   5.527   3.692 -1.5290 -1.3710 -1.6107
11930TIP3    H257206   6.033   5.588   3.554  1.3063  1.4400 -0.6780
11931TIP3   OH257207   5.018   2.535  14.249 -0.0069  0.0737  0.7753
11931TIP3    H157208   5.102   2.569  14.218  0.7770 -0.6428  2.0276
11931TIP3    H257209   4.984   2.605  14.305  0.4935 -0.2510  1.4925
11932TIP3   OH257210   3.703   0.305   6.269  0.2607  0.1840  0.0658
11932TIP3    H157211   3.618   0.290   6.309  0.3168  1.9376  0.9403
11932TIP3    H257212   3.722   0.224   6.220 -0.8797 -1.1061  1.6601
11933TIP3   OH257213   0.488   4.454   2.056 -0.0882 -0.4654 -0.5024
11933TIP3    H157214   0.430   4.458   1.981  0.6814  0.8309 -1.0765
11933TIP3    H257215   0.567   4.501   2.028 -0.0940  0.7782  1.3621
11934TIP3   OH257216   6.584   2.981  14.774  0.2262 -0.3920 -0.0294
11934TIP3    H157217   6.595   3.007  14.865 -2.0350  3.5540 -0.6328
11934TIP3    H257218   6.489   2.974  14.763  0.3694  0.5179 -2.3232
11935TIP3   OH257219   4.088   6.048  12.160 -0.4639  0.0537 -0.1090
11935TIP3    H157220   4.045   5.987  12.220 -0.0818 -0.3863 -0.2751
11935TIP3    H257221   4.060   6.134  12.189  0.6767 -0.0696  1.4455
11936TIP3   OH257222   2.774   2.333  15.069 -0.0210  0.2020 -0.2586
11936TIP3    H157223   2.818   2.255  15.103 -1.0239 -0.9027 -1.4161
11936TIP3    H257224   2.762   2.316  14.976 -2.6156  0.5464 -0.0760
11937TIP3   OH257225   2.954   6.362   5.172 -0.0264  0.1312 -0.0674
11937TIP3    H157226   2.949   6.456   5.186 -1.3266  0.0860 -0.1222
11937TIP3    H257227   2.944   6.351   5.077  0.8717 -0.0287 -0.1541
11938TIP3   OH257228   5.219   6.144  12.437  0.1253  0.2778 -0.1030
11938TIP3    H157229   5.173   6.218  12.398  0.5031  0.1147 -0.8596
11938TIP3    H257230   5.271   6.107  12.366  1.9232  0.8313  0.8726
11939TIP3   OH257231   2.603   2.654  16.026 -0.5783 -0.0781 -0.2505
11939TIP3    H157232   2.547   2.728  16.048  0.3106  0.7140 -0.5551
11939TIP3    H257233   2.602   2.652  15.930  1.3144  1.1163 -0.3530
11940TIP3   OH257234   4.028   2.300  15.269 -0.9373 -0.1473 -0.2722
11940TIP3    H157235   3.971   2.223  15.269 -1.4655  0.2355  0.4601
11940TIP3    H257236   4.021   2.336  15.357  1.0931 -0.5559  0.0963
11941TIP3   OH257237   3.873   5.791  13.378  0.1017 -0.2752 -0.3053
11941TIP3    H157238   3.830   5.829  13.301 -0.7007  0.5015  0.4907
11941TIP3    H257239   3.964   5.780  13.352  0.1394  1.2358 -0.9332
11942TIP3   OH257240   2.434   4.366  13.842 -0.0345 -0.1146  0.2018
11942TIP3    H157241   2.503   4.319  13.888 -0.1250  0.4564  0.9424
11942TIP3    H257242   2.466   4.456  13.836 -1.5587  0.7017  2.5035
11943TIP3   OH257243   1.524   1.565  15.231 -0.9289 -0.4289 -0.5408
11943TIP3    H157244   1.503   1.648  15.189 -3.1480 -0.0528  1.1158
11943TIP3    H257245   1.438   1.528  15.255  0.1132 -1.2993  2.2383
11944TIP3   OH257246   0.608   1.283   4.800 -0.0257  0.0712 -0.2647
11944TIP3    H157247   0.659   1.289   4.719  2.7210 -0.0998  1.2941
11944TIP3    H257248   0.621   1.368   4.842  0.6882 -0.6609  1.0696
11945TIP3   OH257249   1.657   4.889   6.255 -0.0624 -0.1968 -0.2817
11945TIP3    H157250   1.660   4.815   6.315  1.0360 -0.0326 -0.1214
11945TIP3    H257251   1.565   4.916   6.256 -0.5839 -1.8409 -0.7214
11946TIP3   OH257252   4.867   1.490   0.121 -0.2676 -0.0964 -0.4160
11946TIP3    H157253   4.861   1.544   0.200  0.2390 -0.3377 -0.2094
11946TIP3    H257254   4.867   1.400   0.154 -2.6019 -0.3010 -0.8362
11947TIP3   OH257255   2.254   2.576   5.874  0.0069  0.4372 -0.3182
11947TIP3    H157256   2.212   2.637   5.813 -0.7031 -1.0553 -1.4125
11947TIP3    H257257   2.234   2.611   5.960 -1.2156  1.2450 -0.8885
11948TIP3   OH257258   6.214   6.138  16.044  0.1530  0.0724  0.0165
11948TIP3    H157259   6.147   6.093  15.993 -0.8753  2.2125 -0.6483
11948TIP3    H257260   6.287   6.076  16.047 -0.4140 -0.8661 -2.5364
11949TIP3   OH257261   6.077   1.579  15.156 -0.1799  0.2618 -0.1433
11949TIP3    H157262   6.171   1.570  15.175 -0.4658 -1.3085  0.7435
11949TIP3    H257263   6.068   1.668  15.122  1.4464  0.8986  0.9395
11950TIP3   OH257264   1.417   3.676  12.325 -0.0419  0.0949  0.1112
11950TIP3    H157265   1.349   3.715  12.269 -1.8540 -2.7848  0.1258
11950TIP3    H257266   1.389   3.698  12.414 -0.8482 -0.8013  0.1023
11951TIP3   OH257267   2.949   2.450   3.684  0.3896 -0.5746 -0.2339
11951TIP3    H157268   2.982   2.522   3.632  0.4985  1.7167  2.7357
11951TIP3    H257269   2.858   2.440   3.657  0.8254 -0.5185 -1.8258
11952TIP3   OH257270   0.867   1.413  15.889  0.5146 -0.4679  0.0068
11952TIP3    H157271   0.928   1.486  15.878 -0.3738  0.3302  0.2382
11952TIP3    H257272   0.865   1.397  15.984  0.3088 -0.4387  0.0075
11953TIP3   OH257273   3.077   5.303   4.250  0.2204  0.3073 -0.4552
11953TIP3    H157274   3.046   5.369   4.312  2.0701  1.5410 -0.7658
11953TIP3    H257275   3.022   5.227   4.267 -2.9664  2.2836 -1.0276
11954TIP3   OH257276   2.499   0.399   2.750 -0.3588 -0.2178  0.0433
11954TIP3    H157277   2.493   0.391   2.845 -0.1918 -0.0121  0.0710
11954TIP3    H257278   2.523   0.311   2.720 -2.3418 -0.8099  0.0197
11955TIP3   OH257279   1.717   3.982   1.250  0.0320 -0.4610 -0.2298
11955TIP3    H157280   1.775   4.033   1.194  0.3465 -0.2756  0.2592
11955TIP3    H257281   1.738   3.891   1.229  0.1321 -0.3948 -0.4245
11956TIP3   OH257282   3.920   2.258   5.509  0.0365 -0.4708  0.4370
11956TIP3    H157283   3.925   2.198   5.584  0.4508  0.2396  0.9981
11956TIP3    H257284   3.941   2.204   5.433  3.0776 -0.5655  1.1940
11957TIP3   OH257285   4.983   0.268  12.099  0.1203 -0.3272  0.2222
11957TIP3    H157286   5.043   0.342  12.111 -0.1765  0.3324 -1.9117
11957TIP3    H257287   4.958   0.273  12.007  0.4093 -3.3687 -0.1062
11958TIP3   OH257288   2.369   4.570   2.400  0.1868  0.0762  0.0608
11958TIP3    H157289   2.345   4.529   2.483  0.9286 -0.3947  0.0527
11958TIP3    H257290   2.297   4.630   2.381 -1.1495 -1.5261 -0.1354
11959TIP3   OH257291   1.183   4.294  13.548  0.3362  0.4346 -0.0965
11959TIP3    H157292   1.259   4.236  13.539 -0.8602 -1.1223 -0.8560
11959TIP3    H257293   1.210   4.376  13.506  1.5511 -0.1336 -0.4713
11960TIP3   OH257294   3.522   0.511   4.530 -0.2354  0.4220  0.2467
11960TIP3    H157295   3.591   0.469   4.479  0.1494  0.1562  0.9647
11960TIP3    H257296   3.502   0.449   4.600 -1.2688  0.4613  0.0025
11961TIP3   OH257297   3.301   4.262  16.619 -0.0514 -0.4273  0.1262
11961TIP3    H157298   3.254   4.318  16.557 -2.5165 -1.1831  1.2197
11961TIP3    H257299   3.373   4.226  16.568 -0.7414  0.6207 -1.6893
11962TIP3   OH257300   5.238   1.975  14.190  0.4453 -0.2423 -0.6898
11962TIP3    H157301   5.285   2.022  14.259  0.1370 -0.4549 -0.3266
11962TIP3    H257302   5.153   1.953  14.230 -0.2379  0.7496 -1.5677
11963TIP3   OH257303   1.342   2.913  13.259 -0.6176 -0.2327  0.5832
11963TIP3    H157304   1.304   2.959  13.183  1.0257 -1.9579 -1.4243
11963TIP3    H257305   1.291   2.944  13.333 -2.5150  1.3798 -1.2405
11964TIP3   OH257306   3.360   3.092  15.719  0.5077 -0.6735  0.6001
11964TIP3    H157307   3.353   3.087  15.624 -0.2534 -0.4248  0.6342
11964TIP3    H257308   3.302   3.164  15.744  1.9835  0.3964  1.1194
11965TIP3   OH257309   0.498   0.675  14.306  0.2766 -0.3495  1.0101
11965TIP3    H157310   0.525   0.595  14.262  1.4724  0.7744 -0.4174
11965TIP3    H257311   0.421   0.704  14.257  0.5255 -0.0413  0.7971
11966TIP3   OH257312   2.298   3.085  12.276  0.7139  0.2083  0.0362
11966TIP3    H157313   2.304   3.050  12.365  1.5969  0.8983  0.2592
11966TIP3    H257314   2.384   3.068  12.238  0.3711 -0.0117 -0.6770
11967TIP3   OH257315   6.506   2.541   5.866  0.1649 -0.3834 -0.2341
11967TIP3    H157316   6.445   2.615   5.861  1.4524  0.7598  0.3540
11967TIP3    H257317   6.470   2.485   5.936  0.3092  0.7927  0.8149
11968TIP3   OH257318   0.804   6.115   4.037  0.5427  0.0613  0.1462
11968TIP3    H157319   0.884   6.068   4.014  0.1936 -0.6455  0.3454
11968TIP3    H257320   0.739   6.046   4.051  0.3373  0.5316  1.7014
11969TIP3   OH257321   6.037   6.071  13.994 -0.0202  0.0551 -0.4900
11969TIP3    H157322   6.069   6.134  14.059  0.4660  0.0874 -0.7568
11969TIP3    H257323   5.945   6.057  14.017 -0.2403  1.1481 -0.6476
11970TIP3   OH257324   6.283   6.382   0.304  0.0994  0.1652 -0.6352
11970TIP3    H157325   6.191   6.368   0.327  0.0739 -0.3314 -1.0112
11970TIP3    H257326   6.332   6.328   0.366  0.1270  0.3530 -0.4965
11971TIP3   OH257327   5.101   5.121  12.701 -0.2153  0.2668 -0.4305
11971TIP3    H157328   5.136   5.110  12.613  0.2293 -1.4264 -0.0769
11971TIP3    H257329   5.162   5.073  12.757 -1.1699  0.2677  0.6418
11972TIP3   OH257330   2.710   5.406  15.694  0.0253  0.2120  0.2235
11972TIP3    H157331   2.722   5.501  15.684  2.2549  0.2184  2.1214
11972TIP3    H257332   2.633   5.397  15.750 -0.1779  0.9155  0.0663
11973TIP3   OH257333   3.893   0.751  14.247  0.2424 -0.5619  0.2307
11973TIP3    H157334   3.852   0.835  14.227  0.2405 -0.7403 -0.5638
11973TIP3    H257335   3.970   0.773  14.298 -0.5664 -0.1839  1.3266
11974TIP3   OH257336   6.751   3.992   3.994 -1.1729 -0.0510 -0.7785
11974TIP3    H157337   6.735   3.902   3.967  1.5519 -0.4651 -1.3576
11974TIP3    H257338   6.826   3.985   4.054 -0.7024  1.8417 -1.0917
11975TIP3   OH257339   5.758   4.662  12.549  0.1843 -0.0611 -0.1372
11975TIP3    H157340   5.803   4.665  12.465  0.0180 -1.8353 -0.3299
11975TIP3    H257341   5.668   4.690  12.530  0.0947 -0.6424 -0.6142
11976TIP3   OH257342   1.252   4.852   2.283 -0.1323  0.8349 -0.1907
11976TIP3    H157343   1.226   4.800   2.207  1.5449 -2.8507  1.4821
11976TIP3    H257344   1.175   4.854   2.339 -0.8990  2.2454 -1.2294
11977TIP3   OH257345   6.790   1.698   3.718  0.3277 -0.4740  0.0842
11977TIP3    H157346   6.838   1.619   3.692  2.4906  0.5585  0.6774
11977TIP3    H257347   6.798   1.700   3.814  0.4585  0.5379  0.0656
11978TIP3   OH257348   0.717   5.655  12.741 -0.5543  0.6325  0.6392
11978TIP3    H157349   0.790   5.673  12.681 -0.3886 -0.0127  0.6385
11978TIP3    H257350   0.647   5.713  12.712 -0.5429  0.1945 -0.3150
11979TIP3   OH257351   1.358   5.647  14.567  0.1262  0.5944  0.2738
11979TIP3    H157352   1.279   5.623  14.617  0.1325  0.8982  0.4296
11979TIP3    H257353   1.325   5.686  14.487  0.0944 -1.1953 -0.6367
11980TIP3   OH257354   4.825   1.427   4.125 -0.1109  0.0099 -0.3265
11980TIP3    H157355   4.740   1.471   4.132 -1.0998 -1.9912  1.1179
11980TIP3    H257356   4.827   1.365   4.198  2.4702 -0.2577 -0.5240
11981TIP3   OH257357   4.361   4.355  11.001 -0.6907 -0.0251 -0.7417
11981TIP3    H157358   4.429   4.309  10.952 -1.5978  0.4367 -2.4935
11981TIP3    H257359   4.329   4.422  10.941 -1.2355  1.1688  0.8116
11982TIP3   OH257360   2.732   5.741  15.173 -0.1572 -0.1617  0.2390
11982TIP3    H157361   2.710   5.833  15.189 -1.2158 -0.6859  2.1272
11982TIP3    H257362   2.662   5.710  15.115  0.9404  0.5068 -1.5245
11983TIP3   OH257363   6.789   5.872   1.005 -0.1053  0.1095  0.5246
11983TIP3    H157364   6.782   5.905   0.915  0.6884 -0.2970  0.3090
11983TIP3    H257365   6.849   5.933   1.048 -0.5865  0.3818  0.8305
11984TIP3   OH257366   5.362   5.720   2.423  0.3265  0.1161  0.4507
11984TIP3    H157367   5.327   5.649   2.477 -0.0964  0.4938  0.6842
11984TIP3    H257368   5.388   5.787   2.487  0.5990  0.2270  0.2256
11985TIP3   OH257369   0.878   5.663   4.371  0.3526 -0.0481  0.1331
11985TIP3    H157370   0.819   5.676   4.445 -0.2409  1.8419 -0.5913
11985TIP3    H257371   0.826   5.617   4.306 -0.8217  2.6625 -0.9666
11986TIP3   OH257372   3.284   4.941  11.557 -0.3028 -0.3839 -0.4842
11986TIP3    H157373   3.313   4.856  11.526  0.6653 -0.2222 -0.0552
11986TIP3    H257374   3.335   5.004  11.506  1.0502 -0.1152  1.1110
11987TIP3   OH257375   4.623   5.844   5.325  0.1733  0.2509 -0.2094
11987TIP3    H157376   4.677   5.765   5.315 -0.5246 -0.1843 -0.6250
11987TIP3    H257377   4.586   5.859   5.238 -2.2467 -0.8544  0.5283
11988TIP3   OH257378   1.647   5.754  12.159  0.1122 -0.6635 -0.1452
11988TIP3    H157379   1.555   5.735  12.141  0.3130 -2.0774  0.1636
11988TIP3    H257380   1.670   5.825  12.099 -0.7009 -1.5104 -1.4883
11989TIP3   OH257381   0.102   2.009  10.821  0.6932 -0.9647  0.1837
11989TIP3    H157382   0.183   2.060  10.827  0.9551 -1.4102  0.4727
11989TIP3    H257383   0.121   1.928  10.868 -0.7655 -0.0193  2.5826
11990TIP3   OH257384   2.106   0.077   1.529 -0.4845 -0.4215 -0.0991
11990TIP3    H157385   2.160   0.061   1.452 -0.4911 -1.1351  0.0442
11990TIP3    H257386   2.021   0.038   1.508 -1.5228  2.0702 -0.9809
11991TIP3   OH257387   3.968   4.550  16.374 -0.6552 -0.6933  0.7760
11991TIP3    H157388   4.021   4.629  16.384  0.5562 -1.6560  2.4313
11991TIP3    H257389   4.020   4.493  16.317  0.6513 -2.0058  3.1270
11992TIP3   OH257390   5.884   0.089  13.096  0.3324 -0.3894  0.0844
11992TIP3    H157391   5.861   0.133  13.178 -0.2412 -0.1346 -0.2092
11992TIP3    H257392   5.893   0.161  13.033  0.0831 -0.6423 -0.2366
11993TIP3   OH257393   2.001   1.845   4.979  0.4680 -0.2361 -0.4827
11993TIP3    H157394   2.050   1.905   4.923 -2.9882  1.2571 -2.2048
11993TIP3    H257395   2.013   1.880   5.068  1.5981  0.7016 -0.9896
11994TIP3   OH257396   4.581   6.788   5.603  0.5187 -0.2150  0.0286
11994TIP3    H157397   4.530   6.864   5.631  1.4966  1.2520 -1.9558
11994TIP3    H257398   4.595   6.802   5.510  3.2650 -1.2938  0.2055
11995TIP3   OH257399   4.074   5.741  11.132 -0.4094  0.2651 -0.2263
11995TIP3    H157400   4.133   5.796  11.183 -0.6052 -1.7956  2.4138
11995TIP3    H257401   4.130   5.698  11.068  0.7004 -0.4231  1.1640
11996TIP3   OH257402   4.419   1.526  13.662  0.0039 -0.0297  0.5176
11996TIP3    H157403   4.419   1.455  13.598 -0.0216  1.0057 -0.6557
11996TIP3    H257404   4.406   1.482  13.746  2.9681 -1.7530  0.2281
11997TIP3   OH257405   5.588   1.169   2.918  0.9890 -0.3010 -0.7171
11997TIP3    H157406   5.631   1.254   2.925  0.3287  0.1456 -1.7843
11997TIP3    H257407   5.528   1.166   2.992  2.9163 -1.0166  0.9134
11998TIP3   OH257408   3.959   6.811  16.001 -0.2149  0.4282  0.1555
11998TIP3    H157409   3.989   6.729  15.963  0.5544  0.5132  0.5669
11998TIP3    H257410   4.037   6.850  16.040 -1.0108  0.1871  2.1259
11999TIP3   OH257411   2.342   0.464  13.517 -0.3844 -0.5023 -0.1253
11999TIP3    H157412   2.267   0.435  13.465  0.2081  0.2604 -1.4551
11999TIP3    H257413   2.321   0.437  13.606 -3.0525  1.2038 -0.1295
12000TIP3   OH257414   3.961   4.145  12.145 -0.1850 -0.8570  0.1541
12000TIP3    H157415   3.902   4.178  12.078 -0.9410 -1.4612  0.5010
12000TIP3    H257416   3.956   4.050  12.136 -0.1269 -0.9385  0.9224
12001TIP3   OH257417   0.403   3.218  16.275  0.0907  0.3754  0.6088
12001TIP3    H157418   0.354   3.283  16.325 -1.5456 -1.1597  1.1127
12001TIP3    H257419   0.336   3.163  16.236  1.3822  0.1753 -1.4898
12002TIP3   OH257420   5.388   5.448  13.998  0.0274 -0.6354  0.3207
12002TIP3    H157421   5.395   5.487  14.086 -0.5897 -0.4374  0.2860
12002TIP3    H257422   5.330   5.372  14.010 -0.2234 -0.4875  0.0467
12003TIP3   OH257423   0.667   4.602  14.029 -0.6077  0.6604  0.1573
12003TIP3    H157424   0.600   4.583  13.963 -0.8875  2.6833 -0.1917
12003TIP3    H257425   0.747   4.562  13.995 -1.4690 -1.2901  0.3024
12004TIP3   OH257426   6.529   2.152   5.219 -0.4987 -0.0821 -0.2085
12004TIP3    H157427   6.508   2.232   5.171 -2.3761 -0.0867  0.5113
12004TIP3    H257428   6.493   2.082   5.165 -1.9764 -0.1362  0.7712
12005TIP3   OH257429   6.378   0.879   6.180  0.4484  0.1454 -0.1020
12005TIP3    H157430   6.284   0.861   6.187  0.5477  0.0143  1.2926
12005TIP3    H257431   6.418   0.824   6.247  1.4249  0.8510 -0.0756
12006TIP3   OH257432   6.169   4.301   3.954  1.0147 -0.1721 -0.5942
12006TIP3    H157433   6.142   4.245   3.882  0.8030 -0.8100 -0.0265
12006TIP3    H257434   6.098   4.366   3.963  1.1471  0.0432 -1.0959
12007TIP3   OH257435   2.847   5.600  14.904  0.3326 -0.4232  0.0524
12007TIP3    H157436   2.754   5.589  14.920 -0.2608  1.8382 -1.4421
12007TIP3    H257437   2.865   5.548  14.826 -0.0138  0.2656 -0.4956
12008TIP3   OH257438   1.897   1.667  14.280  0.3391 -0.9178 -0.4204
12008TIP3    H157439   1.953   1.737  14.247 -2.0054  1.1538 -0.3103
12008TIP3    H257440   1.822   1.666  14.220 -1.7881 -0.2144  2.0116
12009TIP3   OH257441   5.187   2.846   1.575 -0.0072 -0.2151  0.0209
12009TIP3    H157442   5.234   2.928   1.557 -0.8087  0.2027 -0.2403
12009TIP3    H257443   5.123   2.840   1.504 -1.9213  0.4339  1.6013
12010TIP3   OH257444   4.373   1.265  16.427  0.5445  0.0797 -0.9627
12010TIP3    H157445   4.401   1.357  16.430 -1.3469  0.7020 -0.9662
12010TIP3    H257446   4.406   1.228  16.509  1.6947  0.6324 -1.1533
12011TIP3   OH257447   6.309   2.986   5.236  0.0992  0.5383  0.1159
12011TIP3    H157448   6.384   3.043   5.254  0.6728  0.1413 -0.8896
12011TIP3    H257449   6.249   3.041   5.185 -0.3706  0.9011  1.0489
12012TIP3   OH257450   0.950   2.167  15.010  0.0326 -0.2828 -0.3955
12012TIP3    H157451   0.900   2.086  15.001 -2.5762  0.8295  2.3572
12012TIP3    H257452   0.890   2.236  14.983  1.0783  0.9535  0.3061
12013TIP3   OH257453   2.873   0.116   5.554  0.1678  0.3499  0.0759
12013TIP3    H157454   2.921   0.073   5.624  0.7158 -2.2718 -1.7546
12013TIP3    H257455   2.938   0.129   5.485 -0.7862  0.9738 -0.7419
12014TIP3   OH257456   6.278   1.892   0.925 -0.3526 -0.1157 -0.1938
12014TIP3    H157457   6.312   1.841   0.852  0.2174  0.5039 -0.3790
12014TIP3    H257458   6.322   1.856   1.002  1.2987  1.1008 -0.5019
12015TIP3   OH257459   0.152   3.675  11.726  0.0725  0.1185  1.0470
12015TIP3    H157460   0.096   3.658  11.802 -1.2811  1.8825  0.5033
12015TIP3    H257461   0.118   3.617  11.658 -0.4463  0.4549  1.0176
12016TIP3   OH257462   3.061   3.496   0.480 -0.3540  0.0669  0.6852
12016TIP3    H157463   3.140   3.540   0.449 -0.1171 -0.9261 -0.1756
12016TIP3    H257464   3.093   3.421   0.531 -0.7499  0.8411  2.1561
12017TIP3   OH257465   1.521   6.574  13.777  0.1218  0.1449 -0.2857
12017TIP3    H157466   1.513   6.479  13.783  1.1534  0.1255  0.8966
12017TIP3    H257467   1.583   6.599  13.845 -0.0255  1.6628 -0.6547
12018TIP3   OH257468   0.918   6.607  13.671  0.1588 -0.3210  0.3571
12018TIP3    H157469   0.878   6.527  13.705  1.3614 -2.2714 -2.4763
12018TIP3    H257470   0.975   6.638  13.742 -1.1104 -1.3518  1.8793
12019TIP3   OH257471   5.241   3.914   2.489  0.1779 -0.3033  0.1555
12019TIP3    H157472   5.333   3.897   2.509  0.4141 -0.2406 -0.8483
12019TIP3    H257473   5.194   3.844   2.534  0.6914 -0.2661  0.7794
12020TIP3   OH257474   4.642   4.912   0.659 -0.5388  0.4964  0.6397
12020TIP3    H157475   4.603   4.944   0.740  1.5082  1.1686  1.4202
12020TIP3    H257476   4.713   4.973   0.639 -0.7354  0.1328 -1.4719
12021TIP3   OH257477   2.786   3.406   3.130 -0.0103 -0.0107 -0.1034
12021TIP3    H157478   2.704   3.375   3.091 -0.3849 -0.9182  1.3465
12021TIP3    H257479   2.770   3.499   3.148 -0.3567  0.0571 -0.7293
12022TIP3   OH257480   5.113   6.164   0.872  0.4059  0.4801  0.3123
12022TIP3    H157481   5.161   6.246   0.861  1.3825 -0.2895 -1.7412
12022TIP3    H257482   5.039   6.172   0.812  0.7507 -0.2705 -0.2374
12023TIP3   OH257483   0.620   6.261   1.041  0.3047  0.2951 -0.7760
12023TIP3    H157484   0.622   6.341   0.988 -2.0136 -0.2119 -1.7971
12023TIP3    H257485   0.689   6.206   1.005 -1.2399 -0.0648 -3.4710
12024TIP3   OH257486   4.323   1.723   5.925  0.6375 -0.0678 -0.2085
12024TIP3    H157487   4.362   1.694   6.007 -0.6784 -1.1380  0.0646
12024TIP3    H257488   4.229   1.709   5.936  0.2465  1.5407 -1.2122
12025TIP3   OH257489   2.484   4.031  14.445  0.4865 -0.4271  0.0891
12025TIP3    H157490   2.487   4.099  14.511 -0.6886 -1.6576  1.4789
12025TIP3    H257491   2.394   4.034  14.411  1.1728  0.4548 -1.7969
12026TIP3   OH257492   0.639   0.152   1.707 -0.3124 -0.1314  0.1844
12026TIP3    H157493   0.625   0.064   1.671 -1.3122 -0.3555  1.0823
12026TIP3    H257494   0.554   0.178   1.740  0.1197  0.9390  0.4731
12027TIP3   OH257495   5.199   3.797  16.046 -0.2750  0.2662  0.3406
12027TIP3    H157496   5.279   3.814  16.095  0.4191 -1.1183 -0.2842
12027TIP3    H257497   5.137   3.862  16.080  0.7965  0.7078  1.5445
12028TIP3   OH257498   1.600   2.144  10.818  0.0835 -0.3405  0.0031
12028TIP3    H157499   1.619   2.229  10.859 -0.6683  0.1179 -0.5684
12028TIP3    H257500   1.664   2.136  10.748 -1.0920  0.7133 -1.2448
12029TIP3   OH257501   3.999   5.519   4.251 -0.4300 -0.0528  0.1232
12029TIP3    H157502   4.060   5.448   4.230 -1.1340 -0.2314 -1.5271
12029TIP3    H257503   3.915   5.491   4.213 -1.3590  0.5547  1.6228
12030TIP3   OH257504   5.746   5.955   0.710  0.2201  0.2955 -0.0061
12030TIP3    H157505   5.752   6.011   0.788  1.7422 -0.0266  0.1436
12030TIP3    H257506   5.713   6.013   0.642 -0.7796  0.6764  0.7659
12031TIP3   OH257507   6.602   3.511   3.022 -0.0452  0.4590  0.4553
12031TIP3    H157508   6.583   3.596   3.061 -0.0243  1.2881 -1.2341
12031TIP3    H257509   6.652   3.532   2.943 -0.4438 -1.1006 -0.2394
12032TIP3   OH257510   6.638   1.725  12.964  0.6227 -0.0793  0.2289
12032TIP3    H157511   6.621   1.701  13.055  0.7234  0.5447  0.4189
12032TIP3    H257512   6.722   1.683  12.943  0.5620 -0.2875  0.3970
12033TIP3   OH257513   6.762   3.849   6.072  0.2872  0.0853 -0.6470
12033TIP3    H157514   6.739   3.864   6.163  0.5960  0.3657 -0.6158
12033TIP3    H257515   6.722   3.764   6.051 -0.3959  0.3612 -0.4679
12034TIP3   OH257516   4.176   6.519  16.952 -0.4618  0.5137  0.2839
12034TIP3    H157517   4.198   6.530  17.044  0.5331  0.6678  0.0350
12034TIP3    H257518   4.085   6.548  16.946 -1.3042 -1.6821  1.6316
12035TIP3   OH257519   2.450   6.345  10.925  0.8305  0.8732 -0.5394
12035TIP3    H157520   2.356   6.332  10.910  0.7948  0.0997  0.2447
12035TIP3    H257521   2.490   6.339  10.838  0.2525  0.2081 -0.7690
12036TIP3   OH257522   0.038   4.923   1.342 -0.3763  0.1504  0.2702
12036TIP3    H157523   0.109   4.932   1.280 -0.4686  1.9291  0.3806
12036TIP3    H257524   0.080   4.931   1.428 -0.4678 -0.6388  0.3909
12037TIP3   OH257525   1.388   6.253  14.248 -0.3261 -0.8118 -0.3249
12037TIP3    H157526   1.339   6.172  14.232 -1.0392 -0.3170 -0.6804
12037TIP3    H257527   1.455   6.228  14.312 -1.6977 -1.2667  0.9908
12038TIP3   OH257528   2.370   5.167  12.236  0.0146  0.4745 -1.0419
12038TIP3    H157529   2.451   5.217  12.230 -0.2149  1.0109  0.0464
12038TIP3    H257530   2.344   5.152  12.145  1.7328 -0.4170 -1.4304
12039TIP3   OH257531   5.355   3.891  12.292 -0.1274 -0.5385 -0.0108
12039TIP3    H157532   5.312   3.807  12.275  0.4738 -0.6551 -1.1126
12039TIP3    H257533   5.341   3.941  12.211  1.6205 -0.5298 -0.3491
12040TIP3   OH257534   3.314   1.196  11.702  0.2692 -0.2274 -0.4759
12040TIP3    H157535   3.330   1.290  11.696 -0.1874  0.0522  1.7569
12040TIP3    H257536   3.222   1.187  11.676  0.4411 -0.1352 -1.1376
12041TIP3   OH257537   3.649   0.936  15.637 -0.0840  0.0723 -0.1005
12041TIP3    H157538   3.632   0.946  15.731 -0.4528 -1.5792  0.0440
12041TIP3    H257539   3.574   0.976  15.594 -0.1495  0.4113  0.3242
12042TIP3   OH257540   4.803   0.183   4.251  0.3514  0.3048 -0.5255
12042TIP3    H157541   4.872   0.118   4.265  1.6595  1.4860 -1.2572
12042TIP3    H257542   4.737   0.161   4.317  1.9876 -0.0836  1.0933
12043TIP3   OH257543   4.979   5.301  15.986  0.5339  0.5304 -0.3070
12043TIP3    H157544   5.028   5.264  16.060  0.3011 -1.0054 -0.8736
12043TIP3    H257545   4.891   5.263  15.995 -0.0916  1.9634 -0.2236
12044TIP3   OH257546   2.779   6.605  11.968 -0.1716  0.7824  0.1065
12044TIP3    H157547   2.743   6.524  11.932 -0.8748  0.5049  1.3823
12044TIP3    H257548   2.703   6.654  11.999  0.4835 -0.6110  4.5444
12045TIP3   OH257549   2.621   6.425   6.006 -0.6071  0.0185  0.8285
12045TIP3    H157550   2.672   6.381   6.074  0.9961  0.1615 -0.2259
12045TIP3    H257551   2.597   6.509   6.044 -0.2651 -0.1573  1.4458
12046TIP3   OH257552   0.427   5.014   2.501 -0.1102  0.0589 -0.3810
12046TIP3    H157553   0.489   5.056   2.561  0.1334 -2.0812  1.0115
12046TIP3    H257554   0.471   5.015   2.416  0.9116  0.4628  0.1335
12047TIP3   OH257555   4.068   1.485  16.832 -0.1907  0.1405 -0.2988
12047TIP3    H157556   3.992   1.462  16.886 -0.2154  1.2388  0.1727
12047TIP3    H257557   4.130   1.414  16.845  0.4446  1.0733  2.4332
12048TIP3   OH257558   6.590   0.110  10.722 -0.0931 -0.1004 -0.2307
12048TIP3    H157559   6.512   0.144  10.678 -0.9600 -1.5460  0.1193
12048TIP3    H257560   6.564   0.102  10.814 -0.0006 -1.8283 -0.3280
12049TIP3   OH257561   4.360   0.952   3.632 -0.0743 -0.4059 -0.3485
12049TIP3    H157562   4.428   0.886   3.648  0.2044  0.1117  0.6785
12049TIP3    H257563   4.284   0.920   3.681  0.2511  0.3327  0.6549
12050TIP3   OH257564   1.727   0.379  13.321 -0.0823  0.6381  0.0250
12050TIP3    H157565   1.675   0.368  13.241 -0.9187 -2.3437  0.8526
12050TIP3    H257566   1.664   0.409  13.386 -0.7135 -2.0292  0.7795
12051TIP3   OH257567   0.514   5.820  12.667  0.1009 -0.5362 -0.1714
12051TIP3    H157568   0.441   5.852  12.721 -1.7193 -1.4102 -1.9974
12051TIP3    H257569   0.569   5.897  12.653 -1.6822  0.7240 -0.5938
12052TIP3   OH257570   5.774   4.494  12.789  0.3607  0.8524 -1.3215
12052TIP3    H157571   5.706   4.426  12.796  0.9937 -0.1339 -3.7680
12052TIP3    H257572   5.740   4.556  12.725  0.4473  2.1068 -0.2045
12053TIP3   OH257573   0.026   3.634   5.735 -0.1150  0.4032 -0.1256
12053TIP3    H157574   0.120   3.651   5.735  0.1481 -0.8779 -0.9186
12053TIP3    H257575   0.018   3.550   5.780 -1.0413  1.1435  1.1543
12054TIP3   OH257576   3.449   1.649  14.910  0.0451 -0.1004 -0.2730
12054TIP3    H157577   3.353   1.653  14.912 -0.0801  0.5753 -3.3232
12054TIP3    H257578   3.468   1.566  14.866  0.7540  0.6615 -1.4589
12055TIP3   OH257579   2.256   5.450   1.117 -0.1574  0.7385 -0.4668
12055TIP3    H157580   2.183   5.512   1.119  0.8307  1.9252  0.7819
12055TIP3    H257581   2.230   5.385   1.052 -2.4064  1.0021  0.0760
12056TIP3   OH257582   4.441   2.352   2.266  0.2762  0.4197 -0.7698
12056TIP3    H157583   4.504   2.424   2.275  2.0428 -1.1679  0.5090
12056TIP3    H257584   4.465   2.308   2.185 -0.1356  0.6519 -1.0214
12057TIP3   OH257585   2.279   0.386   0.770  0.0116  0.1812 -0.2184
12057TIP3    H157586   2.370   0.359   0.753  0.5251  0.8854  1.1507
12057TIP3    H257587   2.266   0.463   0.715  0.9402  1.2289  0.9458
12058TIP3   OH257588   4.234   2.950   3.967  0.1580 -0.5995 -0.0881
12058TIP3    H157589   4.320   2.961   3.924 -0.0339 -2.1549 -0.9377
12058TIP3    H257590   4.254   2.952   4.060  0.7795  1.4489 -0.2097
12059TIP3   OH257591   3.771   1.368  13.873 -0.1121 -0.1799  0.2875
12059TIP3    H157592   3.777   1.382  13.968 -0.1809 -0.2602  0.3049
12059TIP3    H257593   3.822   1.288  13.858  2.2988  1.3491 -0.1502
12060TIP3   OH257594   5.378   1.072   0.745 -0.3070 -1.0800  0.0209
12060TIP3    H157595   5.303   1.116   0.783  1.1092  0.5376  1.0865
12060TIP3    H257596   5.444   1.141   0.734  2.7479 -3.0762  3.5150
12061TIP3   OH257597   0.102   0.568   6.116 -0.0172 -0.1182 -0.3388
12061TIP3    H157598   0.010   0.568   6.139 -0.3036  0.2761 -1.4079
12061TIP3    H257599   0.103   0.555   6.021  1.0330 -0.3527 -0.3088
12062TIP3   OH257600   2.235   1.620   6.030 -0.5549  0.2374  0.2228
12062TIP3    H157601   2.229   1.666   6.113 -1.8641 -0.3933  0.5079
12062TIP3    H257602   2.254   1.688   5.965 -0.1956  0.8258  0.9324
12063TIP3   OH257603   0.375   0.658  16.263 -0.1207  0.7275 -0.3299
12063TIP3    H157604   0.379   0.733  16.204 -0.4888 -0.4609 -1.9228
12063TIP3    H257605   0.372   0.697  16.351 -2.1305  2.6184 -1.1393
12064TIP3   OH257606   1.850   6.113  14.006  0.0419 -0.5088 -0.6576
12064TIP3    H157607   1.913   6.054  14.047  0.9193  0.2117 -0.9299
12064TIP3    H257608   1.886   6.131  13.919 -0.3908  0.1410 -0.7118
12065TIP3   OH257609   1.320   6.783   4.351  0.4227 -0.2078 -0.6781
12065TIP3    H157610   1.386   6.715   4.364  0.1423 -0.2059  0.9602
12065TIP3    H257611   1.323   6.801   4.257  3.4995  0.5580 -0.5401
12066TIP3   OH257612   4.228   2.985  15.513 -0.2283 -0.2684  0.2527
12066TIP3    H157613   4.304   2.936  15.483  0.2963  0.6842 -0.0057
12066TIP3    H257614   4.180   2.923  15.568 -0.7348 -1.7714 -1.7572
12067TIP3   OH257615   0.129   4.755  16.867  0.8953 -0.4913 -0.0706
12067TIP3    H157616   0.089   4.707  16.794  0.4093  0.5224 -0.4948
12067TIP3    H257617   0.175   4.688  16.917  2.9183 -0.9800 -2.3590
12068TIP3   OH257618   3.659   5.331   5.497 -0.4996  0.8752  0.7628
12068TIP3    H157619   3.587   5.394   5.504 -1.0279  0.4030 -0.1179
12068TIP3    H257620   3.628   5.254   5.545 -0.8312  0.4752 -0.0649
12069TIP3   OH257621   5.590   4.880   0.524  0.4898  0.4206 -0.1844
12069TIP3    H157622   5.541   4.923   0.454 -0.2470  0.8773  0.5829
12069TIP3    H257623   5.613   4.794   0.489 -4.5615 -1.6888  0.7693
12070TIP3   OH257624   3.531   5.246   6.128 -0.3528  0.2148 -0.2083
12070TIP3    H157625   3.497   5.156   6.124 -1.6457  0.7060 -1.0258
12070TIP3    H257626   3.568   5.253   6.215 -1.0652 -0.8373  0.2067
12071TIP3   OH257627   1.096   4.156  15.862  0.4818  0.0341  0.2835
12071TIP3    H157628   1.031   4.087  15.870  0.3922 -0.2585 -2.1672
12071TIP3    H257629   1.086   4.189  15.772  4.1234 -0.4977 -0.4850
12072TIP3   OH257630   6.634   5.366  15.360  0.4307 -0.3771  0.6249
12072TIP3    H157631   6.648   5.393  15.269  1.9022  0.0484  0.9436
12072TIP3    H257632   6.569   5.296  15.355 -1.9932  1.8061 -0.4340
12073TIP3   OH257633   5.860   6.356  12.628 -0.0607 -0.1292 -0.1883
12073TIP3    H157634   5.876   6.430  12.687  2.4793 -0.7089 -0.0393
12073TIP3    H257635   5.774   6.373  12.591 -0.2355  2.0642  1.0641
12074TIP3   OH257636   5.121   5.543   1.417  0.0640 -0.7179 -0.5844
12074TIP3    H157637   5.136   5.591   1.335 -0.6255 -1.0723 -0.9314
12074TIP3    H257638   5.194   5.568   1.474 -0.7697  1.5399 -0.4012
12075TIP3   OH257639   2.923   0.251  15.141  0.3479  0.0451 -0.0731
12075TIP3    H157640   2.859   0.207  15.085 -0.7739  2.7857 -1.1032
12075TIP3    H257641   2.998   0.265  15.084 -0.1096  1.2553 -0.4052
12076TIP3   OH257642   6.165   2.770  13.361  0.0226  0.0477  0.0131
12076TIP3    H157643   6.072   2.767  13.338 -0.2333 -0.6217  1.0565
12076TIP3    H257644   6.210   2.778  13.277 -0.9836  0.8757 -0.4796
12077TIP3   OH257645   5.980   3.430   5.819 -0.0878  0.8761 -0.2327
12077TIP3    H157646   5.886   3.424   5.833 -0.1324 -0.5732 -0.9610
12077TIP3    H257647   6.010   3.498   5.880 -1.4931  0.8689  0.4827
12078TIP3   OH257648   1.078   6.308  12.366 -0.3114 -0.0065 -0.6083
12078TIP3    H157649   1.132   6.345  12.436 -0.2337 -0.8675 -0.1954
12078TIP3    H257650   0.997   6.358  12.369 -0.2475  0.0711  0.0051
12079TIP3   OH257651   0.254   3.993   4.932  0.1730  0.0254 -0.4225
12079TIP3    H157652   0.319   4.063   4.926 -0.6934  0.9069  0.2307
12079TIP3    H257653   0.258   3.965   5.024 -1.8764  1.6268  0.2379
12080TIP3   OH257654   1.781   6.367   2.049  0.0716 -0.6458 -0.0790
12080TIP3    H157655   1.859   6.413   2.019  1.1125 -1.7385  0.8228
12080TIP3    H257656   1.722   6.367   1.974  1.3231 -0.6111 -1.0842
12081TIP3   OH257657   1.200   1.258   4.707 -0.3951  0.2431 -0.2645
12081TIP3    H157658   1.197   1.262   4.803 -2.9233  0.7876 -0.3089
12081TIP3    H257659   1.192   1.349   4.679  2.1985  0.3150 -1.0614
12082TIP3   OH257660   0.096   3.587  12.001 -0.3106 -0.0599  0.0437
12082TIP3    H157661   0.150   3.514  12.030 -1.2275 -1.3846 -1.4024
12082TIP3    H257662   0.008   3.567  12.033 -0.4905  0.6466  0.0163
12083TIP3   OH257663   0.877   1.544   5.846  0.1478 -0.4705 -0.1732
12083TIP3    H157664   0.859   1.520   5.936  0.1611 -0.4887 -0.1756
12083TIP3    H257665   0.822   1.486   5.794 -1.1586  0.6963 -0.1288
12084TIP3   OH257666   4.318   3.985  14.701 -0.0293  0.1439  0.3172
12084TIP3    H157667   4.403   4.027  14.705 -0.3087  0.6813  0.7262
12084TIP3    H257668   4.266   4.029  14.769 -0.2505 -1.0196  0.9385
12085TIP3   OH257669   6.162   4.165   3.708 -0.1374 -0.0681  0.6043
12085TIP3    H157670   6.221   4.232   3.673 -1.4630  0.1173 -1.4901
12085TIP3    H257671   6.117   4.130   3.631 -0.9253 -1.9968  1.8505
12086TIP3   OH257672   1.825   3.643  15.378 -0.4968  0.6669 -0.4059
12086TIP3    H157673   1.901   3.585  15.379 -0.9572  0.0018  2.2614
12086TIP3    H257674   1.804   3.652  15.285  1.1934 -1.2875 -1.0681
12087TIP3   OH257675   6.270   0.797  16.906 -0.2405  0.1030 -0.1941
12087TIP3    H157676   6.206   0.758  16.966  0.8217 -1.2725  0.1010
12087TIP3    H257677   6.292   0.726  16.846 -2.2558  1.7711 -3.1775
12088TIP3   OH257678   3.581   1.830   5.286 -0.3735 -0.2900  0.4725
12088TIP3    H157679   3.520   1.895   5.252  0.5394  0.9871  1.1876
12088TIP3    H257680   3.667   1.861   5.259 -0.0288 -2.8783 -1.8854
12089TIP3   OH257681   4.490   5.184  16.182  0.1320  0.0271  0.2886
12089TIP3    H157682   4.455   5.180  16.271  1.5507  0.2990  0.8894
12089TIP3    H257683   4.434   5.247  16.137  0.9236  1.8808  1.7423
12090TIP3   OH257684   5.584   4.292  14.560 -0.0714  0.0576 -0.1351
12090TIP3    H157685   5.677   4.299  14.580 -0.2413  1.9317  0.1560
12090TIP3    H257686   5.580   4.231  14.486  1.5109  0.9455 -1.0029
12091TIP3   OH257687   5.218   6.052   0.116  0.2930 -0.3002  0.4168
12091TIP3    H157688   5.297   6.039   0.169  0.3015 -0.7301  0.2973
12091TIP3    H257689   5.223   5.985   0.049 -0.2053 -0.3602  0.4406
12092TIP3   OH257690   3.441   0.289   1.804 -1.0229 -0.0876  0.3089
12092TIP3    H157691   3.431   0.254   1.893 -1.9229  0.8610  0.6064
12092TIP3    H257692   3.467   0.380   1.818 -3.2779  0.7132 -0.3368
12093TIP3   OH257693   3.158   4.455   1.646 -0.5634 -0.0660 -0.0520
12093TIP3    H157694   3.242   4.490   1.616 -0.0217 -0.6109  0.7768
12093TIP3    H257695   3.149   4.489   1.735 -1.2839  0.0849 -0.1785
12094TIP3   OH257696   4.796   3.945   5.209  0.2397  0.0953  0.2804
12094TIP3    H157697   4.702   3.961   5.204  0.2555  0.3177  0.6893
12094TIP3    H257698   4.809   3.898   5.291  0.6922  1.5978  1.1007
12095TIP3   OH257699   4.894   1.778   1.532 -0.1450 -0.1637  0.4576
12095TIP3    H157700   4.829   1.849   1.525 -0.9214 -0.8820  0.2792
12095TIP3    H257701   4.977   1.824   1.548 -0.2249  0.9364 -1.8846
12096TIP3   OH257702   2.391   2.124  12.181  0.1453  0.2607  0.4630
12096TIP3    H157703   2.465   2.168  12.140 -0.5609  1.1333  0.1026
12096TIP3    H257704   2.381   2.043  12.131 -0.1647  0.9095 -0.5471
12097TIP3   OH257705   5.003   1.233   2.698  0.2055 -0.3739  0.4468
12097TIP3    H157706   5.096   1.255   2.709  0.1533  0.4263 -0.5606
12097TIP3    H257707   4.996   1.204   2.607 -0.5073 -0.6055  0.5674
12098TIP3   OH257708   4.714   4.449  16.512  0.4161 -0.6208  0.1016
12098TIP3    H157709   4.674   4.523  16.465  2.0628 -0.3955 -1.0147
12098TIP3    H257710   4.694   4.467  16.604 -0.4970  0.4245 -0.2703
12099TIP3   OH257711   5.718   2.322   3.789  0.2162  0.3531  0.3989
12099TIP3    H157712   5.623   2.316   3.785  0.2411  0.2987 -0.1610
12099TIP3    H257713   5.748   2.293   3.703  0.7781 -0.4618  0.8579
12100TIP3   OH257714   1.202   6.455  12.547  0.4777 -0.0090  0.2506
12100TIP3    H157715   1.183   6.515  12.619  0.7192 -1.9574  2.0435
12100TIP3    H257716   1.296   6.439  12.553  0.2605 -1.3164  0.4818
12101TIP3   OH257717   2.852   4.160  17.098 -0.4674 -0.0047  0.3021
12101TIP3    H157718   2.916   4.168  17.169  0.2556  2.5447 -0.5287
12101TIP3    H257719   2.771   4.195  17.135 -1.0703 -1.8915  0.8909
12102TIP3   OH257720   0.222   3.524   3.861  0.2296  0.3939  0.2954
12102TIP3    H157721   0.308   3.493   3.833 -0.0115  0.5067 -0.5898
12102TIP3    H257722   0.167   3.446   3.861  0.1344  0.4588  0.0651
12103TIP3   OH257723   2.156   6.339   2.190  0.5699 -0.2366 -0.1255
12103TIP3    H157724   2.171   6.258   2.141  0.0236 -0.3544 -0.0948
12103TIP3    H257725   2.076   6.324   2.239 -0.0586  0.6569 -0.8404
12104TIP3   OH257726   3.884   5.586   0.546  0.3043  0.8137  0.1126
12104TIP3    H157727   3.918   5.632   0.469  0.9086 -0.4215 -0.3832
12104TIP3    H257728   3.956   5.531   0.576 -0.7649 -0.7682 -0.0807
12105TIP3   OH257729   0.911   0.105  16.664  0.3007 -0.0350 -0.7320
12105TIP3    H157730   0.936   0.044  16.734 -0.7892  0.7567  0.4021
12105TIP3    H257731   0.993   0.123  16.618  1.5332  1.0168  1.6744
12106TIP3   OH257732   5.176   3.348   5.558  0.3197 -0.0445  0.0512
12106TIP3    H157733   5.258   3.355   5.607  1.0819 -2.0511 -0.7865
12106TIP3    H257734   5.117   3.299   5.616  0.2550  0.0547  0.0685
12107TIP3   OH257735   5.966   5.758  12.220  0.0431 -0.0318  0.5692
12107TIP3    H157736   6.040   5.796  12.268  0.9633 -1.1218  0.0708
12107TIP3    H257737   5.889   5.783  12.271  0.8809 -0.1472  1.9538
12108TIP3   OH257738   4.741   1.657  12.411  0.0041 -0.2337  0.2073
12108TIP3    H157739   4.751   1.744  12.374  2.4202  0.0123  1.2616
12108TIP3    H257740   4.649   1.652  12.437 -0.2287  1.9374 -0.0236
12109TIP3   OH257741   0.528   6.452   4.905 -0.0107 -0.3127 -0.3047
12109TIP3    H157742   0.498   6.385   4.966 -2.2070 -0.6651 -1.6514
12109TIP3    H257743   0.469   6.526   4.920 -0.0038 -0.0737 -1.3685
12110TIP3   OH257744   3.427   0.330  15.657 -0.2109  0.8201  0.0962
12110TIP3    H157745   3.476   0.405  15.625 -0.5229  0.0638 -2.3815
12110TIP3    H257746   3.471   0.254  15.619 -1.2056 -0.1107  0.7185
12111TIP3   OH257747   5.694   5.643  13.630  0.5733  0.3354  0.3806
12111TIP3    H157748   5.772   5.698  13.618  1.4062 -0.4407  2.0009
12111TIP3    H257749   5.634   5.697  13.681  1.0986  0.0292  1.3415
12112TIP3   OH257750   2.052   2.085   2.711 -0.2689  0.0844 -0.6407
12112TIP3    H157751   2.009   2.169   2.728  0.3636  0.0491  1.4305
12112TIP3    H257752   2.112   2.103   2.638  0.3139  1.6143  0.1753
12113TIP3   OH257753   4.250   2.576   1.787 -0.0530 -0.0634  0.3784
12113TIP3    H157754   4.284   2.644   1.729 -1.2027 -1.2402 -1.8435
12113TIP3    H257755   4.156   2.591   1.789 -0.2426 -1.1470  0.4218
12114TIP3   OH257756   4.753   2.572  16.696 -0.3283 -0.1044  0.5250
12114TIP3    H157757   4.823   2.634  16.716  1.4489 -2.1550  1.0462
12114TIP3    H257758   4.717   2.602  16.612  1.3466  0.9061  0.1291
12115TIP3   OH257759   3.309   2.924   4.660  0.1980 -0.3667 -0.1025
12115TIP3    H157760   3.317   2.829   4.669 -1.0824 -0.5460 -0.6395
12115TIP3    H257761   3.397   2.953   4.638  0.7015 -1.3749  0.5013
12116TIP3   OH257762   1.978   3.523  15.101 -0.3824 -0.2089  0.1133
12116TIP3    H157763   1.918   3.449  15.094 -0.8720  0.0190  1.4710
12116TIP3    H257764   2.010   3.520  15.191  0.3458  0.6595 -0.0953
12117TIP3   OH257765   1.976   0.522   0.583 -0.5524  0.1568  0.0749
12117TIP3    H157766   1.916   0.590   0.613  0.4777  0.6300  1.0930
12117TIP3    H257767   1.981   0.460   0.656 -0.2868 -0.2180 -0.2552
12118TIP3   OH257768   6.535   4.121  15.914  0.0074 -0.1867 -0.2499
12118TIP3    H157769   6.613   4.167  15.945  0.1934 -0.2731 -0.5785
12118TIP3    H257770   6.537   4.132  15.819 -0.4060 -0.1555 -0.2564
12119TIP3   OH257771   2.445   1.909  13.402  0.2368  0.0090 -0.1145
12119TIP3    H157772   2.410   1.893  13.490  1.7930 -0.2328  0.5071
12119TIP3    H257773   2.535   1.876  13.407  0.1732 -0.5369 -1.9865
12120TIP3   OH257774   1.470   2.956  13.654 -0.1368  0.2063  0.3437
12120TIP3    H157775   1.496   3.048  13.658  0.2662  0.0549  2.5066
12120TIP3    H257776   1.401   2.949  13.720  0.3868 -1.2015  0.7653
12121TIP3   OH257777   4.535   6.368   2.914  0.5921 -0.7397 -0.6380
12121TIP3    H157778   4.510   6.426   2.842  1.6777 -1.5315 -1.6867
12121TIP3    H257779   4.483   6.289   2.901  2.0900 -1.6104 -1.6777
12122TIP3   OH257780   4.506   4.020   5.418  0.7838  0.1093 -0.1336
12122TIP3    H157781   4.461   3.999   5.500  0.9562 -0.6311 -0.2272
12122TIP3    H257782   4.444   3.994   5.349  1.4181 -1.1032 -0.2673
12123TIP3   OH257783   5.518   5.345  15.065  0.5366 -0.4152  0.0338
12123TIP3    H157784   5.498   5.434  15.093 -0.8971 -0.9224  0.6794
12123TIP3    H257785   5.446   5.321  15.006 -0.0120 -1.7305  1.1844
12124TIP3   OH257786   0.411   2.479   3.494 -0.1605  1.0052 -0.3818
12124TIP3    H157787   0.459   2.407   3.453  0.8328  0.8022  1.0392
12124TIP3    H257788   0.475   2.550   3.501 -0.5195  1.2907  0.1033
12125TIP3   OH257789   1.783   5.408  14.666  0.3856  0.3349  0.1756
12125TIP3    H157790   1.745   5.486  14.626  0.1716  1.4961  2.4518
12125TIP3    H257791   1.726   5.336  14.637 -1.0937  1.4470  0.2005
12126TIP3   OH257792   6.012   5.672   3.902  0.2053  0.3949  0.6030
12126TIP3    H157793   6.107   5.670   3.915  0.0986  0.4166  1.4474
12126TIP3    H257794   5.976   5.634   3.982 -0.4544 -1.0302 -0.3220
12127TIP3   OH257795   1.435   4.203   5.201 -0.2856 -0.1290 -0.0854
12127TIP3    H157796   1.357   4.188   5.255 -0.8956 -1.3624 -1.2481
12127TIP3    H257797   1.482   4.274   5.245 -0.8445 -0.9604  1.9367
12128TIP3   OH257798   6.426   5.954  16.077  0.0426  0.1875 -0.1354
12128TIP3    H157799   6.366   5.884  16.051 -1.9708 -0.6751  5.4927
12128TIP3    H257800   6.512   5.912  16.081 -0.6217 -1.1939  0.3194
12129TIP3   OH257801   4.035   4.049   5.755  0.2397  1.0353  0.3114
12129TIP3    H157802   3.981   4.051   5.676 -0.3996 -1.2313  0.6401
12129TIP3    H257803   4.065   4.140   5.765 -1.4019  1.8272 -1.3085
12130TIP3   OH257804   6.396   3.654   5.559  0.2152 -0.5730  0.0125
12130TIP3    H157805   6.327   3.707   5.599  0.9183  0.3016  0.0959
12130TIP3    H257806   6.458   3.637   5.630  0.3047 -0.9803 -0.1610
12131TIP3   OH257807   5.800   0.963   5.012  0.3832 -0.3601 -0.5127
12131TIP3    H157808   5.711   0.938   5.036  0.7767 -0.2529  1.2544
12131TIP3    H257809   5.797   1.059   5.002  0.0164 -0.4994 -1.9121
12132TIP3   OH257810   6.494   4.211   4.418  0.3503  0.8870  0.5284
12132TIP3    H157811   6.526   4.160   4.345  1.8216  2.3339  0.0932
12132TIP3    H257812   6.439   4.279   4.379 -2.2534 -0.7006  1.1577
12133TIP3   OH257813   4.176   5.534  15.021 -0.5878  0.3553  0.0772
12133TIP3    H157814   4.209   5.624  15.009  1.4401 -0.1218  1.5240
12133TIP3    H257815   4.147   5.531  15.112  0.7092 -0.7907  0.4976
12134TIP3   OH257816   1.594   1.713  11.835  0.7467  0.2946  0.0614
12134TIP3    H157817   1.536   1.750  11.901  1.4465  0.6671  0.4870
12134TIP3    H257818   1.599   1.780  11.767  1.5375  0.7470  0.5480
12135TIP3   OH257819   0.052   6.523   4.546 -0.7877 -0.7884 -0.2394
12135TIP3    H157820  -0.036   6.528   4.509 -1.0395  0.8593  0.4789
12135TIP3    H257821   0.107   6.567   4.481 -0.1797 -3.1080 -1.4012
12136TIP3   OH257822   5.530   4.629  14.753 -0.3086  0.0772 -0.1580
12136TIP3    H157823   5.534   4.721  14.777 -1.4958  0.5289 -1.5934
12136TIP3    H257824   5.622   4.604  14.741  0.0050  1.1510 -0.0942
12137TIP3   OH257825   4.055   5.158   3.351 -0.1182 -0.5263 -0.3870
12137TIP3    H157826   4.103   5.084   3.313  1.4758  0.7387 -0.9530
12137TIP3    H257827   3.964   5.144   3.324  0.6683 -0.5611 -3.3635
12138TIP3   OH257828   0.772   6.181   1.665  0.3730  0.1692  0.1268
12138TIP3    H157829   0.797   6.190   1.573  1.6631  1.8847  0.6027
12138TIP3    H257830   0.831   6.114   1.700 -0.5029 -0.9101 -0.3811
12139TIP3   OH257831   5.642   0.309   5.265  0.1628  0.2987  0.0950
12139TIP3    H157832   5.686   0.304   5.350 -0.4798 -0.8728  0.3814
12139TIP3    H257833   5.709   0.341   5.205  0.3544  2.1596  1.2070
12140TIP3   OH257834   2.877   5.871   6.647  0.4360 -0.1455  0.1342
12140TIP3    H157835   2.953   5.923   6.623 -0.2733  0.9371  0.1719
12140TIP3    H257836   2.911   5.803   6.705  1.3365  0.4602  0.3286
12141TIP3   OH257837   5.949   6.533   5.906 -0.5426  0.5988  0.2334
12141TIP3    H157838   5.860   6.499   5.896 -0.7413  1.2472 -0.2794
12141TIP3    H257839   6.006   6.458   5.888 -0.9705  0.5151 -0.8137
12142TIP3   OH257840   4.217   5.705  16.076 -0.7340  0.1236 -0.3539
12142TIP3    H157841   4.260   5.688  15.992  0.4882  0.9111  0.0836
12142TIP3    H257842   4.261   5.646  16.138  0.2722  1.4435  0.2421
12143TIP3   OH257843   0.258   5.476   0.181 -0.1867  0.4428  0.4230
12143TIP3    H157844   0.335   5.451   0.231 -0.1974  0.0132  0.2327
12143TIP3    H257845   0.246   5.405   0.118 -1.0889  0.2049  0.8448
12144TIP3   OH257846   1.816   6.152   2.889 -0.3625 -0.0840 -0.0829
12144TIP3    H157847   1.781   6.171   2.977 -0.3485 -2.8441  0.6103
12144TIP3    H257848   1.761   6.204   2.830 -1.3734  0.6716  1.4500
12145TIP3   OH257849   6.431   0.014  14.827 -0.0831 -0.0764 -0.2819
12145TIP3    H157850   6.488   0.079  14.786 -0.9110 -0.1005 -1.5263
12145TIP3    H257851   6.407   0.053  14.911  2.0716 -0.2597  0.4776
12146TIP3   OH257852   1.962   2.463  11.770  0.2505 -0.4179  0.0287
12146TIP3    H157853   1.870   2.492  11.773  0.2001 -0.4177 -0.9221
12146TIP3    H257854   1.969   2.396  11.838 -0.4772 -0.4677  0.0672
12147TIP3   OH257855   5.851   1.243   0.340 -0.2717  0.4536 -0.4916
12147TIP3    H157856   5.859   1.151   0.315 -0.1275  0.2675  0.2224
12147TIP3    H257857   5.805   1.241   0.424  2.7675  0.8062  1.3011
12148TIP3   OH257858   4.275   1.090  10.905 -0.2149  0.4910  0.0997
12148TIP3    H157859   4.196   1.062  10.951  0.8203 -2.2581  0.4237
12148TIP3    H257860   4.248   1.166  10.854 -3.1851 -0.5518 -0.0967
12149TIP3   OH257861   3.135   4.589   3.390 -0.2035  0.1228  0.5265
12149TIP3    H157862   3.220   4.554   3.415  0.6084  1.8819  0.3450
12149TIP3    H257863   3.105   4.638   3.467 -0.1800  1.0559 -0.0481
12150TIP3   OH257864   3.140   0.336  13.525 -0.1815  0.4266 -0.3482
12150TIP3    H157865   3.215   0.282  13.499 -1.7764 -1.1775 -1.8705
12150TIP3    H257866   3.154   0.419  13.479  0.3529 -0.0870 -1.1432
12151TIP3   OH257867   4.272   6.039  14.181 -0.3304  0.9809 -0.4238
12151TIP3    H157868   4.347   6.009  14.130 -0.4455 -1.2674  0.5993
12151TIP3    H257869   4.202   5.978  14.160 -1.1671  1.6067  0.4306
12152TIP3   OH257870   2.377   2.733   6.073 -0.0847  0.5665 -0.4770
12152TIP3    H157871   2.421   2.779   6.145  0.5994 -0.3083 -0.3247
12152TIP3    H257872   2.333   2.803   6.024 -1.2637  1.1071  1.2458
12153TIP3   OH257873   1.687   5.552  15.928 -0.1874  0.1467 -0.3775
12153TIP3    H157874   1.681   5.535  15.834 -0.4817 -2.3659  0.0238
12153TIP3    H257875   1.598   5.576  15.954  0.3372  3.1862 -1.0461
12154TIP3   OH257876   5.287   5.291   2.764  0.3106  0.0659  0.0296
12154TIP3    H157877   5.366   5.330   2.727  0.1271  0.5873  0.1798
12154TIP3    H257878   5.258   5.228   2.698  1.0804 -0.4328  0.1595
12155TIP3   OH257879   5.708   5.118   2.374 -0.2161 -0.2844 -0.3503
12155TIP3    H157880   5.745   5.196   2.333  1.0486 -0.5832  0.1580
12155TIP3    H257881   5.784   5.068   2.403 -1.0124 -1.4980 -0.2677
12156TIP3   OH257882   1.270   6.286  15.182 -0.0369 -0.3707  0.1055
12156TIP3    H157883   1.318   6.263  15.102  0.7056  0.1221  0.3984
12156TIP3    H257884   1.202   6.219  15.189  1.7130 -2.1905  0.6464
12157TIP3   OH257885   1.171   3.785   4.323 -0.6381  0.1620  0.5386
12157TIP3    H157886   1.156   3.871   4.285  0.9622 -0.4906 -1.7796
12157TIP3    H257887   1.265   3.783   4.340  0.2788 -2.4870 -3.4585
12158TIP3   OH257888   4.750   4.285  16.154  0.2527  0.1164  0.1069
12158TIP3    H157889   4.816   4.347  16.185  0.1055  0.6031 -0.5391
12158TIP3    H257890   4.708   4.252  16.234 -0.7953  2.0655  0.4032
12159TIP3   OH257891   3.888   3.901  11.958  0.0484  0.6110 -0.0203
12159TIP3    H157892   3.805   3.882  12.003  0.2146  1.0491  0.4894
12159TIP3    H257893   3.914   3.818  11.918  0.5785 -0.1624  1.8236
12160TIP3   OH257894   4.272   0.919  12.261 -0.0947  0.5133 -0.2085
12160TIP3    H157895   4.250   0.883  12.347 -0.3794 -0.5786 -0.7264
12160TIP3    H257896   4.262   1.014  12.271 -1.3388  0.3125  0.6187
12161TIP3   OH257897   4.445   3.807   3.061  0.2728 -0.4018 -0.0716
12161TIP3    H157898   4.355   3.839   3.073 -0.0286 -1.6289  1.0926
12161TIP3    H257899   4.447   3.775   2.971 -0.7419 -1.1977  0.1745
12162TIP3   OH257900   5.075   2.860  16.412 -0.0862  0.1879 -0.2826
12162TIP3    H157901   5.125   2.782  16.436  0.3553  0.3779 -0.5796
12162TIP3    H257902   5.045   2.843  16.323 -0.3041  0.2006 -0.2121
12163TIP3   OH257903   0.755   6.794  12.664  0.2053  0.0433  0.5744
12163TIP3    H157904   0.787   6.738  12.735  0.1531 -0.1836  0.4225
12163TIP3    H257905   0.733   6.877  12.706 -1.1592 -0.5457  1.0583
12164TIP3   OH257906   1.628   2.997  11.875  0.1781 -0.8797  0.1621
12164TIP3    H157907   1.633   2.995  11.970  0.4778 -1.3418  0.1437
12164TIP3    H257908   1.627   2.904  11.849  1.8151 -0.8004 -0.3426
12165TIP3   OH257909   0.879   1.621  15.498  0.1026  0.5635 -0.1042
12165TIP3    H157910   0.947   1.625  15.431  1.1498  1.2437  0.9824
12165TIP3    H257911   0.857   1.528  15.504  2.0496  0.1046  0.6226
12166TIP3   OH257912   6.664   1.810  11.370  0.4709  0.2430 -0.3521
12166TIP3    H157913   6.641   1.769  11.453  1.5340 -1.7805 -0.9716
12166TIP3    H257914   6.683   1.901  11.391 -0.7333  0.1459  1.3382
12167TIP3   OH257915   6.698   0.157   2.884  0.3897 -0.1649  0.2427
12167TIP3    H157916   6.728   0.248   2.889 -0.0163 -0.0328  0.3067
12167TIP3    H257917   6.755   0.109   2.944 -0.0117  0.2155  0.9382
12168TIP3   OH257918   6.381   4.778  10.867 -0.1095 -0.0420 -0.0442
12168TIP3    H157919   6.436   4.701  10.859 -0.1010 -0.2671  1.8068
12168TIP3    H257920   6.313   4.766  10.800  0.2536 -1.3205 -0.2111
12169TIP3   OH257921   5.969   2.127  13.297  0.1252  0.3904  0.7836
12169TIP3    H157922   5.952   2.188  13.225  0.2022  0.7893  1.0939
12169TIP3    H257923   6.059   2.145  13.323 -0.0811  0.6471  1.3434
12170TIP3   OH257924   2.653   4.127   0.856 -0.0140  0.7525  0.0039
12170TIP3    H157925   2.725   4.174   0.898 -0.5208  1.6357 -0.1112
12170TIP3    H257926   2.577   4.184   0.866 -0.4437  0.3582 -0.9233
12171TIP3   OH257927   3.091   5.768   5.675  0.4571  0.4457 -0.0752
12171TIP3    H157928   3.133   5.726   5.749  1.3527 -0.4249 -1.0452
12171TIP3    H257929   3.148   5.749   5.600  0.0168  1.9917 -0.8497
12172TIP3   OH257930   3.325   1.132  12.924 -0.7235  0.2664 -0.4355
12172TIP3    H157931   3.313   1.200  12.859 -0.2487 -1.0731 -1.9825
12172TIP3    H257932   3.419   1.128  12.939 -0.9452  3.1141  3.2801
12173TIP3   OH257933   1.000   0.096   6.341  0.2345 -0.1095  0.0040
12173TIP3    H157934   1.006   0.010   6.299  1.3054 -0.6187  1.1659
12173TIP3    H257935   1.017   0.079   6.434  0.1067  1.3150  0.3072
12174TIP3   OH257936   3.390   3.113   0.801 -0.0874  0.2906 -0.2864
12174TIP3    H157937   3.307   3.067   0.815  0.5684 -0.8391  0.0344
12174TIP3    H257938   3.386   3.188   0.860 -0.1849 -0.7061  1.0185
12175TIP3   OH257939   3.479   1.220  16.306 -0.6331 -0.4927  0.3181
12175TIP3    H157940   3.431   1.303  16.303 -0.3178 -0.2865 -2.9856
12175TIP3    H257941   3.571   1.245  16.293 -0.7554 -1.3287 -3.1620
12176TIP3   OH257942   0.214   4.998   4.525  0.1496  0.9640  0.2380
12176TIP3    H157943   0.271   5.074   4.538 -0.9365  1.7268  0.6629
12176TIP3    H257944   0.140   5.012   4.584 -2.2464  1.7998 -2.6880
12177TIP3   OH257945   4.073   3.496   3.839  0.7738  0.8170 -0.3583
12177TIP3    H157946   4.139   3.543   3.890  0.3283  0.9647  0.0924
12177TIP3    H257947   4.051   3.555   3.768 -0.8748  1.9816  1.0366
12178TIP3   OH257948   0.834   1.316   5.097 -0.0864  0.1105  0.2274
12178TIP3    H157949   0.849   1.249   5.031 -1.6020  0.3224 -0.3697
12178TIP3    H257950   0.793   1.269   5.170 -1.4352  0.4044 -0.3141
12179TIP3   OH257951   0.683   1.227   3.489  0.3609  0.4992  0.6619
12179TIP3    H157952   0.739   1.177   3.431  0.8353  1.3396  0.3785
12179TIP3    H257953   0.639   1.290   3.432 -0.8437 -0.1007  0.8815
12180TIP3   OH257954   4.785   5.885  15.925 -0.3456 -0.2353 -0.5664
12180TIP3    H157955   4.830   5.838  15.995 -1.3777 -1.4213 -0.6588
12180TIP3    H257956   4.761   5.969  15.963 -0.6153 -0.7443  0.4137
12181TIP3   OH257957   6.582   1.997   1.193 -0.1829 -0.0813 -0.1333
12181TIP3    H157958   6.540   2.064   1.247 -2.6618  0.5350 -2.6564
12181TIP3    H257959   6.664   2.038   1.164  2.4212 -1.1930  4.6013
12182TIP3   OH257960   1.744   4.244   5.082  0.0348  0.2240 -0.2340
12182TIP3    H157961   1.703   4.328   5.063  0.5027  0.3821 -0.5662
12182TIP3    H257962   1.670   4.185   5.100 -0.2664  0.8710  0.7437
12183TIP3   OH257963   0.085   4.568  14.473 -0.3883  0.3637 -0.1400
12183TIP3    H157964   0.093   4.481  14.510  0.5600  0.0406 -1.0522
12183TIP3    H257965   0.017   4.559  14.406 -0.4513  0.3849 -0.0790
12184TIP3   OH257966   5.286   5.847  16.672  0.3373 -0.2848  0.2202
12184TIP3    H157967   5.238   5.901  16.735  1.8063 -0.1585  1.2675
12184TIP3    H257968   5.299   5.906  16.597  4.8490  2.2587  2.5798
12185TIP3   OH257969   6.231   0.853   0.914 -0.1854  0.9715  0.1622
12185TIP3    H157970   6.301   0.794   0.883 -0.1943  1.9667 -1.9201
12185TIP3    H257971   6.229   0.923   0.850 -2.9622  1.1142  0.3011
12186TIP3   OH257972   1.347   4.291  10.401 -0.4388 -0.6498 -0.2397
12186TIP3    H157973   1.396   4.354  10.350 -2.8738  0.4403 -1.3535
12186TIP3    H257974   1.357   4.320  10.492 -1.0730  1.0405 -0.6900
12187TIP3   OH257975   5.997   5.314  11.516 -0.3239 -0.5157  0.0874
12187TIP3    H157976   6.054   5.371  11.464 -1.6861 -0.0106 -0.9260
12187TIP3    H257977   5.922   5.369  11.537 -1.8930 -2.0350 -1.2898
12188TIP3   OH257978   1.169   1.152  14.693 -0.9931  0.0187  0.2608
12188TIP3    H157979   1.248   1.098  14.699  1.3084  2.8263 -1.6114
12188TIP3    H257980   1.139   1.142  14.603  0.0402  2.3647 -0.4217
12189TIP3   OH257981   1.122   5.615  14.717  0.5530  0.0461 -0.7422
12189TIP3    H157982   1.069   5.682  14.760  0.1123 -0.6100 -0.2489
12189TIP3    H257983   1.060   5.567  14.661 -0.1099 -2.5897  1.9670
12190TIP3   OH257984   5.360   2.573   4.632  0.0017  0.2757 -0.0046
12190TIP3    H157985   5.450   2.560   4.662 -0.3173 -0.2289  0.7754
12190TIP3    H257986   5.308   2.515   4.687 -0.7392  0.1073 -0.8519
12191TIP3   OH257987   4.975   5.147  15.311  0.0559  0.6032  0.1987
12191TIP3    H157988   4.969   5.219  15.248 -0.5475 -0.8295 -1.4571
12191TIP3    H257989   5.036   5.085  15.270 -1.0563 -0.7749  0.5780
12192TIP3   OH257990   2.635   4.186  12.922  0.2469  0.4066 -0.0378
12192TIP3    H157991   2.639   4.271  12.965 -0.0352  1.1758 -1.4891
12192TIP3    H257992   2.625   4.206  12.829 -0.0928 -1.2153 -0.3815
12193TIP3   OH257993   0.770   4.196  16.083 -0.3267 -0.5451  0.1375
12193TIP3    H157994   0.835   4.174  16.149 -1.4108  0.9257  1.7915
12193TIP3    H257995   0.803   4.275  16.041 -0.5219 -0.4246  0.2092
12194TIP3   OH257996   5.267   0.168  15.700  0.7436 -0.1191 -0.5497
12194TIP3    H157997   5.278   0.209  15.785 -0.4185  1.0187 -0.9036
12194TIP3    H257998   5.354   0.138  15.676  1.1925  0.0609  0.7792
12195TIP3   OH257999   4.356   5.383   0.988  0.4592  0.3646  0.1716
12195TIP3    H158000   4.361   5.448   1.057 -2.2741  1.2280 -0.3320
12195TIP3    H258001   4.332   5.302   1.033  0.3874  0.5329  0.4390
12196TIP3   OH258002   4.483   0.888   4.481 -0.0715 -0.2857 -0.5923
12196TIP3    H158003   4.514   0.798   4.492  1.7832  0.5538  2.0813
12196TIP3    H258004   4.410   0.896   4.541  2.5106  1.0284  2.6972
12197TIP3   OH258005   6.210   0.192   0.984  0.1524 -0.3971  0.1528
12197TIP3    H158006   6.121   0.160   0.974  0.5015 -1.5391  0.5864
12197TIP3    H258007   6.234   0.172   1.075  0.2191  1.5795  0.6230
12198TIP3   OH258008   0.608   3.567  11.517 -0.1036  0.1970 -0.3627
12198TIP3    H158009   0.650   3.538  11.598 -0.4752 -0.3479 -0.3619
12198TIP3    H258010   0.515   3.569  11.538 -0.6851 -3.5763 -1.7950
12199TIP3   OH258011   4.745   4.709   1.617  0.1173  0.0153 -0.1562
12199TIP3    H158012   4.765   4.686   1.527 -0.2692  0.0756 -0.2576
12199TIP3    H258013   4.702   4.795   1.612  3.0930  1.6656  0.3402
12200TIP3   OH258014   0.031   3.733  14.965  0.1221  0.2198 -0.1315
12200TIP3    H158015   0.011   3.701  15.053 -1.7338 -0.1668 -0.6713
12200TIP3    H258016  -0.042   3.791  14.942 -1.0491 -2.0024 -2.5603
12201TIP3   OH258017   2.189   3.032  16.946  0.0838 -0.6386 -0.6563
12201TIP3    H158018   2.111   3.079  16.917 -0.5292  0.4236  2.3762
12201TIP3    H258019   2.263   3.082  16.910 -0.6035  1.4792  0.6871
12202TIP3   OH258020   5.633   4.650  14.197  0.4977 -0.1379 -0.2990
12202TIP3    H158021   5.570   4.618  14.261  0.5067 -0.6925 -0.5589
12202TIP3    H258022   5.665   4.571  14.153  3.1830 -0.1330  1.4361
12203TIP3   OH258023   0.989   0.123  13.755 -0.1311  0.4612  0.0606
12203TIP3    H158024   0.910   0.088  13.797  1.7436 -1.0190  2.6330
12203TIP3    H258025   1.037   0.046  13.725  2.2966  0.8979  2.4216
12204TIP3   OH258026   3.159   1.855   1.948  0.0953 -0.1001  0.1963
12204TIP3    H158027   3.110   1.776   1.928 -1.2791  0.6198  0.5963
12204TIP3    H258028   3.109   1.926   1.908 -0.0081  0.8210  1.8365
12205TIP3   OH258029   2.228   0.693  13.051  0.3564  0.2301 -0.4533
12205TIP3    H158030   2.257   0.744  12.975 -0.5028  0.7925 -0.4251
12205TIP3    H258031   2.290   0.715  13.120  1.4173 -0.6323 -1.0937
12206TIP3   OH258032   4.015   1.473   3.107 -0.0441 -0.1912  0.1331
12206TIP3    H158033   4.025   1.563   3.139 -2.0049  0.1100  0.0510
12206TIP3    H258034   3.933   1.443   3.146 -0.1959 -1.4032 -1.0468
12207TIP3   OH258035   2.588   3.857   1.047 -0.2191  0.3202  0.0833
12207TIP3    H158036   2.560   3.948   1.033 -2.1412 -0.1182  0.7961
12207TIP3    H258037   2.616   3.855   1.138  0.8115  0.4175 -0.2236
12208TIP3   OH258038   4.513   3.310   4.735  0.3910  0.4617 -0.5032
12208TIP3    H158039   4.420   3.328   4.728  0.3937  1.2254  1.1007
12208TIP3    H258040   4.518   3.219   4.766  0.1759  0.5366 -0.2512
12209TIP3   OH258041   6.760   0.273  12.945  0.4042  0.0687 -0.1058
12209TIP3    H158042   6.707   0.237  13.016 -0.8255  0.9647 -0.5266
12209TIP3    H258043   6.770   0.201  12.883  1.9225 -0.8777  1.1649
12210TIP3   OH258044   1.579   4.773   6.006  0.4016  0.6879 -0.6776
12210TIP3    H158045   1.624   4.839   6.059 -0.3664  0.6208  0.0944
12210TIP3    H258046   1.487   4.800   6.010 -0.2384 -1.4515  1.2505
12211TIP3   OH258047   6.387   0.966  11.318 -0.0175 -0.7836  0.1024
12211TIP3    H158048   6.326   0.975  11.245  0.0393  1.1560  0.2283
12211TIP3    H258049   6.365   1.039  11.376  0.9908 -1.3447  1.2330
12212TIP3   OH258050   0.518   3.591   3.726 -0.2835 -0.3742 -0.2666
12212TIP3    H158051   0.466   3.638   3.661  0.8056 -0.4344 -1.2206
12212TIP3    H258052   0.588   3.550   3.675  1.2773  0.5160  1.0608
12213TIP3   OH258053   4.660   6.136  12.262 -0.4444  0.3707 -0.1983
12213TIP3    H158054   4.654   6.220  12.307 -0.6383  0.6946 -0.8214
12213TIP3    H258055   4.748   6.136  12.222 -0.5387  0.3894 -0.4094
12214TIP3   OH258056   0.568   2.903   5.218 -0.2665  0.1149  0.8030
12214TIP3    H158057   0.641   2.959   5.243 -0.5426  1.3315 -0.9329
12214TIP3    H258058   0.490   2.955   5.236 -0.4772  1.6626 -3.4424
12215TIP3   OH258059   5.185   6.652   1.126  0.3738 -0.0048  0.2536
12215TIP3    H158060   5.261   6.630   1.181 -0.4333 -0.6315  1.1537
12215TIP3    H258061   5.122   6.691   1.187  0.0857  0.8063 -0.5438
12216TIP3   OH258062   3.131   3.900   6.208  0.9518  0.1274 -0.1396
12216TIP3    H158063   3.204   3.871   6.263 -0.2141 -0.2933  1.2480
12216TIP3    H258064   3.106   3.823   6.157  0.3754 -0.2387  0.6735
12217TIP3   OH258065   5.961   3.469   1.577  0.1611  0.3157 -0.7053
12217TIP3    H158066   6.038   3.468   1.521  0.8306  1.1985  0.1630
12217TIP3    H258067   5.899   3.410   1.534  1.6288 -1.1048 -0.9477
12218TIP3   OH258068   0.423   2.160  16.568  0.0057  0.0527 -0.0990
12218TIP3    H158069   0.503   2.206  16.595  0.4180 -1.8775  2.2579
12218TIP3    H258070   0.453   2.096  16.504  0.6105 -1.3006  1.4520
12219TIP3   OH258071   5.944   4.881  10.652  0.2240 -0.3889 -0.3303
12219TIP3    H158072   5.865   4.833  10.627 -1.0130  1.7146 -0.6854
12219TIP3    H258073   5.917   4.934  10.727  2.3119 -2.1907  1.8792
12220TIP3   OH258074   1.536   6.137  15.508  0.0372 -0.2587  0.1555
12220TIP3    H158075   1.553   6.137  15.603 -1.8318 -0.8757  0.5327
12220TIP3    H258076   1.571   6.054  15.478  0.1692 -0.2922  0.3962
12221TIP3   OH258077   4.125   3.495   0.051  0.1137  0.1461 -0.4620
12221TIP3    H158078   4.040   3.530   0.025 -0.4282 -0.5619  0.2692
12221TIP3    H258079   4.107   3.447   0.132  0.5310 -2.8624 -1.9972
12222TIP3   OH258080   2.676   0.162  11.495  0.7412 -1.0551  0.2088
12222TIP3    H158081   2.656   0.083  11.445 -2.3241  0.0877 -0.5882
12222TIP3    H258082   2.613   0.161  11.568  1.4836  0.0456  0.8883
12223TIP3   OH258083   1.591   5.236   3.014 -0.0039  0.2693 -0.5616
12223TIP3    H158084   1.594   5.277   2.928 -0.3304 -0.3016 -0.8558
12223TIP3    H258085   1.598   5.308   3.076  1.1189  0.6141 -1.0643
12224TIP3   OH258086   3.530   6.225  15.359 -0.7477 -0.3191  0.1360
12224TIP3    H158087   3.540   6.311  15.321  0.3519 -1.1871 -1.6613
12224TIP3    H258088   3.619   6.198  15.382 -0.7702 -1.7684 -1.2527
12225TIP3   OH258089   2.216   4.288   1.568  0.0889 -0.5368  0.0169
12225TIP3    H158090   2.234   4.336   1.487  0.8895 -0.3831  0.2779
12225TIP3    H258091   2.202   4.356   1.634 -3.7891 -0.5440 -0.5658
12226TIP3   OH258092   1.715   2.789  13.137 -0.8276 -0.1328 -0.2368
12226TIP3    H158093   1.780   2.825  13.077 -0.5638 -0.2533 -0.0273
12226TIP3    H258094   1.690   2.863  13.192  0.8926 -0.5794  1.2467
12227TIP3   OH258095   2.438   5.725  13.071  0.8561 -0.1760 -0.6977
12227TIP3    H158096   2.456   5.683  12.987  2.0841 -2.1000  0.4502
12227TIP3    H258097   2.517   5.775  13.090  0.9313 -0.4387 -0.3050
12228TIP3   OH258098   0.569   0.377   2.755  0.2083 -0.8176 -0.2267
12228TIP3    H158099   0.607   0.290   2.762  2.0196 -0.0958 -0.4856
12228TIP3    H258100   0.645   0.436   2.748 -0.7769  1.0470  2.6169
12229TIP3   OH258101   0.821   0.133   0.602 -0.0882  0.4550 -0.8159
12229TIP3    H158102   0.900   0.084   0.629 -0.2639  0.0417 -1.0403
12229TIP3    H258103   0.768   0.068   0.556 -0.6079  0.7107 -0.5792
12230TIP3   OH258104   5.616   5.545   3.682 -0.3665  0.1736 -0.1390
12230TIP3    H158105   5.617   5.476   3.748  0.0695 -1.5741 -1.8809
12230TIP3    H258106   5.653   5.622   3.726  0.9295 -1.2260  1.3214
12231TIP3   OH258107   5.587   4.894   3.429 -0.7544  0.2875  0.4007
12231TIP3    H158108   5.500   4.932   3.440 -1.9103 -2.3738  1.2743
12231TIP3    H258109   5.574   4.820   3.371  0.9200 -0.2191  0.6128
12232TIP3   OH258110   3.525   6.010  13.407  0.6839  0.3953 -0.3448
12232TIP3    H158111   3.532   6.077  13.475 -2.8226 -0.8003  1.4384
12232TIP3    H258112   3.569   5.933  13.445  2.7549  0.9555 -1.4670
12233TIP3   OH258113   3.719   3.935   2.832 -0.5037  0.1453 -0.4250
12233TIP3    H158114   3.745   3.920   2.741  0.4234 -0.5131 -0.0718
12233TIP3    H258115   3.788   3.991   2.867 -1.3182  1.1183 -0.3518
12234TIP3   OH258116   0.103   0.984   3.661  0.2893  0.0285 -0.1439
12234TIP3    H158117   0.019   0.959   3.624  0.2561  2.3754 -1.9126
12234TIP3    H258118   0.080   1.035   3.739 -0.0503  1.6371 -1.2492
12235TIP3   OH258119   6.457   0.540   5.912 -0.2385 -0.7311  0.1756
12235TIP3    H158120   6.466   0.456   5.866 -0.9970 -0.9672  0.4404
12235TIP3    H258121   6.362   0.549   5.926 -0.4757  1.3228 -2.0247
12236TIP3   OH258122   6.343   0.215   0.106  0.1754  0.0845  0.2566
12236TIP3    H158123   6.252   0.237   0.090  0.4257  1.0190  0.0859
12236TIP3    H258124   6.358   0.135   0.056  0.4775  1.9616 -2.9165
12237TIP3   OH258125   4.703   0.061   0.416  0.5988  0.4430  0.0369
12237TIP3    H158126   4.643  -0.013   0.403  0.5979  0.4971 -0.2838
12237TIP3    H258127   4.751   0.068   0.333  0.2510  1.1090 -0.1173
12238TIP3   OH258128   2.509   1.505   0.724 -0.3200  0.3319 -0.1488
12238TIP3    H158129   2.597   1.482   0.754  0.7456  0.9076 -2.5404
12238TIP3    H258130   2.524   1.567   0.653 -2.6589  0.0400 -0.9814
12239TIP3   OH258131   4.443   1.043   4.907  0.7647  0.5127 -0.4037
12239TIP3    H158132   4.400   1.128   4.900 -1.3357 -0.3758  0.8376
12239TIP3    H258133   4.536   1.064   4.917  0.2264  2.7123  0.6356
12240TIP3   OH258134   4.676   0.462   2.890 -0.1526  0.4826 -0.3115
12240TIP3    H158135   4.656   0.554   2.873 -3.0482 -0.0142 -0.1637
12240TIP3    H258136   4.656   0.417   2.808  1.1345 -0.0723 -0.3486
12241TIP3   OH258137   0.723   4.456   5.599 -0.6529 -0.1029  0.0478
12241TIP3    H158138   0.674   4.385   5.557  0.2756 -1.4767  1.1609
12241TIP3    H258139   0.686   4.461   5.687 -0.4108  0.5046  0.1211
12242TIP3   OH258140   5.295   1.978   0.058  0.1473 -0.1820 -0.2655
12242TIP3    H158141   5.209   2.019   0.052 -0.3282 -1.2946 -1.3220
12242TIP3    H258142   5.288   1.899   0.005  1.7029 -0.5015 -0.0390
12243TIP3   OH258143   2.803   4.127  13.536  0.2360  0.2229  0.4499
12243TIP3    H158144   2.876   4.079  13.499  0.7200  2.1437 -1.2724
12243TIP3    H258145   2.728   4.104  13.481 -0.1662 -0.6035  1.3068
12244TIP3   OH258146   6.500   6.170   4.795 -0.5312 -0.2611 -0.2020
12244TIP3    H158147   6.554   6.092   4.779  0.0884 -0.2951  1.8302
12244TIP3    H258148   6.560   6.234   4.834 -1.4072  0.6306 -0.2801
12245TIP3   OH258149   0.425   2.832  11.648  0.3488 -0.6873 -0.8643
12245TIP3    H158150   0.465   2.879  11.575 -0.2574  0.0723 -0.7200
12245TIP3    H258151   0.499   2.793  11.694  1.0056  1.0186 -0.3698
12246TIP3   OH258152   4.146   0.454  11.606  0.4406 -0.1767  0.6079
12246TIP3    H158153   4.069   0.479  11.657 -1.0912  1.1123 -2.1078
12246TIP3    H258154   4.134   0.361  11.588  0.5920 -0.4519  1.8920
12247TIP3   OH258155   3.333   5.952  14.445 -1.1174 -0.9330  0.1108
12247TIP3    H158156   3.388   6.015  14.398 -0.1577 -2.8892 -1.5151
12247TIP3    H258157   3.244   5.971  14.415 -0.8450 -0.4122 -0.3920
12248TIP3   OH258158   2.599   1.359   5.552  0.0252 -0.5908  0.2950
12248TIP3    H158159   2.663   1.310   5.501  2.6820  1.2904  1.6120
12248TIP3    H258160   2.599   1.315   5.638 -0.2921 -0.4508  0.3665
12249TIP3   OH258161   5.537   3.910   3.648 -0.2770  0.4430  0.0322
12249TIP3    H158162   5.551   3.962   3.728 -1.5303  1.8956 -0.6310
12249TIP3    H258163   5.564   3.968   3.577  2.2578 -1.3686 -0.6028
12250TIP3   OH258164   3.819   5.938   4.719 -0.1489  0.0569 -0.1143
12250TIP3    H158165   3.863   5.974   4.642 -2.8637  0.5073 -1.5816
12250TIP3    H258166   3.822   6.008   4.784 -1.4435  1.3219 -1.3479
12251TIP3   OH258167   6.179   3.057   3.658  0.4030 -0.2703  0.7966
12251TIP3    H158168   6.257   3.002   3.661  1.1375  0.7563  1.0415
12251TIP3    H258169   6.135   3.043   3.741  0.9348 -0.0149  1.1276
12252TIP3   OH258170   1.688   6.429  12.781 -0.2006 -0.2663 -0.3011
12252TIP3    H158171   1.698   6.520  12.809  2.9273 -0.5723 -0.1285
12252TIP3    H258172   1.628   6.391  12.845 -0.9331  1.4286  0.0922
12253TIP3   OH258173   2.437   4.499  12.530  0.0772  0.3676 -0.4267
12253TIP3    H158174   2.518   4.521  12.485  0.1539 -0.2442 -0.6043
12253TIP3    H258175   2.382   4.460  12.462  0.9715 -2.5296  0.3517
12254TIP3   OH258176   4.316   5.219  13.560  0.1679  0.0299  0.1531
12254TIP3    H158177   4.234   5.248  13.599  0.3410  0.3174  0.2995
12254TIP3    H258178   4.383   5.238  13.625  0.2364 -1.0765  0.4331
12255TIP3   OH258179   5.155   4.683  14.013 -0.4780  0.3540  0.2453
12255TIP3    H158180   5.090   4.699  13.945  0.1763  1.3285 -0.1622
12255TIP3    H258181   5.108   4.702  14.095 -1.1130 -0.3389  0.0575
12256TIP3   OH258182   5.173   1.180  16.457  0.0847  0.5782  1.0515
12256TIP3    H158183   5.083   1.181  16.488  0.2061  0.9420  1.3905
12256TIP3    H258184   5.227   1.187  16.536  0.4412 -0.7344  0.9650
12257TIP3   OH258185   5.820   0.578   4.259  0.1618 -0.2241 -0.5418
12257TIP3    H158186   5.798   0.655   4.206 -0.6707  1.6278  2.3099
12257TIP3    H258187   5.812   0.607   4.349  2.3793 -2.9767  0.7085
12258TIP3   OH258188   4.669   6.771  13.983 -0.3487 -0.1324 -0.3340
12258TIP3    H158189   4.608   6.776  14.057  1.4870 -0.0372  1.2516
12258TIP3    H258190   4.651   6.686  13.943 -2.1820  0.3128 -0.5468
12259TIP3   OH258191   3.146   5.612  10.492 -0.3794 -0.0604  0.2571
12259TIP3    H158192   3.057   5.631  10.520 -0.9617 -1.2927 -0.6216
12259TIP3    H258193   3.194   5.694  10.504 -1.9967  1.0680 -0.6635
12260TIP3   OH258194   5.619   1.758  13.723  0.0573 -0.3161  0.4463
12260TIP3    H158195   5.676   1.684  13.742 -0.9996 -1.6703 -1.3439
12260TIP3    H258196   5.536   1.719  13.696 -0.0806  1.4174 -2.0340
12261TIP3   OH258197   4.289   1.931   3.708 -0.1311 -0.0234 -0.4234
12261TIP3    H158198   4.380   1.902   3.716  0.3430  0.7219 -2.4810
12261TIP3    H258199   4.276   1.990   3.782  0.7575 -0.8391  0.4146
12262TIP3   OH258200   4.121   6.753   4.494 -0.1326 -0.0411  0.1281
12262TIP3    H158201   4.115   6.840   4.454  3.2648  0.3536  0.2096
12262TIP3    H258202   4.196   6.712   4.451 -1.2586 -2.7402  0.5535
12263TIP3   OH258203   3.871   5.247   0.522 -0.1950 -0.4559  0.2552
12263TIP3    H158204   3.887   5.152   0.518  0.9936 -0.4625  2.9276
12263TIP3    H258205   3.957   5.284   0.540 -1.1558  0.7407  2.8736
12264TIP3   OH258206   0.784   6.411  12.094 -0.3729 -0.0836 -0.2111
12264TIP3    H158207   0.807   6.320  12.075 -0.9127  0.0648 -1.7641
12264TIP3    H258208   0.822   6.461  12.021 -0.9370  0.8075  0.0851
12265TIP3   OH258209   2.478   2.661  13.722 -0.1339 -0.5904 -0.9284
12265TIP3    H158210   2.402   2.691  13.673 -0.6800 -0.9021 -0.2874
12265TIP3    H258211   2.457   2.571  13.747  0.1218 -0.4406 -0.1252
12266TIP3   OH258212   1.874   5.032   0.719  0.2752 -0.2164  0.3443
12266TIP3    H158213   1.890   5.009   0.811  0.8307 -0.5413  0.1709
12266TIP3    H258214   1.893   5.126   0.714 -2.3516  0.4365  1.1330
12267TIP3   OH258215   4.321   2.716  15.100 -0.2747  0.3332 -0.3245
12267TIP3    H158216   4.365   2.726  15.016 -0.8283  1.5191 -0.4869
12267TIP3    H258217   4.233   2.750  15.086 -1.0459 -1.3338  0.1994
12268TIP3   OH258218   1.839   4.259   2.455  0.5533 -0.2363  0.0554
12268TIP3    H158219   1.862   4.323   2.522  1.1728 -2.0932  1.7215
12268TIP3    H258220   1.744   4.252   2.460  0.6293 -0.6876  1.0892
12269TIP3   OH258221   2.279   2.382  16.958 -0.0813  0.4272  0.5823
12269TIP3    H158222   2.284   2.316  17.027  0.4831  0.5820  0.6906
12269TIP3    H258223   2.367   2.387  16.922  0.1018  1.6966  1.1181
12270TIP3   OH258224   2.231   4.237  16.695  0.6019 -0.2501  0.1830
12270TIP3    H158225   2.152   4.290  16.698 -1.0443 -2.5804  0.9446
12270TIP3    H258226   2.285   4.270  16.767 -0.2647  0.5156  0.5015
12271TIP3   OH258227   4.603   4.524   4.394  0.0431 -0.0730  0.3489
12271TIP3    H158228   4.550   4.604   4.395  1.2477  0.8297 -1.4888
12271TIP3    H258229   4.548   4.459   4.351 -0.2456  0.3129  0.1317
12272TIP3   OH258230   6.057   5.096   0.872 -0.2290  0.4940 -0.0289
12272TIP3    H158231   5.975   5.085   0.824 -1.4307  0.7209  1.8577
12272TIP3    H258232   6.045   5.177   0.922  0.8098  0.0844  0.9322
12273TIP3   OH258233   6.048   6.047   2.638  0.0931 -0.8235 -0.0207
12273TIP3    H158234   6.089   6.023   2.721 -0.3570  0.8253  0.7217
12273TIP3    H258235   6.113   6.024   2.572  1.2248 -0.4743  0.9317
12274TIP3   OH258236   3.299   2.582  17.097 -0.3646 -0.9025 -0.2257
12274TIP3    H158237   3.292   2.654  17.159  0.9650  0.2944 -1.4128
12274TIP3    H258238   3.300   2.503  17.152 -0.0072  0.0710  1.2117
12275TIP3   OH258239   1.299   5.985  15.569  0.3796  0.3905  0.5035
12275TIP3    H158240   1.347   6.067  15.584 -2.0452  2.2130 -0.9615
12275TIP3    H258241   1.329   5.955  15.483 -0.0267  0.7919  0.2096
12276TIP3   OH258242   6.444   3.794   0.644 -0.5974 -0.2307 -0.0628
12276TIP3    H158243   6.458   3.796   0.550 -0.3240  1.0240 -0.0074
12276TIP3    H258244   6.356   3.759   0.655 -1.3843  1.4261 -0.8845
12277TIP3   OH258245   5.834   3.279   1.407 -0.0497  0.0127  0.7325
12277TIP3    H158246   5.869   3.190   1.418 -0.6731 -0.4834 -1.0553
12277TIP3    H258247   5.874   3.311   1.327 -2.3309  0.0533 -0.4630
12278TIP3   OH258248   2.898   0.103   2.898  0.3880  0.1006 -0.1835
12278TIP3    H158249   2.825   0.114   2.959  2.5556  1.6659  2.3265
12278TIP3    H258250   2.892   0.178   2.839  0.0153  0.2735  0.0713
12279TIP3   OH258251   6.409   4.138   1.359 -0.5144  0.1565 -0.0908
12279TIP3    H158252   6.347   4.109   1.426 -0.4670 -0.7318 -0.4171
12279TIP3    H258253   6.426   4.230   1.380 -1.5032  0.2527  0.3334
12280TIP3   OH258254   5.700   6.805  15.477  0.2494  0.6422  0.5518
12280TIP3    H158255   5.662   6.783  15.392  0.2046  0.8095  0.5282
12280TIP3    H258256   5.626   6.798  15.538  0.6095 -1.1066  0.8578
12281TIP3   OH258257   4.886   3.725   5.434  0.5206  0.7666  0.8338
12281TIP3    H158258   4.909   3.646   5.387  0.3968  1.5716 -0.6347
12281TIP3    H258259   4.830   3.696   5.506  0.8292 -0.4963  0.5748
12282TIP3   OH258260   1.918   5.424  16.765 -0.4358 -0.5962 -0.0941
12282TIP3    H158261   1.955   5.496  16.815 -1.2933 -0.5748  0.5206
12282TIP3    H258262   1.947   5.440  16.675 -1.0264  0.7835 -0.0626
12283TIP3   OH258263   3.965   0.880   0.157 -0.1982 -0.4057  0.2984
12283TIP3    H158264   3.982   0.971   0.179  1.2973 -0.5679 -0.0912
12283TIP3    H258265   4.017   0.830   0.220 -1.8074 -1.0544  1.1947
12284TIP3   OH258266   4.648   1.127  16.478 -0.1592  0.4155 -0.0958
12284TIP3    H158267   4.578   1.111  16.541 -0.0232 -1.5259 -0.3951
12284TIP3    H258268   4.643   1.054  16.417  2.4943 -0.1479  0.2318
12285TIP3   OH258269   4.634   3.536   4.286 -0.3620 -0.3649 -0.0470
12285TIP3    H158270   4.729   3.544   4.282 -0.4391  0.9247  0.5312
12285TIP3    H258271   4.612   3.485   4.208  0.5538  1.7448 -1.7658
12286TIP3   OH258272   2.374   0.029   4.124  0.2595 -0.0328 -0.2045
12286TIP3    H158273   2.453   0.006   4.075 -0.2074 -0.8202 -0.5933
12286TIP3    H258274   2.335   0.100   4.072  0.8487  0.5528  0.1378
12287TIP3   OH258275   0.083   2.639   3.941  0.0703  0.3786  0.4145
12287TIP3    H158276   0.050   2.580   4.010 -3.3784  1.9291  0.3114
12287TIP3    H258277   0.129   2.581   3.881  1.6314 -1.3177  3.0266
12288TIP3   OH258278   4.102   6.429   0.745  0.0100  0.4553  0.3751
12288TIP3    H158279   4.008   6.450   0.746  0.3621  2.2035  1.7558
12288TIP3    H258280   4.144   6.510   0.717  1.1901  0.2325  1.4407
12289TIP3   OH258281   1.827   4.555  12.631 -0.7961  0.1898  0.2140
12289TIP3    H158282   1.855   4.569  12.722  0.0694  1.4393 -0.2274
12289TIP3    H258283   1.828   4.460  12.621 -1.2509  0.0083  1.6125
12290TIP3   OH258284   0.090   4.623  14.162  1.2702  0.1157  0.4894
12290TIP3    H158285   0.174   4.633  14.207  3.1900 -1.5057 -2.4402
12290TIP3    H258286   0.066   4.711  14.135  2.4844  0.4928  0.5947
12291TIP3   OH258287   5.668   3.683  16.331  0.2142 -0.3256 -0.7349
12291TIP3    H158288   5.625   3.598  16.321  1.8916 -1.3285  0.1124
12291TIP3    H258289   5.717   3.695  16.250  0.4203 -0.4371 -0.6275
12292TIP3   OH258290   3.813   6.256  16.541  0.4204 -0.8680 -0.0247
12292TIP3    H158291   3.896   6.254  16.493  0.6674 -1.4218  0.4151
12292TIP3    H258292   3.785   6.347  16.536 -1.0917 -1.3536 -3.8058
12293TIP3   OH258293   2.962   2.805  13.535 -0.5533  0.2720 -0.5161
12293TIP3    H158294   3.006   2.807  13.449 -0.6197 -0.2851 -0.5658
12293TIP3    H258295   3.007   2.735  13.583 -1.4342 -0.3589 -0.5925
12294TIP3   OH258296   2.724   6.122  15.755  0.4767  0.0458  0.5545
12294TIP3    H158297   2.660   6.061  15.791 -0.9354  0.2771 -1.3865
12294TIP3    H258298   2.745   6.181  15.828 -1.4610 -0.1046  1.2905
12295TIP3   OH258299   4.730   1.829   4.163  0.8612 -0.4851  0.2894
12295TIP3    H158300   4.819   1.862   4.156  0.7647 -0.2418  0.1816
12295TIP3    H258301   4.675   1.908   4.164  0.7038 -0.5968  1.2935
12296TIP3   OH258302   5.841   6.111  12.264 -0.1281 -0.0009 -0.0593
12296TIP3    H158303   5.752   6.118  12.230  0.3475 -1.7690 -1.8787
12296TIP3    H258304   5.896   6.104  12.185  1.2596 -2.4526  1.0247
12297TIP3   OH258305   4.114   3.873  12.627 -0.6144  0.1480 -0.2808
12297TIP3    H158306   4.163   3.885  12.546  0.3337  1.8579  0.4978
12297TIP3    H258307   4.080   3.961  12.647 -2.1288 -0.5591  0.3759
12298TIP3   OH258308   3.334   0.552  12.176  0.6251  0.0809 -0.4529
12298TIP3    H158309   3.397   0.557  12.105  0.6110 -1.2891 -0.5958
12298TIP3    H258310   3.343   0.463  12.210 -0.8670  0.0151 -0.1483
12299TIP3   OH258311   0.977   5.898   0.901  0.1063  0.2086 -0.1981
12299TIP3    H158312   1.041   5.942   0.958  0.3235 -0.4827  0.1005
12299TIP3    H258313   0.954   5.817   0.948 -2.8679  1.5493  0.9243
12300TIP3   OH258314   2.482   4.894  13.404 -0.2691 -0.6207 -0.3516
12300TIP3    H158315   2.531   4.814  13.386 -1.7048 -1.5781 -0.1585
12300TIP3    H258316   2.393   4.875  13.377 -0.9609  0.3971  1.0750
12301TIP3   OH258317   4.155   0.577  14.858 -0.5062 -0.6369 -0.1464
12301TIP3    H158318   4.082   0.566  14.798 -0.4408 -1.4550 -0.0891
12301TIP3    H258319   4.198   0.658  14.830 -1.4128 -0.1659 -0.1966
12302TIP3   OH258320   0.352   3.055   5.321 -0.0587  0.3026 -0.4358
12302TIP3    H158321   0.258   3.061   5.337  0.0238 -2.0410  1.3811
12302TIP3    H258322   0.392   3.096   5.398  0.3576 -1.6143  0.4208
12303TIP3   OH258323   5.792   3.610  16.632 -0.5359 -0.2096 -0.3632
12303TIP3    H158324   5.849   3.535  16.613  0.8672  0.5762  0.5845
12303TIP3    H258325   5.836   3.685  16.591 -1.1481  0.3324 -0.0425
12304TIP3   OH258326   5.122   1.178  13.238 -0.0812 -0.0286  0.0220
12304TIP3    H158327   5.035   1.139  13.241 -0.2844  0.4023 -0.2151
12304TIP3    H258328   5.155   1.172  13.328 -0.8614  0.9475  0.3881
12305TIP3   OH258329   2.511   4.962  11.025  0.2981  0.0614  0.3951
12305TIP3    H158330   2.514   4.870  10.999  0.0685  0.4530 -1.1205
12305TIP3    H258331   2.450   5.002  10.963  0.5344  1.2801  0.9212
12306TIP3   OH258332   1.548   0.039   2.080 -0.5069 -0.2382  0.2312
12306TIP3    H158333   1.550   0.124   2.124 -0.6554  0.0770 -0.3623
12306TIP3    H258334   1.456   0.028   2.054  0.1262  1.2498 -3.1631
12307TIP3   OH258335   0.639   1.421   2.412  0.6730  0.3554 -0.4660
12307TIP3    H158336   0.628   1.330   2.442  1.7058  0.6152  0.8112
12307TIP3    H258337   0.707   1.416   2.345  0.9685  0.2289 -0.1570
12308TIP3   OH258338   0.950   6.022  10.905 -0.4520 -0.0957 -0.1066
12308TIP3    H158339   1.021   6.067  10.860 -1.5875  0.5952 -1.2765
12308TIP3    H258340   0.923   5.952  10.845 -0.4014 -0.7142  0.5749
12309TIP3   OH258341   6.475   3.861  12.902  0.2615  0.2198 -1.1337
12309TIP3    H158342   6.419   3.853  12.825  2.1360 -0.6053 -2.5110
12309TIP3    H258343   6.491   3.770  12.929  0.6047  0.4504 -0.5389
12310TIP3   OH258344   3.864   1.093  13.456  0.2219  0.0888  0.4906
12310TIP3    H158345   3.882   1.115  13.365  0.8386 -2.3997 -0.0492
12310TIP3    H258346   3.890   1.171  13.505  1.8383  0.7160 -1.2586
12311TIP3   OH258347   2.320   3.535  15.348 -0.0713 -0.3351  0.2214
12311TIP3    H158348   2.321   3.441  15.333  0.7842 -0.5201  1.2966
12311TIP3    H258349   2.398   3.568  15.304 -0.6232 -0.0397 -0.5653
12312TIP3   OH258350   2.597   1.321  14.762  0.1713 -0.0316  0.1939
12312TIP3    H158351   2.585   1.238  14.717  1.5966 -0.3065  0.2727
12312TIP3    H258352   2.538   1.317  14.837  1.2861 -1.6102  1.0308
12313TIP3   OH258353   5.967   1.233   3.373  0.8360  0.1242  0.0259
12313TIP3    H158354   5.881   1.275   3.375 -0.5949 -2.5104 -0.9749
12313TIP3    H258355   5.962   1.167   3.442  1.7543 -0.5566 -0.5393
12314TIP3   OH258356   0.666   2.333   4.721  0.1890  0.0465 -0.4537
12314TIP3    H158357   0.680   2.384   4.641 -1.0898  0.0570 -0.6998
12314TIP3    H258358   0.591   2.375   4.763  0.0479 -0.7383  0.1049
12315TIP3   OH258359   4.363   2.700   2.856  0.3619 -0.5864 -0.0394
12315TIP3    H158360   4.338   2.611   2.880  1.1560 -0.6284  0.6926
12315TIP3    H258361   4.349   2.751   2.936  0.5718 -0.1919 -0.2505
12316TIP3   OH258362   5.624   5.818  13.929 -0.5838 -0.0042 -0.4119
12316TIP3    H158363   5.582   5.778  13.853  0.6097 -0.0126 -1.0762
12316TIP3    H258364   5.576   5.783  14.004 -1.0057 -0.9211 -1.0933
12317TIP3   OH258365   3.894   4.637   4.096 -0.1617  0.2367 -0.8967
12317TIP3    H158366   3.923   4.728   4.084 -0.0472  0.1533 -1.2743
12317TIP3    H258367   3.972   4.585   4.075 -0.1635  0.0595 -0.4562
12318TIP3   OH258368   6.064   3.695  13.366 -0.3648  0.1532  0.1937
12318TIP3    H158369   6.127   3.755  13.404 -0.4063 -0.3195  1.0397
12318TIP3    H258370   6.073   3.615  13.418 -0.6737 -0.3917 -0.5732
12319TIP3   OH258371   2.622   0.330   3.775  0.0280  0.4069  0.2900
12319TIP3    H158372   2.585   0.263   3.832  1.5799 -0.4995  0.2913
12319TIP3    H258373   2.716   0.327   3.792  0.9138 -1.3572 -3.7199
12320TIP3   OH258374   5.698   2.866   2.267 -0.3669  0.0792 -0.4166
12320TIP3    H158375   5.617   2.827   2.235 -0.9895 -0.0582  1.2203
12320TIP3    H258376   5.677   2.895   2.356  1.8111 -1.4913  0.7170
12321TIP3   OH258377   5.028   1.163  13.933  0.2450  0.0071  0.0594
12321TIP3    H158378   4.983   1.221  13.873  0.3098  1.2657  1.1853
12321TIP3    H258379   5.104   1.131  13.883 -0.5375 -0.2049 -1.0176
12322TIP3   OH258380   5.326   1.639   0.429 -0.5426  0.3273 -0.1969
12322TIP3    H158381   5.290   1.608   0.512 -0.5088  0.5207 -0.1097
12322TIP3    H258382   5.365   1.724   0.450 -0.8836  0.5587 -0.4891
12323TIP3   OH258383   6.344   5.087   0.941  0.4753  0.0414 -0.1926
12323TIP3    H158384   6.265   5.138   0.924  0.2570  0.1345  1.0319
12323TIP3    H258385   6.411   5.126   0.885 -0.0806  0.6468 -0.4408
12324TIP3   OH258386   3.420   5.079  16.878  0.6956 -0.7678 -0.0470
12324TIP3    H158387   3.433   5.003  16.821  0.0801 -1.2627  0.4643
12324TIP3    H258388   3.384   5.043  16.959  0.4587  0.0646  0.2289
12325TIP3   OH258389   1.563   4.432   1.435 -0.0003 -0.2297  0.3329
12325TIP3    H158390   1.479   4.398   1.465  0.0432 -0.0475  0.6728
12325TIP3    H258391   1.585   4.379   1.358 -1.3921  1.0388 -0.9971
12326TIP3   OH258392   5.888   1.341  14.684  0.5034 -0.4493  0.6380
12326TIP3    H158393   5.797   1.361  14.703  0.3478 -1.5570  1.1434
12326TIP3    H258394   5.891   1.245  14.676  1.4900 -0.3813 -0.0651
12327TIP3   OH258395   2.992   3.107  10.424  0.0328 -0.1059  0.2879
12327TIP3    H158396   2.918   3.087  10.366  1.9019 -0.9657 -1.9975
12327TIP3    H258397   3.017   3.196  10.400  0.0753 -0.0269  0.6333
12328TIP3   OH258398   1.905   2.426  16.229  0.0674  0.0511  0.4819
12328TIP3    H158399   1.989   2.385  16.255  0.8023  0.1591 -1.5607
12328TIP3    H258400   1.880   2.380  16.149 -2.3693 -0.6222  1.5367
12329TIP3   OH258401   4.699   2.742  13.610  0.2581 -0.1638  0.0070
12329TIP3    H158402   4.639   2.700  13.671 -2.0619  0.9936 -1.3461
12329TIP3    H258403   4.682   2.699  13.526  1.9687 -0.3628 -0.2871
12330TIP3   OH258404   5.823   3.328   4.074  0.1480 -0.0937 -0.3531
12330TIP3    H158405   5.879   3.392   4.032  0.2377  1.2541  1.6630
12330TIP3    H258406   5.736   3.345   4.039  0.7175 -1.3734 -2.5631
12331TIP3   OH258407   0.590   6.704   1.608 -0.1130  0.4110  0.1441
12331TIP3    H158408   0.629   6.649   1.540 -2.4548  0.2014 -1.1500
12331TIP3    H258409   0.502   6.668   1.619 -1.2606  3.0453  0.2285
12332TIP3   OH258410   4.237   6.238   2.637  0.5454 -0.0532 -0.6358
12332TIP3    H158411   4.161   6.180   2.627 -0.1980  0.8760 -0.4873
12332TIP3    H258412   4.302   6.185   2.684 -0.1772 -0.7052 -0.3561
12333TIP3   OH258413   6.510   5.999   1.363 -0.1110 -0.3402 -0.3954
12333TIP3    H158414   6.579   5.998   1.296  0.9986 -1.0455  0.7244
12333TIP3    H258415   6.439   6.049   1.323  0.4676 -0.8571 -2.1444
12334TIP3   OH258416   3.727   1.721   2.543  0.1294 -0.3051  0.3610
12334TIP3    H158417   3.803   1.755   2.590  0.3718  1.8702 -1.4507
12334TIP3    H258418   3.663   1.701   2.612  1.0304  1.2426  1.7125
12335TIP3   OH258419   4.592   0.336   5.428  0.1739 -1.1018 -0.4746
12335TIP3    H158420   4.586   0.310   5.520  1.7094 -0.0364 -0.0275
12335TIP3    H258421   4.506   0.373   5.407 -0.1940 -1.3636  0.5295
12336TIP3   OH258422   3.565   6.415   2.336 -0.8362  0.2457  0.3630
12336TIP3    H158423   3.617   6.469   2.276 -1.4865  0.3022 -0.1601
12336TIP3    H258424   3.480   6.459   2.341 -0.4121  0.9604  2.3266
12337TIP3   OH258425   1.274   4.710   1.310  0.4141  0.1079  0.0451
12337TIP3    H158426   1.256   4.616   1.318  0.6356  0.1260  0.7934
12337TIP3    H258427   1.346   4.726   1.371 -0.2270  0.9368  0.6012
12338TIP3   OH258428   6.659   3.005  12.055 -0.3660  0.6139  0.0655
12338TIP3    H158429   6.678   2.929  12.000 -0.3530  1.6052 -1.3780
12338TIP3    H258430   6.724   3.070  12.027 -0.3832  1.1613  1.2652
12339TIP3   OH258431   0.775   3.930   5.403 -0.4643 -0.1287 -0.1960
12339TIP3    H158432   0.718   3.856   5.427 -0.2748 -0.2249 -0.0478
12339TIP3    H258433   0.714   3.995   5.368 -0.6606 -0.2592 -0.1049
12340TIP3   OH258434   0.482   3.992   1.298  0.2879 -0.4603  0.2211
12340TIP3    H158435   0.435   4.074   1.312  0.7849 -0.5239  2.6387
12340TIP3    H258436   0.573   4.012   1.318  0.8741 -1.0269 -1.6871
12341TIP3   OH258437   0.947   6.216  14.627  0.0720 -0.1336  0.1322
12341TIP3    H158438   0.974   6.295  14.674  2.4748 -0.6620 -0.1965
12341TIP3    H258439   0.853   6.226  14.614  0.2223  2.4368  0.5238
12342TIP3   OH258440   0.270   1.893   3.831  0.9730 -0.4120 -0.0469
12342TIP3    H158441   0.260   1.956   3.760  0.1156  1.7519  1.8542
12342TIP3    H258442   0.181   1.875   3.861  0.8969 -4.6315 -2.0629
12343TIP3   OH258443   1.337   5.166  12.434  0.7183 -0.3256 -0.5601
12343TIP3    H158444   1.371   5.101  12.373  0.6026 -0.3140 -0.6374
12343TIP3    H258445   1.306   5.238  12.379  2.0249  0.3748 -0.4309
12344TIP3   OH258446   3.863   4.676   2.734 -0.1059 -0.1674 -0.1932
12344TIP3    H158447   3.870   4.610   2.804  0.7121 -1.0035 -1.0352
12344TIP3    H258448   3.769   4.688   2.723 -0.2602 -0.7362  0.4069
12345TIP3   OH258449   2.686   2.618   1.118  0.4082 -0.5336  0.0317
12345TIP3    H158450   2.665   2.525   1.113  2.1433 -0.9430 -0.7349
12345TIP3    H258451   2.659   2.654   1.033  0.5606 -0.5432 -0.0221
12346TIP3   OH258452   5.836   3.485   0.774 -0.0325 -0.1256 -0.4876
12346TIP3    H158453   5.912   3.484   0.833 -0.7032  0.8136  0.4392
12346TIP3    H258454   5.804   3.395   0.775 -1.0779  0.1648  2.0803
12347TIP3   OH258455   2.030   4.447  15.341 -0.7018  0.0424  0.0684
12347TIP3    H158456   2.026   4.364  15.389 -2.1519 -0.1200 -0.2880
12347TIP3    H258457   2.071   4.424  15.258 -1.5223 -0.4470 -0.2227
12348TIP3   OH258458   1.973   5.435  14.874  0.3393 -0.2628  0.1973
12348TIP3    H158459   1.917   5.413  14.799  1.1517  1.2175 -0.8886
12348TIP3    H258460   1.955   5.527  14.892 -0.6058 -0.8348  2.5491
12349TIP3   OH258461   0.903   4.594  12.601  0.3337  0.2888  1.1850
12349TIP3    H158462   0.964   4.664  12.578 -0.2679  0.7801  1.0631
12349TIP3    H258463   0.949   4.544  12.669  1.2182  0.1329  0.4812
12350TIP3   OH258464   1.298   0.106   1.943  0.0950 -1.0533 -0.1795
12350TIP3    H158465   1.343   0.160   1.877  0.1464 -0.7495  0.1050
12350TIP3    H258466   1.284   0.022   1.899 -0.7450 -0.5471 -0.9316
12351TIP3   OH258467   3.899   0.365  12.004  0.1475  0.3017 -0.0542
12351TIP3    H158468   3.992   0.344  12.017  0.2802  1.2261  0.6055
12351TIP3    H258469   3.889   0.451  12.044 -0.4781  1.2563 -2.1388
12352TIP3   OH258470   6.187   6.805  12.720 -0.6500  0.2432 -0.0664
12352TIP3    H158471   6.230   6.771  12.642 -1.3913  2.7581 -1.6861
12352TIP3    H258472   6.258   6.814  12.784  0.1537 -0.9837 -0.7455
12353TIP3   OH258473   5.284   5.789  10.849  0.1611  0.0934  0.1204
12353TIP3    H158474   5.234   5.740  10.914  0.2211  0.8684  0.7634
12353TIP3    H258475   5.374   5.785  10.880  0.6800 -1.8645 -1.3799
12354TIP3   OH258476   0.605   6.265   5.124  0.2209 -0.6945  0.2379
12354TIP3    H158477   0.677   6.324   5.104  0.6655 -1.7340 -1.4486
12354TIP3    H258478   0.625   6.230   5.211  1.4203 -0.4932  0.0541
12355TIP3   OH258479   1.320   0.466   5.800  0.3736 -0.1392  0.5427
12355TIP3    H158480   1.410   0.435   5.815  0.2542 -0.0831  1.4207
12355TIP3    H258481   1.289   0.491   5.887 -1.1003 -1.7675  0.5344
12356TIP3   OH258482   2.345   1.136   5.599 -1.2815  0.3211 -0.0315
12356TIP3    H158483   2.358   1.065   5.662 -1.5300  1.8409  1.8295
12356TIP3    H258484   2.383   1.103   5.517 -1.0979 -1.7964  0.8442
12357TIP3   OH258485   3.822   0.837   2.335  0.0680  0.0243 -0.1687
12357TIP3    H158486   3.758   0.905   2.314 -0.1424  0.5346  1.9337
12357TIP3    H258487   3.774   0.755   2.326 -0.5446  0.3394  0.2033
12358TIP3   OH258488   3.511   3.023   2.196 -0.1920  0.3965 -0.1419
12358TIP3    H158489   3.575   3.093   2.204  0.4298 -0.1694 -0.0833
12358TIP3    H258490   3.457   3.031   2.275  2.9405 -2.1899  2.6116
12359TIP3   OH258491   1.340   1.487   4.135  0.9603  0.3899  0.0331
12359TIP3    H158492   1.248   1.480   4.109  1.7337 -1.4623 -2.5628
12359TIP3    H258493   1.367   1.573   4.104  0.2931  0.6465  0.1466
12360TIP3   OH258494   2.669   2.080  16.888 -0.1606  0.4202  0.9367
12360TIP3    H158495   2.592   2.062  16.941 -0.4473  2.6792  1.3710
12360TIP3    H258496   2.648   2.161  16.842  1.1073 -0.1100 -0.6654
12361TIP3   OH258497   5.749   6.552  11.344 -1.0953 -0.1626 -0.2469
12361TIP3    H158498   5.720   6.644  11.339  0.5605  0.4402  0.5300
12361TIP3    H258499   5.749   6.533  11.438  0.0712 -0.4343 -0.2939
12362TIP3   OH258500   5.443   3.631  14.913 -0.1213  0.4214 -0.1079
12362TIP3    H158501   5.502   3.706  14.909  0.5097  0.1462  2.6360
12362TIP3    H258502   5.364   3.664  14.957 -0.3408 -0.2161 -0.0067
12363TIP3   OH258503   1.346   4.391   0.474 -0.1869 -0.5026 -0.5141
12363TIP3    H158504   1.353   4.338   0.394 -0.0179 -0.5202 -0.4871
12363TIP3    H258505   1.434   4.425   0.489 -0.7371  1.8689 -1.9604
12364TIP3   OH258506   4.049   0.434  16.415 -0.0018  0.5431  0.1463
12364TIP3    H158507   3.956   0.436  16.439 -0.2823  1.5395 -0.9193
12364TIP3    H258508   4.052   0.385  16.333  0.2969  1.1578 -0.2194
12365TIP3   OH258509   4.974   1.387   5.473  0.0208  0.1502  0.5442
12365TIP3    H158510   4.937   1.301   5.492  0.0793 -0.1600 -0.6957
12365TIP3    H258511   5.028   1.373   5.395 -1.9960  1.8309 -1.2485
12366TIP3   OH258512   3.707   2.954  12.687 -0.3770  0.2067 -0.2783
12366TIP3    H158513   3.715   2.945  12.592 -1.4198  1.1756 -0.4857
12366TIP3    H258514   3.784   2.911  12.722 -0.7685 -1.6154 -1.4953
12367TIP3   OH258515   6.753   5.972  15.456 -0.2052 -0.2390  0.7020
12367TIP3    H158516   6.840   6.012  15.458 -0.4796  0.4360 -0.4142
12367TIP3    H258517   6.749   5.927  15.372 -2.3944  3.1958 -1.2706
12368TIP3   OH258518   0.527   5.820   5.451 -0.1290  0.2987  0.5096
12368TIP3    H158519   0.533   5.901   5.501  3.0431 -0.0545  0.9058
12368TIP3    H258520   0.442   5.825   5.406 -0.5571  3.2369  1.4705
12369TIP3   OH258521   2.456   3.219   3.263  0.5883  0.2533  0.6655
12369TIP3    H158522   2.449   3.297   3.318 -1.4414  1.8985 -1.6629
12369TIP3    H258523   2.418   3.246   3.179 -0.5906 -3.3833 -0.1653
12370TIP3   OH258524   3.900   3.657  17.036 -0.0276 -0.0200 -0.5353
12370TIP3    H158525   3.831   3.653  17.102 -1.2839  4.6554 -1.1618
12370TIP3    H258526   3.854   3.659  16.953  1.3118 -2.1430 -1.3964
12371TIP3   OH258527   0.894   5.791   2.947 -0.3344 -0.8656 -0.2117
12371TIP3    H158528   0.827   5.826   3.005 -0.0112 -1.4091  0.5151
12371TIP3    H258529   0.851   5.718   2.902 -0.5013 -0.6271 -0.4388
12372TIP3   OH258530   1.813   1.338   2.691 -0.6302  0.0357 -0.6401
12372TIP3    H158531   1.871   1.320   2.764 -1.4041 -1.3351 -0.3285
12372TIP3    H258532   1.863   1.395   2.633  1.7549 -2.4443 -1.2455
12373TIP3   OH258533   2.142   6.699  12.895  0.3385  0.4275 -0.1632
12373TIP3    H158534   2.209   6.752  12.853  0.0682  0.0462 -1.0857
12373TIP3    H258535   2.135   6.621  12.841  0.2346 -0.2403  0.7951
12374TIP3   OH258536   4.872   2.883  14.197  0.2700 -0.2157  0.8184
12374TIP3    H158537   4.777   2.885  14.186  0.4051  1.8954 -0.6527
12374TIP3    H258538   4.906   2.890  14.108  1.8420 -1.6030  1.2694
12375TIP3   OH258539   5.870   4.337  11.398  0.2057 -0.1467  0.3629
12375TIP3    H158540   5.808   4.302  11.463  1.6016 -0.6163  1.5057
12375TIP3    H258541   5.842   4.299  11.315 -2.5081  1.5725  0.3321
12376TIP3   OH258542   3.547   1.276  16.668  0.2058  0.4391  0.4073
12376TIP3    H158543   3.541   1.285  16.763 -0.0440 -0.9538  0.5434
12376TIP3    H258544   3.536   1.182  16.652  0.4163  0.6306 -0.9870
12377TIP3   OH258545   0.672   6.236  13.617  0.3166 -0.1460  0.2683
12377TIP3    H158546   0.597   6.294  13.600  0.9991  0.7578  0.2383
12377TIP3    H258547   0.722   6.238  13.535  1.8843  1.5849  1.1837
12378TIP3   OH258548   4.009   4.356  13.647 -0.5318 -0.3512 -0.0849
12378TIP3    H158549   4.048   4.424  13.593  1.4498 -0.3206  1.2654
12378TIP3    H258550   3.948   4.402  13.705 -0.7763 -0.0346 -0.5931
12379TIP3   OH258551   3.387   0.055  11.909 -0.5836 -0.3046 -0.3439
12379TIP3    H158552   3.446   0.093  11.973 -2.0765  0.7727  0.4539
12379TIP3    H258553   3.350  -0.022  11.953 -0.2908 -0.5983 -0.5999
12380TIP3   OH258554   2.265   0.688   0.275 -0.1567  0.0954 -0.2283
12380TIP3    H158555   2.342   0.742   0.292 -1.1417  1.0333  1.5765
12380TIP3    H258556   2.220   0.732   0.203  0.1003  0.5311 -0.1244
12381TIP3   OH258557   6.231   4.273  14.860 -0.0032 -0.4933 -0.1830
12381TIP3    H158558   6.303   4.329  14.832 -0.3782 -0.2742 -0.7333
12381TIP3    H258559   6.155   4.331  14.861 -0.2267 -0.7903  0.0886
12382TIP3   OH258560   3.012   3.291  11.485  0.1253 -0.7122  0.9880
12382TIP3    H158561   3.045   3.201  11.496  0.3786 -0.7147  0.2700
12382TIP3    H258562   2.937   3.282  11.427  0.2102 -0.4507  0.8357
12383TIP3   OH258563   2.327   6.056   1.463 -0.3097  0.4117  0.4297
12383TIP3    H158564   2.339   6.036   1.370 -1.5149 -0.3448  0.4166
12383TIP3    H258565   2.375   6.138   1.476 -0.5640  0.8174 -0.9682
12384TIP3   OH258566   3.615   2.079  12.481  0.2752  0.2959  0.7592
12384TIP3    H158567   3.612   2.171  12.506  0.9906  0.6094 -0.2218
12384TIP3    H258568   3.631   2.081  12.386  1.5360 -0.8440  0.9198
12385TIP3   OH258569   1.973   6.043   4.233 -0.0456 -0.1084  0.2303
12385TIP3    H158570   1.953   5.979   4.301  1.4394 -0.0409  0.7565
12385TIP3    H258571   2.066   6.062   4.243  0.2715 -0.2258 -1.9399
12386TIP3   OH258572   5.847   4.024   4.946 -0.0488 -0.3823  0.3074
12386TIP3    H158573   5.930   3.976   4.944  0.2870  0.1671  0.6047
12386TIP3    H258574   5.838   4.050   5.038 -1.6402 -2.2716  0.7562
12387TIP3   OH258575   4.797   3.596   2.354  0.2688 -0.2913 -0.4933
12387TIP3    H158576   4.855   3.520   2.352  2.3135  1.1808 -1.9860
12387TIP3    H258577   4.853   3.668   2.380 -0.7929  1.2798 -2.2823
12388TIP3   OH258578   5.027   6.269   3.395  0.0356  0.1009 -0.6127
12388TIP3    H158579   5.108   6.321   3.394  0.0385  0.1580  0.5393
12388TIP3    H258580   4.997   6.269   3.305  0.3080  1.6799 -0.7357
12389TIP3   OH258581   4.487   6.092   0.001 -0.5649  0.5614  0.0608
12389TIP3    H158582   4.488   6.160   0.068  0.8996  0.1233  0.5095
12389TIP3    H258583   4.562   6.037   0.021 -1.2345 -0.7162 -0.7951
12390TIP3   OH258584   2.829   0.982   6.097  0.5299 -0.1206 -0.2009
12390TIP3    H158585   2.902   0.967   6.157  1.1989  0.5853 -0.8201
12390TIP3    H258586   2.862   1.044   6.033  0.0718 -1.3921 -1.7437
12391TIP3   OH258587   1.201   3.249   5.717  0.4278  0.0597  0.1607
12391TIP3    H158588   1.264   3.314   5.686 -0.5005 -0.3459 -2.9202
12391TIP3    H258589   1.255   3.181   5.759  1.5453  1.8501  1.8092
12392TIP3   OH258590   0.213   6.426   5.517  0.1812 -0.0551  0.2273
12392TIP3    H158591   0.198   6.375   5.597 -0.0375 -1.4999 -0.7006
12392TIP3    H258592   0.222   6.360   5.448  0.7676  1.1481 -0.8871
12393TIP3   OH258593   2.213   0.551  16.590 -0.2069  0.2350  0.4560
12393TIP3    H158594   2.169   0.536  16.506  0.9421 -0.3847 -0.0482
12393TIP3    H258595   2.285   0.489  16.591  0.5609  1.1138  1.3559
12394TIP3   OH258596   2.662   0.728  12.290 -0.0982 -0.0052  0.5486
12394TIP3    H158597   2.636   0.651  12.239 -0.0374  0.5758 -0.3968
12394TIP3    H258598   2.584   0.783  12.292  0.1748  0.3999  0.2642
12395TIP3   OH258599   0.094   5.773  16.036  0.3616 -0.5602  0.5371
12395TIP3    H158600   0.180   5.763  16.078  0.7155 -1.0658 -0.2720
12395TIP3    H258601   0.094   5.708  15.966  0.0496  0.6678 -0.6477
12396TIP3   OH258602   4.067   6.064   1.874 -0.1368  0.0024  0.0111
12396TIP3    H158603   4.156   6.098   1.874 -0.7557  1.8798 -2.4231
12396TIP3    H258604   4.065   6.002   1.801 -0.4314 -1.3675  1.1283
12397TIP3   OH258605   5.888   3.046   1.932 -0.1939  0.1555 -0.5442
12397TIP3    H158606   5.865   3.126   1.885  1.1226  0.7066 -0.2925
12397TIP3    H258607   5.804   3.003   1.950 -0.8310  0.8289 -1.8103
12398TIP3   OH258608   5.250   3.479   1.217 -0.4843 -0.0007  0.3822
12398TIP3    H158609   5.280   3.392   1.191  1.4583  1.0097 -0.9683
12398TIP3    H258610   5.162   3.464   1.252 -0.1987 -2.4912  0.2300
12399TIP3   OH258611   2.010   5.058  16.769  0.1917 -0.4203  0.3997
12399TIP3    H158612   1.933   5.063  16.827  0.3248  1.4950  0.4748
12399TIP3    H258613   1.973   5.055  16.681  0.0006  0.1514  0.4519
12400TIP3   OH258614   0.585   5.339   0.677 -0.3530  0.0448 -0.1840
12400TIP3    H158615   0.678   5.314   0.677 -0.8423 -2.0118 -0.7687
12400TIP3    H258616   0.554   5.315   0.764 -0.4861  0.0897 -0.2196
12401TIP3   OH258617   5.624   5.972  11.396  0.1320 -0.2861  0.3136
12401TIP3    H158618   5.678   5.919  11.454 -0.3769 -0.3535  0.7368
12401TIP3    H258619   5.647   5.943  11.308  2.6608  1.4544  0.3126
12402TIP3   OH258620   0.759   1.407   5.660  0.5569  0.6462 -0.0819
12402TIP3    H158621   0.714   1.487   5.633 -0.3310  1.0035  2.2025
12402TIP3    H258622   0.695   1.338   5.644  0.7764  0.5789 -0.6927
12403TIP3   OH258623   1.975   2.004   1.116 -0.2156 -0.0643  0.2342
12403TIP3    H158624   1.976   2.092   1.155 -0.9512 -0.3022  0.8245
12403TIP3    H258625   1.899   2.004   1.059  0.7779  0.2315 -1.1331
12404TIP3   OH258626   3.006   4.681   0.974  0.7097  0.2773  0.2746
12404TIP3    H158627   2.960   4.656   1.054  1.7976 -0.3556  0.7121
12404TIP3    H258628   2.941   4.671   0.905  0.6448 -2.3045  0.6295
12405TIP3   OH258629   0.216   0.678   2.571 -0.2168  0.4687 -0.2605
12405TIP3    H158630   0.175   0.708   2.652  0.1927  0.9278 -0.2120
12405TIP3    H258631   0.171   0.727   2.502  1.3154  2.2605 -0.0910
12406TIP3   OH258632   2.452   4.618   2.017  0.0646  0.5247  0.2325
12406TIP3    H158633   2.475   4.653   2.103 -0.5391  2.1445 -0.2361
12406TIP3    H258634   2.416   4.693   1.969  0.0722 -0.4251 -1.3208
12407TIP3   OH258635   3.127   1.988   5.927  0.4888  0.1339 -0.1990
12407TIP3    H158636   3.053   1.965   5.870  0.8876 -0.0052 -0.6646
12407TIP3    H258637   3.163   1.904   5.954 -1.3617  0.0843  2.5132
12408TIP3   OH258638   6.444   6.466  16.750  0.5288 -0.0483 -0.3518
12408TIP3    H158639   6.353   6.486  16.769  0.9273  0.1242  1.5234
12408TIP3    H258640   6.493   6.542  16.781  1.5135 -1.2177  1.1553
12409TIP3   OH258641   6.408   1.133   6.526  0.0386 -0.2796 -0.3843
12409TIP3    H158642   6.491   1.121   6.479  0.5616 -0.5749  0.5697
12409TIP3    H258643   6.416   1.219   6.567 -0.4695  0.0364 -0.9459
12410TIP3   OH258644   0.163   6.739  14.263  0.3186  0.6184 -0.1735
12410TIP3    H158645   0.257   6.744  14.280  0.7582  2.7056 -2.6011
12410TIP3    H258646   0.122   6.766  14.346  1.7771 -0.7571  1.0645
12411TIP3   OH258647   3.750   2.006  11.771 -0.0365 -0.3914 -0.2960
12411TIP3    H158648   3.683   2.060  11.813 -0.0686  0.0096 -0.8579
12411TIP3    H258649   3.814   2.068  11.738  1.0162 -0.8015  0.8818
12412TIP3   OH258650   0.360   6.626  12.253  0.1379 -0.2707  0.3509
12412TIP3    H158651   0.295   6.661  12.192 -0.0614 -1.0074  0.1296
12412TIP3    H258652   0.442   6.625  12.203 -0.4912 -3.1422 -0.7752
12413TIP3   OH258653   0.929   4.269  15.037 -0.1916  0.2651  0.2188
12413TIP3    H158654   0.972   4.250  14.954  0.8289 -2.7762  1.2849
12413TIP3    H258655   0.855   4.209  15.040  1.1647 -1.4828  2.3879
12414TIP3   OH258656   2.748   4.912  14.571 -0.5478 -0.6532  0.2936
12414TIP3    H158657   2.738   4.976  14.641 -2.8549 -0.7164  0.1106
12414TIP3    H258658   2.723   4.829  14.611 -0.2678 -0.9718 -0.1861
12415TIP3   OH258659   6.129   0.628   2.588  0.2651 -0.0195 -0.5240
12415TIP3    H158660   6.037   0.606   2.604  0.1096 -1.6747 -3.2102
12415TIP3    H258661   6.129   0.723   2.578 -1.2438 -0.0440 -0.9737
12416TIP3   OH258662   5.547   2.610  15.849 -0.2201 -0.0875  0.0352
12416TIP3    H158663   5.553   2.568  15.763  0.8713  0.4315 -0.1647
12416TIP3    H258664   5.618   2.572  15.899 -0.1790  0.3986  0.3510
12417TIP3   OH258665   0.675   5.591  11.537 -0.2006 -0.2969 -0.6828
12417TIP3    H158666   0.671   5.686  11.527 -0.6848 -0.2148  0.1789
12417TIP3    H258667   0.767   5.569  11.523  0.1633  0.4667  0.3973
12418TIP3   OH258668   1.881   2.690  14.643 -0.7513 -0.5689 -0.9255
12418TIP3    H158669   1.887   2.786  14.651  1.3642 -0.7862  1.6493
12418TIP3    H258670   1.957   2.666  14.590  0.0054 -0.9183  0.2774
12419TIP3   OH258671   2.813   0.377   1.311  0.2256  0.1225  0.7869
12419TIP3    H158672   2.856   0.435   1.248 -2.0737  0.4668 -0.5881
12419TIP3    H258673   2.844   0.289   1.288 -1.5206  0.0760 -1.8047
12420TIP3   OH258674   6.303   5.274   4.850  0.1083  0.1457  0.0714
12420TIP3    H158675   6.303   5.250   4.758 -0.0119  0.8692 -0.1227
12420TIP3    H258676   6.213   5.257   4.879 -0.0647  0.6640 -0.1488
12421TIP3   OH258677   0.224   2.372  16.648 -0.1455 -0.3828 -0.0479
12421TIP3    H158678   0.180   2.326  16.720  1.2946  0.2513  1.3164
12421TIP3    H258679   0.291   2.311  16.618 -0.3393 -0.4081 -0.4259
12422TIP3   OH258680   5.986   0.098   2.107 -0.0702 -0.0446 -0.3939
12422TIP3    H158681   5.956   0.168   2.049  0.9766  0.7090 -0.0681
12422TIP3    H258682   5.920   0.029   2.099 -0.9243  0.8240 -1.0181
12423TIP3   OH258683   2.582   0.709   3.112  0.1611  0.6782  0.0287
12423TIP3    H158684   2.517   0.703   3.182 -1.2008  0.2630 -1.1946
12423TIP3    H258685   2.547   0.776   3.052 -0.8109 -1.6440 -2.2059
12424TIP3   OH258686   4.802   4.066  16.797  0.4466  0.4331  0.5915
12424TIP3    H158687   4.882   4.103  16.761 -0.5628  3.8289  1.5144
12424TIP3    H258688   4.760   4.138  16.844 -2.9866 -1.2777  0.4956
12425TIP3   OH258689   3.800   1.121  15.080  0.0609  0.4659  0.0505
12425TIP3    H158690   3.804   1.121  14.985 -1.6193  4.6949 -0.2188
12425TIP3    H258691   3.759   1.037  15.102 -0.1642 -0.3311 -2.9552
12426TIP3   OH258692   2.343   2.190   1.010 -0.4491  0.2806 -0.4294
12426TIP3    H158693   2.291   2.187   0.929 -1.2076 -0.2558  0.0649
12426TIP3    H258694   2.319   2.109   1.056  2.2335 -0.9723 -1.0407
12427TIP3   OH258695   0.931   1.142   2.727 -0.3923  0.0890 -0.4087
12427TIP3    H158696   0.938   1.088   2.806 -1.1581  0.1648 -0.2825
12427TIP3    H258697   0.973   1.224   2.750 -1.6506  0.5518  0.3378
12428TIP3   OH258698   4.877   2.433  13.210  0.4212  0.4141 -0.2408
12428TIP3    H158699   4.817   2.400  13.278 -0.8246  0.2491 -1.3742
12428TIP3    H258700   4.834   2.511  13.176  1.2663  0.7679 -0.5150
12429TIP3   OH258701   2.545   0.092   0.294  0.1095 -0.1215  0.4832
12429TIP3    H158702   2.540   0.187   0.310 -1.6634 -0.3977  1.9101
12429TIP3    H258703   2.620   0.082   0.236  0.1403  2.1940  0.0067
12430TIP3   OH258704   4.110   3.698   3.223  0.1430 -0.1624  0.0956
12430TIP3    H158705   4.108   3.764   3.154 -2.5646 -0.1398  0.0757
12430TIP3    H258706   4.102   3.748   3.304  4.4368 -0.0850  0.7283
12431TIP3   OH258707   5.376   2.657   4.344  0.3342  0.0974 -0.4090
12431TIP3    H158708   5.385   2.583   4.284  0.9869  0.1656 -0.3938
12431TIP3    H258709   5.376   2.617   4.431 -0.2067  0.0381 -0.4286
12432TIP3   OH258710   1.870   2.951   5.019 -0.1844  0.0585  0.6275
12432TIP3    H158711   1.911   3.038   5.028  0.3593 -0.0999 -0.2026
12432TIP3    H258712   1.778   2.969   5.004 -0.1833  0.4736  1.0930
12433TIP3   OH258713   2.320   1.048   1.862  0.3111 -0.1961 -0.0428
12433TIP3    H158714   2.296   1.009   1.778 -1.2858  0.6872 -0.0201
12433TIP3    H258715   2.302   0.979   1.926 -1.9883  0.3246 -0.0608
12434TIP3   OH258716   6.098   3.680  14.451  0.4189 -0.1489  0.5373
12434TIP3    H158717   6.092   3.684  14.356 -0.8215 -0.2700  0.5901
12434TIP3    H258718   6.016   3.638  14.478 -0.5019  2.2943  1.8136
12435TIP3   OH258719   5.022   4.524  13.354 -0.0116  0.2142  0.0834
12435TIP3    H158720   5.111   4.550  13.380  0.6628  0.2071 -2.0466
12435TIP3    H258721   4.978   4.607  13.332 -0.3429  0.1649  0.5470
12436TIP3   OH258722   0.271   5.781   2.069 -0.3682  0.0200 -0.2362
12436TIP3    H158723   0.216   5.828   2.006  0.1973 -1.5962 -2.0209
12436TIP3    H258724   0.350   5.759   2.020  1.3142  1.0321  1.8447
12437TIP3   OH258725   0.549   1.902   5.561 -1.0673 -0.2338  0.6169
12437TIP3    H158726   0.577   1.983   5.519 -0.7320 -1.0210 -0.7327
12437TIP3    H258727   0.462   1.922   5.598 -1.3979  0.4755 -0.5216
12438TIP3   OH258728   0.903   6.010   0.444 -0.0451  0.0004  0.2251
12438TIP3    H158729   0.834   5.943   0.438 -0.5023  0.4713  0.1578
12438TIP3    H258730   0.905   6.049   0.357 -0.1434  0.4275  0.4120
12439TIP3   OH258731   4.519   3.805   3.585  0.1368 -0.4439  0.3326
12439TIP3    H158732   4.481   3.832   3.502 -0.7437 -0.2978  0.7703
12439TIP3    H258733   4.446   3.766   3.633  0.3410  0.6114  1.5341
12440TIP3   OH258734   4.969   1.779   1.037 -0.0640  0.6266  0.1730
12440TIP3    H158735   4.921   1.827   0.969 -1.1527  0.0769  0.5315
12440TIP3    H258736   4.908   1.775   1.110  0.4736 -0.2380  0.5806
12441TIP3   OH258737   3.376   5.662  14.532  0.5217 -0.3399 -0.1403
12441TIP3    H158738   3.328   5.660  14.615  3.2976 -0.1214  1.5727
12441TIP3    H258739   3.354   5.747  14.494  1.4436  0.8499  1.8492
12442TIP3   OH258740   4.158   5.784   4.910  0.0395 -0.5606 -0.2341
12442TIP3    H158741   4.115   5.743   4.835 -0.6542 -2.0063  0.9106
12442TIP3    H258742   4.145   5.722   4.982 -0.1503  1.2177  1.3313
12443TIP3   OH258743   3.574   2.266   5.729 -0.7043  0.1074 -0.6651
12443TIP3    H158744   3.639   2.198   5.743 -0.3301  0.5616 -0.1456
12443TIP3    H258745   3.575   2.318   5.810  0.7550  2.1616 -1.8822
12444TIP3   OH258746   2.293   3.420  16.959  0.4101 -0.2511  0.5659
12444TIP3    H158747   2.353   3.347  16.942 -0.3300 -0.8243  0.3409
12444TIP3    H258748   2.275   3.413  17.053 -0.4357 -0.9885  0.3633
12445TIP3   OH258749   5.928   1.052  14.916 -0.2971 -0.2296 -0.1459
12445TIP3    H158750   5.867   1.091  14.979 -0.0711  0.3530 -0.2817
12445TIP3    H258751   5.884   1.060  14.831 -0.1745 -0.1174 -0.1981
12446TIP3   OH258752   3.835   4.796   1.749 -0.7399 -0.5138  0.4650
12446TIP3    H158753   3.779   4.790   1.827 -0.3474  0.1387  0.8076
12446TIP3    H258754   3.810   4.879   1.708  0.1096 -0.1132  0.7338
12447TIP3   OH258755   4.055   4.859  11.303 -0.8462  0.4675  0.2868
12447TIP3    H158756   3.975   4.886  11.348 -1.9888 -1.6369 -0.3146
12447TIP3    H258757   4.072   4.770  11.335  0.4951  0.3766 -0.5821
12448TIP3   OH258758   0.325   3.043  15.257 -0.2137  0.0125  0.1033
12448TIP3    H158759   0.368   2.990  15.190 -0.5756 -0.5036  0.2817
12448TIP3    H258760   0.290   2.980  15.319 -0.5098  0.4663  0.3993
12449TIP3   OH258761   0.291   1.034  14.245 -0.5381 -0.6693 -0.1882
12449TIP3    H158762   0.370   0.995  14.205  0.1653 -0.5840  1.0735
12449TIP3    H258763   0.261   1.098  14.180  0.2578 -0.9156 -0.8233
12450TIP3   OH258764   1.804   4.347   2.192 -0.2329 -0.0179 -0.0177
12450TIP3    H158765   1.834   4.300   2.269 -0.6708 -1.2749 -0.5905
12450TIP3    H258766   1.862   4.318   2.121 -1.0086 -0.3061 -0.5444
12451TIP3   OH258767   2.049   4.381   0.712 -0.3587  0.0885  0.0745
12451TIP3    H158768   2.126   4.325   0.722 -0.1496  0.4913  0.7217
12451TIP3    H258769   2.084   4.470   0.708 -0.6576  0.1799 -1.2816
12452TIP3   OH258770   1.261   4.423   1.363 -0.2279 -0.3704 -0.0861
12452TIP3    H158771   1.318   4.356   1.324  1.6574 -0.3159  2.3916
12452TIP3    H258772   1.200   4.373   1.418 -0.2520 -0.1908  0.0501
12453TIP3   OH258773   3.391   0.188   2.687 -0.1724  0.1637 -0.2441
12453TIP3    H158774   3.455   0.118   2.675 -1.8178 -1.4765  0.1733
12453TIP3    H258775   3.316   0.145   2.727 -1.1276  2.2539  0.3241
12454TIP3   OH258776   6.283   1.899  14.840 -0.2389  0.5711  0.0111
12454TIP3    H158777   6.197   1.863  14.817 -0.1933  1.4882 -1.7028
12454TIP3    H258778   6.279   1.991  14.813  0.5908  1.1830  1.8090
12455TIP3   OH258779   4.812   5.077  15.780  0.5302 -0.0545 -0.4574
12455TIP3    H158780   4.779   4.991  15.758 -1.2994  0.3977  0.2867
12455TIP3    H258781   4.759   5.138  15.728  0.3908  0.6882  0.5012
12456TIP3   OH258782   3.340   3.739   2.631 -0.6312  0.3110  0.1428
12456TIP3    H158783   3.258   3.730   2.582  0.0622 -2.8749 -0.6140
12456TIP3    H258784   3.399   3.782   2.569 -1.0701  0.5660 -0.1099
12457TIP3   OH258785   5.573   0.936  10.394 -0.1563 -0.2841 -0.2243
12457TIP3    H158786   5.554   1.015  10.345  0.7386 -0.5324 -1.0109
12457TIP3    H258787   5.658   0.907  10.360  0.3576 -0.6251  1.2682
12458TIP3   OH258788   0.698   5.021  10.680 -0.0166  0.3228  0.1915
12458TIP3    H158789   0.613   4.986  10.653  0.6929 -1.9511  0.6283
12458TIP3    H258790   0.713   5.096  10.623 -1.2944 -0.6264 -1.4776
12459TIP3   OH258791   3.008   1.224  13.300 -0.6913  0.2743 -0.0696
12459TIP3    H158792   2.954   1.303  13.296 -0.4961  0.4991  1.3562
12459TIP3    H258793   2.991   1.187  13.386  1.3878  0.3533  0.4385
12460TIP3   OH258794   1.716   5.748  12.951 -0.6662 -0.1579  0.2745
12460TIP3    H158795   1.755   5.799  12.880 -0.1581 -0.0674  0.6094
12460TIP3    H258796   1.646   5.804  12.984 -0.8183 -0.1439 -0.0689
12461TIP3   OH258797   0.389   6.318  16.036 -0.0783 -0.3147  0.1801
12461TIP3    H158798   0.395   6.369  16.116 -0.2072 -0.8627  0.5465
12461TIP3    H258799   0.324   6.363  15.983 -0.5615 -0.3829  0.7101
12462TIP3   OH258800   0.606   1.329   5.937 -0.2095  0.3806  0.3857
12462TIP3    H158801   0.592   1.238   5.911  0.5562  0.4337 -0.2737
12462TIP3    H258802   0.696   1.330   5.969  1.2495  1.6073 -3.1770
12463TIP3   OH258803   1.944   6.223   4.833 -0.0841  0.3109 -0.0576
12463TIP3    H158804   1.896   6.306   4.843 -1.0920 -0.3798  1.4133
12463TIP3    H258805   2.001   6.220   4.910  1.0629  0.3190 -0.8988
12464TIP3   OH258806   2.224   1.310   2.231 -0.6557  0.0538 -0.5249
12464TIP3    H158807   2.165   1.364   2.179 -1.5608  1.3048  1.6565
12464TIP3    H258808   2.175   1.230   2.247 -1.6508  0.8936  0.8709
12465TIP3   OH258809   2.470   3.107   1.535  0.7078 -0.2062 -0.5098
12465TIP3    H158810   2.477   3.151   1.451 -0.8413  1.2113  0.0487
12465TIP3    H258811   2.456   3.015   1.513 -0.8135  0.3029 -1.8595
12466TIP3   OH258812   3.112   2.202   1.609 -0.7059 -0.1896 -0.3217
12466TIP3    H158813   3.136   2.253   1.532 -0.4414 -0.6290 -0.5354
12466TIP3    H258814   3.195   2.163   1.639 -0.8161 -0.0685  0.1484
12467TIP3   OH258815   0.863   6.267   5.774 -0.1469 -0.3116 -0.4639
12467TIP3    H158816   0.806   6.248   5.700  1.2620 -0.5089 -1.5555
12467TIP3    H258817   0.873   6.362   5.773  0.7730 -0.4043 -1.2589
12468TIP3   OH258818   5.503   2.304  12.341  0.3333  0.3947  0.3610
12468TIP3    H158819   5.435   2.307  12.409  0.4052 -1.1105  0.5158
12468TIP3    H258820   5.454   2.302  12.258  0.2418  1.7520  0.3576
12469TIP3   OH258821   3.849   1.186  12.954  0.0797 -0.0010  0.4220
12469TIP3    H158822   3.900   1.148  12.882 -1.4385  1.5367 -1.5930
12469TIP3    H258823   3.829   1.275  12.924 -1.0404  0.5340  2.5606
12470TIP3   OH258824   4.883   0.112   3.534  0.1102 -0.6411 -0.1249
12470TIP3    H158825   4.890   0.194   3.582 -0.2773  0.0471 -1.1873
12470TIP3    H258826   4.846   0.050   3.596 -0.4310  0.2329  0.4429
12471TIP3   OH258827   3.268   5.709   6.768 -0.0129  0.6032 -0.4955
12471TIP3    H158828   3.315   5.627   6.778 -1.2398 -0.0382  0.2956
12471TIP3    H258829   3.204   5.692   6.698  0.6192  1.3378 -1.2885
12472TIP3   OH258830   1.012   3.958   1.582  0.6799  0.1917 -0.0648
12472TIP3    H158831   0.940   3.987   1.638  0.0282  0.4335 -1.0082
12472TIP3    H258832   0.998   3.864   1.570  1.4794 -0.1062  1.0913
12473TIP3   OH258833   3.388   3.265  14.682  0.0234  0.2255  0.5279
12473TIP3    H158834   3.400   3.307  14.767  4.3864 -1.2268  0.8584
12473TIP3    H258835   3.414   3.332  14.619 -0.8774  0.5141  0.4409
12474TIP3   OH258836   1.364   3.538  13.603  0.5749 -0.0314  0.5864
12474TIP3    H158837   1.419   3.558  13.679  1.0944 -0.8634  0.4434
12474TIP3    H258838   1.424   3.543  13.529  0.0129  1.0548  0.1734
12475TIP3   OH258839   3.990   1.892   3.873 -0.2803  0.2230  0.5591
12475TIP3    H158840   4.061   1.954   3.891  0.6661 -0.2148 -1.4170
12475TIP3    H258841   3.945   1.928   3.797  0.0820 -1.3122 -0.4242
12476TIP3   OH258842   6.345   0.343  11.701  0.3771 -0.0109 -0.4015
12476TIP3    H158843   6.361   0.414  11.640  0.9416  0.3736  0.1779
12476TIP3    H258844   6.262   0.365  11.743  0.8644  0.6676  0.2447
12477TIP3   OH258845   5.000   0.593  16.239  0.2733 -0.4415 -0.6898
12477TIP3    H158846   5.042   0.626  16.318  0.8194 -0.9437 -0.7623
12477TIP3    H258847   5.073   0.570  16.180  0.0893 -3.8616  0.1889
12478TIP3   OH258848   5.991   5.041   5.434  0.8268 -0.0445  0.1947
12478TIP3    H158849   5.938   5.116   5.406 -1.6367 -1.6654  0.1408
12478TIP3    H258850   6.019   5.000   5.353  0.8401 -0.0415  0.1978
12479TIP3   OH258851   3.440   2.193   5.372 -0.4265  0.1876 -0.5557
12479TIP3    H158852   3.503   2.151   5.313 -1.4566 -1.3459 -0.6241
12479TIP3    H258853   3.370   2.223   5.313 -0.0071  1.4538 -0.4304
12480TIP3   OH258854   1.112   2.832   0.634  0.0894  0.3418 -0.5353
12480TIP3    H158855   1.021   2.805   0.622  0.1601 -0.9015  1.2539
12480TIP3    H258856   1.114   2.870   0.722  1.1471  1.1573 -0.8885
12481TIP3   OH258857   1.463   4.684   1.496 -0.3042  0.7870  0.4205
12481TIP3    H158858   1.421   4.642   1.572 -1.0374  0.2305 -0.2716
12481TIP3    H258859   1.517   4.615   1.458 -1.2866  0.5189 -0.5528
12482TIP3   OH258860   0.284   3.877  14.307  0.1249  0.4850  0.2072
12482TIP3    H158861   0.377   3.901  14.303  0.0222  0.7587 -1.6820
12482TIP3    H258862   0.265   3.870  14.400  2.2605 -0.4756  0.6273
12483TIP3   OH258863   5.315   3.125  13.509 -0.8204 -0.6471  0.7663
12483TIP3    H158864   5.344   3.108  13.419 -0.8648  0.0567  0.6137
12483TIP3    H258865   5.248   3.192  13.500 -1.1134 -0.8641  1.2949
12484TIP3   OH258866   3.359   5.130  12.193  0.1318 -0.0303  0.3786
12484TIP3    H158867   3.386   5.065  12.128  0.4938 -0.2706  0.7690
12484TIP3    H258868   3.407   5.209  12.168 -0.9282  0.3426 -0.5893
12485TIP3   OH258869   0.964   2.003   4.708  0.0272 -0.0218  0.6411
12485TIP3    H158870   1.060   2.005   4.710  0.1358 -0.3115 -1.9660
12485TIP3    H258871   0.941   1.912   4.726  0.3725 -0.4318 -0.8696
12486TIP3   OH258872   4.199   4.151   0.356 -0.0656 -0.7604  0.8160
12486TIP3    H158873   4.227   4.200   0.278 -0.2121 -1.6995  0.1495
12486TIP3    H258874   4.118   4.195   0.383  0.4156  0.0798  0.9389
12487TIP3   OH258875   0.795   5.087   0.618  0.3381 -0.6321 -0.1202
12487TIP3    H158876   0.834   5.117   0.700 -0.6609  0.3209  0.0157
12487TIP3    H258877   0.859   5.112   0.551 -0.5799  2.2199 -0.0607
12488TIP3   OH258878   6.590   3.148  13.520 -0.5686  0.1208  0.4082
12488TIP3    H158879   6.524   3.126  13.586 -0.2188 -0.5763  0.5381
12488TIP3    H258880   6.647   3.071  13.518 -1.6635 -0.7161 -2.1169
12489TIP3   OH258881   2.323   4.484  16.768  0.3305 -0.4328  0.3846
12489TIP3    H158882   2.274   4.518  16.694  0.7861 -1.4439 -0.4081
12489TIP3    H258883   2.301   4.542  16.841 -3.5226 -1.8916  0.5929
12490TIP3   OH258884   1.565   1.384  13.478 -0.0538  0.4133  0.0026
12490TIP3    H158885   1.475   1.394  13.445 -0.3486 -0.7039  0.4226
12490TIP3    H258886   1.618   1.434  13.416 -0.9732  1.2153 -0.1699
12491TIP3   OH258887   1.297   5.460   0.933 -0.8942  0.0629 -0.4400
12491TIP3    H158888   1.387   5.477   0.964 -1.1512 -0.0176  0.3721
12491TIP3    H258889   1.250   5.432   1.011 -0.9326 -2.7666 -1.3416
12492TIP3   OH258890   0.228   1.929   0.711  0.4030 -0.4843 -0.0503
12492TIP3    H158891   0.197   1.971   0.630  1.0167  2.8222  1.2654
12492TIP3    H258892   0.323   1.925   0.700  0.3916 -1.1379  0.0568
12493TIP3   OH258893   0.588   6.076  13.346 -0.3701  0.3397  0.1730
12493TIP3    H158894   0.624   6.023  13.417 -0.2012 -1.6772 -1.3234
12493TIP3    H258895   0.506   6.032  13.322 -0.6809  1.2643 -0.5495
12494TIP3   OH258896   5.502   2.737  13.141 -0.2709 -0.1213  0.0020
12494TIP3    H158897   5.503   2.776  13.054 -0.0335 -2.1315 -0.9479
12494TIP3    H258898   5.588   2.698  13.152 -0.1270  0.5260  1.3589
12495TIP3   OH258899   3.521   4.598   5.276 -0.2216  0.2824  0.1735
12495TIP3    H158900   3.483   4.552   5.351  1.3303 -2.3924 -0.5351
12495TIP3    H258901   3.467   4.677   5.266 -1.7506 -0.3030  2.7874
12496TIP3   OH258902   3.322   1.108   1.871  0.3736 -0.0947  0.0900
12496TIP3    H158903   3.304   1.038   1.934 -0.1835 -0.2621 -0.2441
12496TIP3    H258904   3.260   1.092   1.800 -0.0300  0.9689  0.1870
12497TIP3   OH258905   4.213   0.965   4.159  0.3597 -0.1741  0.3112
12497TIP3    H158906   4.157   1.042   4.160 -0.3296 -0.6665  0.5188
12497TIP3    H258907   4.166   0.901   4.106  2.2014  0.4460 -2.2961
12498TIP3   OH258908   4.979   0.202  15.893  0.0563  0.1206  0.2583
12498TIP3    H158909   4.935   0.191  15.809  0.2984  1.3512 -0.0526
12498TIP3    H258910   4.919   0.166  15.957  0.1139 -1.3731 -0.4866
12499TIP3   OH258911   5.644   4.908  16.799  0.2252 -0.0018  0.3335
12499TIP3    H158912   5.738   4.900  16.819  0.7599  3.1227 -0.3436
12499TIP3    H258913   5.605   4.943  16.879 -0.0449  0.2409  0.0985
12500TIP3   OH258914   4.485   4.711  12.400 -0.7063 -0.0521  0.4580
12500TIP3    H158915   4.523   4.799  12.392  2.1024 -1.2853 -1.4603
12500TIP3    H258916   4.442   4.697  12.316  2.7053 -1.9956 -1.1661
12501TIP3   OH258917   2.071   6.240   2.895  0.1858 -0.4244 -0.1758
12501TIP3    H158918   2.054   6.334   2.899  0.3680 -0.4248  1.4789
12501TIP3    H258919   1.985   6.201   2.881 -0.3105 -0.1031  1.6771
12502TIP3   OH258920   1.136   1.977  13.225  0.0195 -0.3898 -0.0493
12502TIP3    H158921   1.071   1.906  13.220  1.9845 -2.3754  0.8055
12502TIP3    H258922   1.220   1.931  13.229  1.5420  2.0796 -1.5000
12503TIP3   OH258923   2.157   5.894   5.970  0.1624 -0.2564 -0.9143
12503TIP3    H158924   2.114   5.897   5.884 -0.4652  0.5652 -0.5889
12503TIP3    H258925   2.123   5.970   6.016  2.6311  0.9371 -0.9266
12504TIP3   OH258926   2.994   2.497  16.592  0.1168 -0.1552  0.0497
12504TIP3    H158927   2.997   2.584  16.631  1.9612  0.6502 -1.7270
12504TIP3    H258928   2.902   2.484  16.570 -0.2784  1.1009  0.8289
12505TIP3   OH258929   1.613   0.406   6.118  0.4370 -0.4689 -0.3389
12505TIP3    H158930   1.667   0.387   6.195 -0.1028  2.2357  0.8271
12505TIP3    H258931   1.610   0.501   6.114 -2.0141 -0.5166 -1.9784
12506TIP3   OH258932   0.869   3.069  15.515  0.5577 -0.7069 -0.2077
12506TIP3    H158933   0.960   3.051  15.489  0.5742 -0.2677 -0.4594
12506TIP3    H258934   0.876   3.141  15.577  0.3416 -0.3459 -0.5983
12507TIP3   OH258935   4.650   3.980   3.044 -0.2909 -0.0044 -0.4283
12507TIP3    H158936   4.582   3.918   3.067 -1.8243  1.3036 -1.2314
12507TIP3    H258937   4.683   3.950   2.959 -0.2706 -0.2996 -0.3177
12508TIP3   OH258938   4.202   3.705   5.713  0.2818 -0.5480  0.0271
12508TIP3    H158939   4.177   3.619   5.747  0.4487  0.4679  2.9173
12508TIP3    H258940   4.297   3.700   5.702  0.1344 -1.1386 -1.2285
12509TIP3   OH258941   1.013   2.392   1.514 -0.7862  0.9587  0.5410
12509TIP3    H158942   1.020   2.366   1.606 -1.0985 -0.7133  0.1293
12509TIP3    H258943   1.101   2.378   1.479 -0.5302  2.1091  0.6855
12510TIP3   OH258944   4.508   3.084   0.247 -0.7684 -0.7798  0.3664
12510TIP3    H158945   4.503   2.992   0.273  0.9338 -0.9978  0.0493
12510TIP3    H258946   4.494   3.082   0.152 -0.6817 -0.7247  0.3525
12511TIP3   OH258947   3.730   5.982   0.731 -0.2125 -0.2159 -0.3326
12511TIP3    H158948   3.711   6.017   0.644  0.3589 -1.2034 -0.8762
12511TIP3    H258949   3.703   5.890   0.726  1.5168 -0.7691 -0.0725
12512TIP3   OH258950   5.504   1.906   5.187 -0.1404 -0.5040  0.3759
12512TIP3    H158951   5.438   1.968   5.217 -0.8179 -1.3448  0.6380
12512TIP3    H258952   5.582   1.960   5.172 -0.4112  0.2506  1.5942
12513TIP3   OH258953   6.281   0.809  11.062  0.1914 -0.3509  0.7304
12513TIP3    H158954   6.303   0.721  11.030 -0.1688 -0.3262  0.4099
12513TIP3    H258955   6.345   0.867  11.021  0.3016 -0.4368  0.7806
12514TIP3   OH258956   4.224   5.825  15.003 -0.0102 -0.3499 -0.5038
12514TIP3    H158957   4.155   5.877  15.043  0.5689 -0.9004  1.3165
12514TIP3    H258958   4.299   5.883  14.998  0.0310 -0.3993 -0.4542
12515TIP3   OH258959   4.458   1.773  16.382  0.0250 -0.4286  0.1529
12515TIP3    H158960   4.433   1.850  16.330  0.5220 -1.3047 -1.4499
12515TIP3    H258961   4.548   1.790  16.409  0.7948 -1.1560 -1.7308
12516TIP3   OH258962   2.351   6.339  16.005  0.3879 -0.2593  0.1100
12516TIP3    H158963   2.312   6.374  16.085  1.5776  0.8847  0.2224
12516TIP3    H258964   2.324   6.247  16.003 -0.1983 -0.1383  1.4673
12517TIP3   OH258965   1.748   3.898  11.882  0.1349 -0.7839 -0.2225
12517TIP3    H158966   1.665   3.851  11.894  0.3387 -1.1779 -0.3349
12517TIP3    H258967   1.725   3.970  11.823 -0.2770 -0.4641  0.3210
12518TIP3   OH258968   0.782   0.940   5.751 -0.1914 -0.0622 -0.1722
12518TIP3    H158969   0.818   1.027   5.766 -0.8047 -0.0378  1.4518
12518TIP3    H258970   0.689   0.955   5.735 -0.1132 -0.3487 -0.9063
12519TIP3   OH258971   4.818   2.726  15.107 -0.0369  0.0078  0.1073
12519TIP3    H158972   4.739   2.692  15.064 -1.5006  1.9027  1.0911
12519TIP3    H258973   4.859   2.781  15.041 -0.7694  0.7373  0.2392
12520TIP3   OH258974   1.286   1.408  12.257  0.0256  0.1250 -0.3122
12520TIP3    H158975   1.217   1.392  12.192 -1.3800  1.6950  0.6857
12520TIP3    H258976   1.359   1.442  12.206 -0.9133  0.9670 -1.1594
12521TIP3   OH258977   2.361   4.741  13.960  0.1031  0.3358  0.0852
12521TIP3    H158978   2.378   4.828  13.923 -0.3149  0.5320  0.3447
12521TIP3    H258979   2.402   4.743  14.047 -0.4037  0.4810  0.3267
12522TIP3   OH258980   4.172   0.510   3.310 -0.2969 -0.6957  0.4153
12522TIP3    H158981   4.134   0.540   3.227 -0.9623 -1.4178  0.4416
12522TIP3    H258982   4.129   0.426   3.327 -2.3461  0.7077  2.9354
12523TIP3   OH258983   1.469   5.980  16.729  0.4402  0.1426  0.2043
12523TIP3    H158984   1.397   5.918  16.722  0.7862 -0.1621 -0.9369
12523TIP3    H258985   1.546   5.926  16.745  0.7275  0.2623 -0.6839
12524TIP3   OH258986   3.122   1.037   5.486 -0.2625 -0.9197  0.2984
12524TIP3    H158987   3.206   1.029   5.532 -0.1690 -0.7815  0.1514
12524TIP3    H258988   3.133   0.985   5.407 -0.6536 -1.7060  0.7518
12525TIP3   OH258989   1.903   0.713  16.294 -0.5387 -0.4063 -0.6706
12525TIP3    H158990   1.989   0.755  16.306  0.1265 -2.1939  1.8443
12525TIP3    H258991   1.864   0.714  16.382 -2.1846 -1.4893 -1.3447
12526TIP3   OH258992   5.126   0.940   2.954 -0.0918  0.1126  0.0699
12526TIP3    H158993   5.071   0.993   3.012 -0.6580  1.6536 -1.7743
12526TIP3    H258994   5.067   0.913   2.883  0.8109 -0.8682 -0.3338
12527TIP3   OH258995   4.435   4.387  11.989  0.0201 -0.6318 -0.1575
12527TIP3    H158996   4.377   4.311  11.987 -0.2349 -0.5755  2.3290
12527TIP3    H258997   4.518   4.354  11.953 -0.3833 -1.8131 -0.0514
12528TIP3   OH258998   0.768   1.087  13.981  0.7670  0.0929 -0.1458
12528TIP3    H158999   0.767   0.992  13.990 -1.0315  0.1004 -0.0496
12528TIP3    H259000   0.807   1.102  13.894  2.1340 -0.6480  0.3089
12529TIP3   OH259001   2.244   6.644   6.011 -0.5882 -0.1907 -0.3386
12529TIP3    H159002   2.192   6.569   6.038  1.2101 -1.1133  0.7077
12529TIP3    H259003   2.317   6.647   6.072 -0.1068  1.8743 -0.9192
12530TIP3   OH259004   1.686   0.003  10.446 -0.0945  0.1739  0.1777
12530TIP3    H159005   1.678   0.088  10.402  1.2485  0.3414  0.2161
12530TIP3    H259006   1.596  -0.023  10.465 -0.5238  1.5434  0.0865
12531TIP3   OH259007   0.600   6.733   4.788  0.5053  0.1335  0.4235
12531TIP3    H159008   0.695   6.734   4.798  1.0948  1.6863 -3.5411
12531TIP3    H259009   0.576   6.826   4.782 -1.1860 -0.2647  0.7134
12532TIP3   OH259010   3.814   3.943  15.815  0.1282  0.3066  0.3722
12532TIP3    H159011   3.788   4.012  15.754  1.2102  2.4328  2.1598
12532TIP3    H259012   3.756   3.956  15.891  1.1959  0.1025  1.2377
12533TIP3   OH259013   5.238   1.426   2.791  0.3030 -0.3996  0.4389
12533TIP3    H159014   5.315   1.448   2.739 -1.1187  1.3937 -1.0513
12533TIP3    H259015   5.240   1.330   2.798  3.1821 -0.3537  1.3983
12534TIP3   OH259016   0.646   0.115   2.758  0.0288 -0.0279 -0.3737
12534TIP3    H159017   0.666   0.030   2.721 -1.3412 -0.1050 -1.0093
12534TIP3    H259018   0.647   0.101   2.853  0.4332 -0.5900 -0.4574
12535TIP3   OH259019   3.234   5.197  14.447 -0.1835 -1.1385 -0.1405
12535TIP3    H159020   3.142   5.222  14.433 -0.4190 -1.3937  0.8740
12535TIP3    H259021   3.284   5.267  14.405 -0.8442 -0.5584  0.0142
12536TIP3   OH259022   4.190   4.405  11.813  0.1521 -0.1454 -0.3446
12536TIP3    H159023   4.139   4.329  11.783  0.6038 -0.4820 -0.2708
12536TIP3    H259024   4.281   4.379  11.802  0.3166  0.1714  0.2158
12537TIP3   OH259025   6.579   4.389   2.843 -0.4695  0.2421  0.4473
12537TIP3    H159026   6.605   4.303   2.875 -1.9902  1.0903  4.5860
12537TIP3    H259027   6.495   4.375   2.799 -0.6755 -0.3806  1.0336
12538TIP3   OH259028   5.371   0.419  13.538  0.0119  0.2669  0.1394
12538TIP3    H159029   5.356   0.491  13.476 -1.2412  0.7303  0.9426
12538TIP3    H259030   5.466   0.411  13.544  0.1658  1.8494  0.0234
12539TIP3   OH259031   0.370   4.469   0.568  0.6148  0.0694 -0.0333
12539TIP3    H159032   0.277   4.489   0.574  0.1219 -2.0268 -0.0105
12539TIP3    H259033   0.413   4.548   0.602 -1.2418 -0.1083  3.1339
12540TIP3   OH259034   5.966   3.247  14.724  0.1171  0.1255 -0.2634
12540TIP3    H159035   5.928   3.294  14.799 -0.5750  1.2840 -1.2930
12540TIP3    H259036   6.052   3.220  14.755  1.0314  3.0825  0.0784
12541TIP3   OH259037   0.945   5.900  12.920  0.1523 -1.0203  0.0276
12541TIP3    H159038   0.934   5.968  12.854  1.6040 -0.7124  0.0701
12541TIP3    H259039   0.978   5.947  12.997  0.1666 -1.6333  0.4041
12542TIP3   OH259040   1.273   4.449   3.235  0.4093  0.5024  0.1693
12542TIP3    H159041   1.294   4.445   3.142 -0.0983  1.1751  0.0140
12542TIP3    H259042   1.177   4.444   3.238  0.3779  1.1992  0.6005
12543TIP3   OH259043   3.269   0.658  11.536  0.1315  0.4133  0.0343
12543TIP3    H159044   3.282   0.698  11.622  0.8888  1.8050 -0.6815
12543TIP3    H259045   3.256   0.733  11.477  1.5327 -0.3992 -1.3750
12544TIP3   OH259046   2.869   4.720  11.347 -0.2808  0.0644 -0.1991
12544TIP3    H159047   2.775   4.724  11.362 -0.3713  0.5895 -0.8349
12544TIP3    H259048   2.907   4.768  11.421 -0.4699 -0.6355  0.3595
12545TIP3   OH259049   5.486   3.976   1.003  0.4278  0.4535  0.3305
12545TIP3    H159050   5.415   3.920   0.971 -0.8439  1.4969  1.2435
12545TIP3    H259051   5.474   3.979   1.098  3.3048 -1.4591  0.9156
12546TIP3   OH259052   5.803   4.384   6.814  0.2028 -0.0232  0.2911
12546TIP3    H159053   5.728   4.366   6.870  1.3031 -0.5680  1.6439
12546TIP3    H259054   5.821   4.477   6.827 -0.7964  0.3474 -0.7903
12547TIP3   OH259055   3.367   4.842   4.571 -0.0330 -0.2666  0.2037
12547TIP3    H159056   3.289   4.892   4.596  0.7610  0.2735  1.7277
12547TIP3    H259057   3.410   4.822   4.654  1.7051 -0.1515 -0.6328
12548TIP3   OH259058   5.111   6.279   5.441  0.0416  0.1837  0.1993
12548TIP3    H159059   5.078   6.196   5.407 -0.1558  0.0588  0.6954
12548TIP3    H259060   5.178   6.306   5.378 -2.4950  1.5757 -2.1231
12549TIP3   OH259061   3.680   6.241  12.568 -0.0872  0.2011 -0.1186
12549TIP3    H159062   3.701   6.286  12.650  1.8873 -1.0970  0.1521
12549TIP3    H259063   3.734   6.285  12.502 -0.0103 -0.1685 -0.3069
12550TIP3   OH259064   6.260   5.391  12.912 -0.3159 -0.0656  0.2055
12550TIP3    H159065   6.188   5.425  12.964 -1.0378 -0.5521 -0.4620
12550TIP3    H259066   6.237   5.300  12.894  0.3448 -0.1605 -0.2161
12551TIP3   OH259067   3.473   1.546  14.523 -0.2777 -0.4957  0.5716
12551TIP3    H159068   3.520   1.534  14.606  0.4841 -0.4028  0.1681
12551TIP3    H259069   3.540   1.532  14.456 -1.2988 -2.4900 -0.0978
12552TIP3   OH259070   5.822   1.496   0.779 -0.2278 -0.4374  0.4039
12552TIP3    H159071   5.883   1.452   0.719 -1.1982 -1.2509 -0.0160
12552TIP3    H259072   5.870   1.572   0.810  0.3593 -0.0451 -1.3331
12553TIP3   OH259073   1.269   4.308  16.126  0.0643 -0.5839 -0.0807
12553TIP3    H159074   1.342   4.348  16.078  0.0915  0.0892  0.5042
12553TIP3    H259075   1.195   4.314  16.066  0.2824 -0.4715 -0.3413
12554TIP3   OH259076   3.160   1.321   0.913 -0.2628 -1.1447  0.1576
12554TIP3    H159077   3.139   1.400   0.964 -0.4805  0.3575 -2.1462
12554TIP3    H259078   3.197   1.354   0.831 -0.3565 -3.4564 -0.8849
12555TIP3   OH259079   4.299   1.985   2.145  0.0113 -0.1462 -0.2473
12555TIP3    H159080   4.257   2.071   2.151  1.2886  0.6749 -1.9703
12555TIP3    H259081   4.348   1.989   2.063  1.4791 -1.9195  0.4901
12556TIP3   OH259082   6.647   5.799  16.458 -0.1228  0.3902 -0.3106
12556TIP3    H159083   6.664   5.840  16.373  0.4447  0.5886 -0.1119
12556TIP3    H259084   6.574   5.849  16.495 -0.7732 -0.0845 -0.9338
12557TIP3   OH259085   6.466   5.717   4.409 -0.0093  0.4155 -0.1222
12557TIP3    H159086   6.414   5.652   4.457 -1.1743  2.4809  1.5670
12557TIP3    H259087   6.447   5.700   4.317 -0.9357 -1.0679  0.3106
12558TIP3   OH259088   6.256   4.450   5.056 -0.2416 -0.4383  0.3984
12558TIP3    H159089   6.252   4.437   4.961 -2.0800  0.4925  0.3048
12558TIP3    H259090   6.172   4.419   5.088 -0.2862  0.7642  1.5147
12559TIP3   OH259091   3.538   2.690  12.713 -0.0612  0.2766  0.2610
12559TIP3    H159092   3.608   2.754  12.723 -0.7055  0.7940  1.6937
12559TIP3    H259093   3.552   2.652  12.626  3.2526 -1.1326  1.2338
12560TIP3   OH259094   5.770   6.751   3.676 -0.1495  0.3787 -0.3827
12560TIP3    H159095   5.815   6.708   3.750 -1.1252  1.0880  0.6594
12560TIP3    H259096   5.687   6.705   3.667 -1.7809  2.6452  1.5569
12561TIP3   OH259097   1.451   1.495  14.436  0.6286 -0.3064  0.4443
12561TIP3    H159098   1.447   1.460  14.524  0.8096 -2.0309 -0.2003
12561TIP3    H259099   1.518   1.443  14.391  0.7982  0.7611 -0.6240
12562TIP3   OH259100   6.233   0.976   3.011  0.0270  0.4684 -0.4733
12562TIP3    H159101   6.235   1.056   2.957 -1.9917 -0.7122 -2.4568
12562TIP3    H259102   6.270   0.908   2.954 -1.8424 -0.7476 -0.3205
12563TIP3   OH259103   2.929   1.014   4.238  0.3790  0.4348  0.0286
12563TIP3    H159104   2.882   1.060   4.308 -0.4748 -0.9936  0.4569
12563TIP3    H259105   2.891   1.047   4.157 -1.1043 -0.3892  0.3631
12564TIP3   OH259106   6.399   3.001  16.682  0.2094 -0.3061  0.5645
12564TIP3    H159107   6.377   3.034  16.769 -1.5108  1.3364 -0.4227
12564TIP3    H259108   6.353   2.918  16.675 -2.2137  0.9711  0.2057
12565TIP3   OH259109   0.843   4.417  13.929  0.3705 -0.1576  0.3278
12565TIP3    H159110   0.783   4.351  13.893  1.0546 -0.1847 -0.7994
12565TIP3    H259111   0.930   4.384  13.906  0.7565  0.6618  0.6029
12566TIP3   OH259112   4.253   2.897  16.842 -0.6503  0.3127 -0.0209
12566TIP3    H159113   4.231   2.960  16.912 -2.9152  0.1398 -0.4905
12566TIP3    H259114   4.322   2.941  16.792  0.4732  0.7857  1.8119
12567TIP3   OH259115   6.756   4.416   4.670 -0.0271 -0.0187  0.0234
12567TIP3    H159116   6.708   4.406   4.588  0.6745 -3.3187 -0.1474
12567TIP3    H259117   6.843   4.444   4.643  0.0020 -0.4357 -0.3403
12568TIP3   OH259118   1.962   3.052  12.766  0.3292 -0.0742 -0.2342
12568TIP3    H159119   1.968   2.998  12.687  0.3830  1.5604 -1.4026
12568TIP3    H259120   1.953   3.142  12.733  1.6482  0.8012  1.6302
12569TIP3   OH259121   2.018   5.856  16.443  0.0995 -0.6529 -0.1486
12569TIP3    H159122   1.959   5.931  16.444  0.7641 -0.1142 -0.0750
12569TIP3    H259123   2.034   5.840  16.349  3.4518  2.1961 -0.2930
12570TIP3   OH259124   2.161   3.729  11.923 -0.0895  0.4456  0.2253
12570TIP3    H159125   2.214   3.721  12.002  0.7691  0.3966 -0.3522
12570TIP3    H259126   2.096   3.796  11.945  1.6404  2.2168  0.1663
12571TIP3   OH259127   6.598   6.543  15.777  0.2887  0.8927  0.0560
12571TIP3    H159128   6.518   6.586  15.806  0.6841  0.8029  1.3311
12571TIP3    H259129   6.615   6.475  15.842  0.7917  0.1506 -0.8141
12572TIP3   OH259130   2.125   3.122   2.795 -0.0656 -0.2069  0.5045
12572TIP3    H159131   2.162   3.107   2.707  0.3328 -0.4153  0.7027
12572TIP3    H259132   2.171   3.199   2.827 -1.4107  0.8972 -0.1202
12573TIP3   OH259133   5.564   6.654   0.894 -0.3293  0.1126  0.2203
12573TIP3    H159134   5.472   6.629   0.893 -0.3147 -0.0362  1.4005
12573TIP3    H259135   5.571   6.723   0.828 -1.2729  0.0846  0.0831
12574TIP3   OH259136   2.051   3.105  15.939  0.4100  0.2303  0.0572
12574TIP3    H159137   1.986   3.101  16.009 -1.9590  0.1858 -2.0185
12574TIP3    H259138   2.134   3.123  15.984 -1.1278  1.0720  2.7543
12575TIP3   OH259139   3.238   1.649   5.405  0.0484 -0.1852 -0.0052
12575TIP3    H159140   3.166   1.588   5.392  0.7653 -0.8710 -0.9279
12575TIP3    H259141   3.210   1.704   5.478 -1.2244 -0.6913 -0.0827
12576TIP3   OH259142   3.721   6.376  10.560 -0.2536 -0.0133  0.3922
12576TIP3    H159143   3.729   6.469  10.579  3.1646 -0.3183  0.9144
12576TIP3    H259144   3.658   6.344  10.624  0.3782  1.5148  1.8562
12577TIP3   OH259145   2.392   4.424   0.742 -0.4848 -0.2311 -0.3124
12577TIP3    H159146   2.480   4.439   0.709 -0.7112  1.1828 -0.3239
12577TIP3    H259147   2.404   4.398   0.833 -0.0962  1.2299  0.0721
12578TIP3   OH259148   6.717   4.970  13.004 -0.1033 -0.0200 -0.3643
12578TIP3    H159149   6.720   5.035  12.934 -0.3996 -2.2701 -2.5896
12578TIP3    H259150   6.797   4.918  12.994 -0.8184 -1.2543  0.0621
12579TIP3   OH259151   5.810   0.552   1.571  0.6037 -0.0102 -0.7153
12579TIP3    H159152   5.886   0.606   1.548  0.3081 -0.0123 -1.7687
12579TIP3    H259153   5.735   0.609   1.558  0.3664 -0.3104 -0.6673
12580TIP3   OH259154   2.693   2.238   2.303 -0.8567  0.1751 -0.0604
12580TIP3    H159155   2.682   2.333   2.314 -0.0386  0.0728  1.9535
12580TIP3    H259156   2.707   2.227   2.209 -0.4960  2.1086 -0.2777
12581TIP3   OH259157   4.954   5.451  14.690 -0.3051  0.0239  0.0534
12581TIP3    H159158   4.914   5.374  14.650 -1.7973  1.4365 -1.3316
12581TIP3    H259159   5.038   5.420  14.724  1.1763 -1.3216 -4.2809
12582TIP3   OH259160   2.749   5.381   4.031  0.4536  0.2049  0.0742
12582TIP3    H159161   2.711   5.301   3.994 -0.1282 -0.2419  1.5848
12582TIP3    H259162   2.834   5.355   4.065  0.6090  0.4239 -0.1352
12583TIP3   OH259163   6.222   6.323   2.395  0.1896 -0.4150 -0.0133
12583TIP3    H159164   6.134   6.351   2.373  0.6942  1.3098 -0.0055
12583TIP3    H259165   6.273   6.340   2.316  0.4230 -1.9398 -0.2157
12584TIP3   OH259166   3.247   6.456  14.038  0.2772 -0.0473  0.3953
12584TIP3    H159167   3.257   6.484  14.129  1.1891 -1.1135  0.6449
12584TIP3    H259168   3.234   6.362  14.043 -2.4941  0.2253 -0.4412
12585TIP3   OH259169   3.873   3.993  16.892  0.1317  0.2536 -0.4682
12585TIP3    H159170   3.892   3.912  16.939 -1.1204  0.2918  0.1520
12585TIP3    H259171   3.954   4.044  16.897 -0.0409  0.4146  2.0336
12586TIP3   OH259172   2.023   0.748  12.725  0.5794 -0.2587 -0.2491
12586TIP3    H159173   2.008   0.822  12.784  0.0408 -0.1757 -0.4872
12586TIP3    H259174   1.989   0.777  12.641 -1.6905 -1.5721  0.1507
12587TIP3   OH259175   2.513   6.407   3.162 -0.0065 -0.1468 -0.5938
12587TIP3    H159176   2.536   6.315   3.149  2.7504  0.5732 -1.5155
12587TIP3    H259177   2.447   6.425   3.095 -0.8951 -1.5146 -0.1323
12588TIP3   OH259178   6.057   2.020   5.401 -0.2434 -0.2554  0.1230
12588TIP3    H159179   6.126   2.074   5.440 -0.8130  1.1661 -0.7603
12588TIP3    H259180   6.094   1.988   5.319  0.4876 -2.1850  1.1397
12589TIP3   OH259181   4.516   6.262  11.335  0.7915  0.6754 -0.0747
12589TIP3    H159182   4.436   6.280  11.286  1.0621  0.6383 -0.5363
12589TIP3    H259183   4.568   6.342  11.328  1.6787 -0.0031 -1.5143
12590TIP3   OH259184   0.133   1.960   1.782 -0.5607 -0.2806  0.0342
12590TIP3    H159185   0.186   1.882   1.769 -1.3357 -0.9900  0.9604
12590TIP3    H259186   0.173   2.027   1.725  0.6512 -1.0827 -0.0805
12591TIP3   OH259187   6.058   2.580   1.681 -0.1921 -0.4608 -0.4173
12591TIP3    H159188   6.032   2.561   1.771  0.9746 -1.6144 -0.3042
12591TIP3    H259189   6.000   2.526   1.627 -0.4253 -0.2923 -0.3390
12592TIP3   OH259190   1.161   5.167   4.478 -0.5576 -0.4428 -0.4728
12592TIP3    H159191   1.124   5.244   4.436 -3.2374 -1.4378 -0.1679
12592TIP3    H259192   1.129   5.093   4.425  1.1110 -1.4244 -0.1965
12593TIP3   OH259193   5.686   6.010  14.670  0.2902  0.7467 -0.1633
12593TIP3    H159194   5.682   5.916  14.688  1.1974  0.4104 -1.5195
12593TIP3    H259195   5.775   6.036  14.695 -0.2980  1.5122  1.2458
12594TIP3   OH259196   0.660   6.644  16.383  0.3952  0.0813  0.3056
12594TIP3    H159197   0.652   6.735  16.410 -0.1474 -0.3375  1.6775
12594TIP3    H259198   0.739   6.642  16.329  0.6709  1.2851  0.6227
12595TIP3   OH259199   6.524   4.007   3.706  0.0881 -0.1058  0.0925
12595TIP3    H159200   6.578   4.031   3.631  0.8304  1.3011  1.0325
12595TIP3    H259201   6.584   3.961   3.765 -0.2497 -0.3316  0.2650
12596TIP3   OH259202   3.191   3.719  17.115  0.0179  0.5620 -0.3956
12596TIP3    H159203   3.196   3.811  17.144 -0.2756  0.5552 -0.3202
12596TIP3    H259204   3.160   3.725  17.025 -0.7852  0.5032 -0.1323
12597TIP3   OH259205   6.124   1.392   6.506 -0.2745 -0.0007  0.4534
12597TIP3    H159206   6.168   1.315   6.540  0.0957 -0.1777 -0.3958
12597TIP3    H259207   6.164   1.406   6.420 -0.9734  0.5995  0.2175
12598TIP3   OH259208   1.469   2.284  12.897  0.0554 -0.4378 -0.3546
12598TIP3    H159209   1.411   2.210  12.917 -0.8153  0.7490  1.7849
12598TIP3    H259210   1.410   2.360  12.891  1.3389  1.0809  3.3462
12599TIP3   OH259211   6.219   3.306   1.079  0.2132  0.3581 -0.0415
12599TIP3    H159212   6.241   3.348   0.996  0.2979 -1.8586 -1.2111
12599TIP3    H259213   6.304   3.283   1.118  0.1508  0.4017  0.1214
12600TIP3   OH259214   2.841   3.919   5.564 -0.0591 -0.1098 -0.1285
12600TIP3    H159215   2.888   3.970   5.630  0.6545  0.4164 -1.0229
12600TIP3    H259216   2.896   3.925   5.486 -1.3993  0.1488 -1.0838
12601TIP3   OH259217   4.713   1.457  11.795 -0.0973 -0.7993 -0.5745
12601TIP3    H159218   4.640   1.487  11.741  0.6149  2.1101 -0.0762
12601TIP3    H259219   4.736   1.372  11.757 -1.4379 -0.1830 -3.0320
12602TIP3   OH259220   2.973   2.865   1.238 -0.1300  0.8077  0.1926
12602TIP3    H159221   3.015   2.792   1.192 -0.4445  1.5822 -1.4006
12602TIP3    H259222   3.040   2.898   1.297 -0.0391 -0.8655  1.0788
12603TIP3   OH259223   6.645   5.611  14.405  0.6854  0.1949 -0.3102
12603TIP3    H159224   6.586   5.613  14.480  0.3678  1.2748 -0.5617
12603TIP3    H259225   6.588   5.627  14.330  1.5587  4.2863 -0.3270
12604TIP3   OH259226   0.216   0.620   1.780 -0.0875  0.0548  0.8288
12604TIP3    H159227   0.299   0.591   1.743 -0.0513  0.9933  0.1347
12604TIP3    H259228   0.159   0.543   1.775 -0.4857  0.4015 -2.3712
12605TIP3   OH259229   2.833   1.821   4.523 -0.0053  0.2111  0.2824
12605TIP3    H159230   2.798   1.910   4.519  0.1143  0.2193 -1.3618
12605TIP3    H259231   2.757   1.767   4.547 -0.4309  0.5990 -0.1583
12606TIP3   OH259232   4.035   4.099   1.681  0.7816 -0.4360 -0.5114
12606TIP3    H159233   3.943   4.076   1.685 -0.0057  2.1936 -1.3856
12606TIP3    H259234   4.072   4.067   1.763 -1.0648 -0.8627  0.1891
12607TIP3   OH259235   0.258   5.630   2.657  0.4182  0.1993  0.0987
12607TIP3    H159236   0.212   5.587   2.585  1.5472  0.0422 -0.5545
12607TIP3    H259237   0.192   5.639   2.726 -1.3598  2.5070 -1.7533
12608TIP3   OH259238   3.581   5.244  16.346  0.3902  0.0884 -0.4156
12608TIP3    H159239   3.540   5.327  16.370  0.6401  0.2111 -0.4173
12608TIP3    H259240   3.555   5.184  16.415 -1.7217 -0.4451 -1.5779
12609TIP3   OH259241   6.112   3.879   4.981 -0.0079  0.4534  0.1800
12609TIP3    H159242   6.153   3.840   5.058  0.4926  0.6403  0.0132
12609TIP3    H259243   6.140   3.823   4.908  0.8768  1.2227 -0.0870
12610TIP3   OH259244   5.482   1.469  14.250 -0.1059 -0.1779 -0.1301
12610TIP3    H159245   5.455   1.435  14.335 -4.7829  1.0772 -0.8632
12610TIP3    H259246   5.479   1.394  14.191 -0.0229 -0.4238  0.1783
12611TIP3   OH259247   2.322   1.903  14.583  0.2122 -0.0473 -0.4414
12611TIP3    H159248   2.248   1.889  14.642 -0.5831  2.2703 -0.7790
12611TIP3    H259249   2.297   1.857  14.503 -0.1667 -0.5377 -0.0496
12612TIP3   OH259250   6.502   4.376  16.319  0.3653 -0.2702 -0.2920
12612TIP3    H159251   6.516   4.471  16.318  1.6474 -0.4106  1.0452
12612TIP3    H259252   6.560   4.344  16.389 -1.0114 -1.8927  0.1643
12613TIP3   OH259253   5.938   2.502   3.745  0.0756 -0.4156  0.4194
12613TIP3    H159254   5.864   2.448   3.773  0.1456  0.4670  2.5561
12613TIP3    H259255   6.015   2.460   3.784  0.4057 -0.0453  0.1802
12614TIP3   OH259256   6.032   2.314   0.645  0.5939  0.2672  0.0838
12614TIP3    H159257   6.002   2.263   0.721 -0.8543 -0.3806 -0.8889
12614TIP3    H259258   6.075   2.249   0.589 -0.5058  0.2450 -0.7647
12615TIP3   OH259259   6.565   6.278  14.115 -0.1222  0.0168 -0.4694
12615TIP3    H159260   6.635   6.217  14.090 -1.4579 -1.6820 -0.3100
12615TIP3    H259261   6.539   6.249  14.202 -0.6152  1.0271 -0.2675
12616TIP3   OH259262   1.460   5.410   5.797 -0.0947  0.5677  0.2240
12616TIP3    H159263   1.479   5.444   5.709  0.9290  0.1825  0.2921
12616TIP3    H259264   1.544   5.410   5.842 -0.1514 -1.4185  0.4372
12617TIP3   OH259265   2.721   4.650  16.304 -0.4025 -0.6369 -0.3210
12617TIP3    H159266   2.700   4.611  16.219  0.7116 -0.2833 -0.7821
12617TIP3    H259267   2.817   4.646  16.308 -0.1493  2.5047 -0.6239
12618TIP3   OH259268   5.103   3.068  14.490  0.6518 -0.2608  0.0058
12618TIP3    H159269   5.062   3.141  14.537  0.4264 -1.8278  2.4354
12618TIP3    H259270   5.196   3.089  14.491  0.5281  0.3168  0.0903
12619TIP3   OH259271   4.656   4.415  15.135  0.0119 -0.0059  0.0274
12619TIP3    H159272   4.586   4.464  15.092  1.1364 -0.2460 -2.2188
12619TIP3    H259273   4.613   4.372  15.209 -2.5746 -1.3638 -2.0986
12620TIP3   OH259274   3.596   5.618  10.663 -0.5760  0.4071 -0.3774
12620TIP3    H159275   3.535   5.659  10.724  1.1153 -1.0066  2.4786
12620TIP3    H259276   3.545   5.604  10.583 -3.4932  0.7112  1.3049
12621TIP3   OH259277   1.520   5.039  15.699 -0.5325  0.3807 -0.1915
12621TIP3    H159278   1.574   5.061  15.775 -0.9016 -0.6812  0.4001
12621TIP3    H259279   1.461   4.970  15.730  0.6920 -1.5739 -1.9698
12622TIP3   OH259280   0.745   0.952  15.520  0.1516  0.4282 -0.3806
12622TIP3    H159281   0.834   0.987  15.517  1.5044 -2.3831  2.1966
12622TIP3    H259282   0.710   0.983  15.603 -0.9871  0.7797 -0.9737
12623TIP3   OH259283   5.543   1.097  16.316  0.3783  0.3584  0.5793
12623TIP3    H159284   5.520   1.090  16.224  0.2693  4.1455  0.1786
12623TIP3    H259285   5.638   1.113  16.316  0.5570 -0.5912  1.2343
12624TIP3   OH259286   1.080   2.609  13.550  0.7399 -0.3852  0.1618
12624TIP3    H159287   1.163   2.656  13.544  1.1629 -1.1454  0.0437
12624TIP3    H259288   1.045   2.610  13.460 -1.0010  2.7851  0.7188
12625TIP3   OH259289   0.870   0.262  16.249 -0.0290 -0.0909 -0.0323
12625TIP3    H159290   0.954   0.249  16.294  0.1530  1.8417  0.2782
12625TIP3    H259291   0.809   0.203  16.293  0.8488 -0.4975  0.6644
12626TIP3   OH259292   4.098   4.478  15.557  0.1050  0.2785 -0.3412
12626TIP3    H159293   4.107   4.383  15.543  2.2124  0.4251 -0.3825
12626TIP3    H259294   4.180   4.503  15.599  0.2437  2.3309 -1.7346
12627TIP3   OH259295   5.932   5.404  14.749  0.0988  0.2155 -0.8666
12627TIP3    H159296   5.857   5.415  14.808 -1.2461 -0.5192 -2.3621
12627TIP3    H259297   5.903   5.443  14.667  0.0242 -2.9179 -2.4840
12628TIP3   OH259298   2.384   6.575   4.474  0.3167 -0.0491 -0.3006
12628TIP3    H159299   2.447   6.506   4.492  0.6937  0.0801 -1.0655
12628TIP3    H259300   2.307   6.529   4.440  0.5548 -0.1115 -0.7776
12629TIP3   OH259301   4.867   1.572   3.339 -0.0490  0.3858 -0.1864
12629TIP3    H159302   4.845   1.663   3.360 -2.0848 -0.0022 -0.3496
12629TIP3    H259303   4.878   1.571   3.244 -1.3742  0.2746 -0.3715
12630TIP3   OH259304   0.422   2.193   6.679  0.3518 -0.1674 -0.5383
12630TIP3    H159305   0.348   2.188   6.619  1.7269  0.5585 -2.4070
12630TIP3    H259306   0.406   2.271   6.731  1.2049  1.7798 -3.0319
12631TIP3   OH259307   5.599   3.303  14.799 -0.1243 -0.0325 -0.2095
12631TIP3    H159308   5.681   3.344  14.826 -0.9937  1.4743  0.2528
12631TIP3    H259309   5.611   3.210  14.819  1.1521  0.2887  0.6488
12632TIP3   OH259310   0.360   6.508  12.501  0.3447  0.0627 -0.7996
12632TIP3    H159311   0.271   6.480  12.524  1.6601 -2.8248  1.4630
12632TIP3    H259312   0.350   6.552  12.417 -3.0093 -1.4648 -1.3796
12633TIP3   OH259313   1.728   1.149  13.229 -0.2132  0.2079 -0.1599
12633TIP3    H159314   1.667   1.079  13.205  0.7715 -0.8016  0.1867
12633TIP3    H259315   1.708   1.220  13.169  0.5294 -1.3462 -2.3551
12634TIP3   OH259316   0.420   3.727  11.780 -0.3274  0.2565 -0.1008
12634TIP3    H159317   0.433   3.801  11.839  2.2442  0.2393 -0.5116
12634TIP3    H259318   0.327   3.730  11.757 -0.5342  2.6645  0.7826
12635TIP3   OH259319   2.157   3.045   3.625 -0.4258  0.1993 -0.2995
12635TIP3    H159320   2.100   3.122   3.629 -1.8206 -0.8398  1.9773
12635TIP3    H259321   2.242   3.077   3.657 -0.8002  0.9533 -0.0246
12636TIP3   OH259322   1.640   3.992  13.159 -0.5171  0.1968  0.4256
12636TIP3    H159323   1.593   4.075  13.169 -0.2951  0.1120  2.9058
12636TIP3    H259324   1.732   4.019  13.152 -0.6199  0.2261 -0.9300
12637TIP3   OH259325   0.942   1.837  10.656 -0.2070 -0.5088 -0.0645
12637TIP3    H159326   0.893   1.908  10.697  0.2850 -1.2012  1.8059
12637TIP3    H259327   1.005   1.881  10.599 -1.7453  0.4386 -1.0923
12638TIP3   OH259328   2.202   3.024   3.131 -0.0429 -0.5649 -0.3568
12638TIP3    H159329   2.215   2.968   3.208 -0.2577 -1.3010 -0.8422
12638TIP3    H259330   2.164   3.105   3.166  0.0304 -0.8213  0.3293
12639TIP3   OH259331   6.073   0.483  14.697 -0.0839  0.2647  0.1293
12639TIP3    H159332   6.079   0.542  14.771  1.5006  1.3538 -0.7976
12639TIP3    H259333   5.980   0.464  14.688 -0.4924  1.6232  1.2195
12640TIP3   OH259334   5.424   3.915   5.713 -0.5001  0.3978 -0.5854
12640TIP3    H159335   5.394   4.002   5.739  0.0942  0.3217  0.4227
12640TIP3    H259336   5.425   3.918   5.618 -2.6224  0.7448 -0.6426
12641TIP3   OH259337   2.227   2.548   5.451  0.6375 -0.2013  0.4631
12641TIP3    H159338   2.314   2.549   5.492 -0.0123 -1.5390  2.0082
12641TIP3    H259339   2.211   2.455   5.433  0.5270  0.2596 -2.1208
12642TIP3   OH259340   0.811   3.926  14.797 -0.0384  0.6497 -0.1017
12642TIP3    H159341   0.794   4.020  14.798  1.5319  0.9526  0.7111
12642TIP3    H259342   0.756   3.893  14.726 -0.5288  2.1836 -0.4785
12643TIP3   OH259343   4.308   1.749  12.929  0.4729 -0.8298 -0.2528
12643TIP3    H159344   4.398   1.779  12.914  0.1554 -0.7624 -2.2168
12643TIP3    H259345   4.311   1.655  12.918 -0.1296 -0.5995 -3.0733
12644TIP3   OH259346   3.329   6.440  11.137 -0.6668 -0.3053  0.3678
12644TIP3    H159347   3.266   6.435  11.066 -0.4012  1.7101 -0.0813
12644TIP3    H259348   3.276   6.451  11.216 -0.9163  0.8982  0.0506
12645TIP3   OH259349   2.789   1.690   6.125 -0.0488  0.1270 -0.1181
12645TIP3    H159350   2.858   1.636   6.086  1.3135  1.2642  0.6122
12645TIP3    H259351   2.757   1.743   6.052  2.0980  1.8520  0.0921
12646TIP3   OH259352   5.336   2.473   0.881  0.5048  0.5699  0.0323
12646TIP3    H159353   5.337   2.397   0.823 -0.1480  1.5823 -1.3580
12646TIP3    H259354   5.295   2.442   0.962 -0.1489 -0.4417 -0.6751
12647TIP3   OH259355   2.415   4.090   1.890  0.3437 -0.1454 -0.2931
12647TIP3    H159356   2.383   4.066   1.803  0.4986 -1.0624 -0.1145
12647TIP3    H259357   2.443   4.181   1.881 -1.5849  0.4596 -0.6365
12648TIP3   OH259358   3.020   2.759   1.904  0.3849  0.2097 -0.0180
12648TIP3    H159359   3.081   2.780   1.974  0.0688 -1.6916  0.8706
12648TIP3    H259360   2.957   2.699   1.943 -0.8062  0.4365 -1.4873
12649TIP3   OH259361   4.248   0.813  15.257 -0.1122  0.5165  0.6164
12649TIP3    H159362   4.170   0.853  15.297  1.6614  1.3874  3.5161
12649TIP3    H259363   4.310   0.885  15.249  0.0306  0.1745 -3.0890
12650TIP3   OH259364   4.039   2.199   1.676 -0.3161 -0.6844  0.8073
12650TIP3    H159365   4.106   2.167   1.737 -1.1164 -1.6064  1.2357
12650TIP3    H259366   3.962   2.212   1.731 -0.3092  1.0551  0.4444
12651TIP3   OH259367   1.611   0.313  14.552  0.2953  0.1965  0.3091
12651TIP3    H159368   1.686   0.332  14.496  0.7237  1.5097  1.2887
12651TIP3    H259369   1.555   0.390  14.545 -1.8501 -1.4220 -1.7009
12652TIP3   OH259370   5.822   6.744  15.829 -0.4435 -0.0457 -0.2818
12652TIP3    H159371   5.868   6.765  15.748  1.7082 -1.4571  0.4581
12652TIP3    H259372   5.828   6.648  15.835  1.1449  0.1164  2.3738
12653TIP3   OH259373   2.131   1.992   3.361 -0.3503  0.7042 -0.3360
12653TIP3    H159374   2.220   1.956   3.358 -0.9491 -0.7586 -1.8789
12653TIP3    H259375   2.129   2.044   3.441  1.2985 -0.8173  0.7635
12654TIP3   OH259376   2.328   1.952  13.663  0.4860 -0.0867 -0.2480
12654TIP3    H159377   2.372   1.946  13.748 -0.6049  2.2669  0.5724
12654TIP3    H259378   2.239   1.923  13.680  0.5986 -0.8828 -0.9391
12655TIP3   OH259379   2.891   6.448  11.706 -0.2866  0.6243 -0.3661
12655TIP3    H159380   2.904   6.445  11.801 -0.5245 -0.9968 -0.3562
12655TIP3    H259381   2.942   6.523  11.678  1.7172 -0.2126  0.7875
12656TIP3   OH259382   5.993   6.236   2.945 -0.0791 -0.3567 -0.0124
12656TIP3    H159383   5.960   6.293   2.876 -0.1143 -1.3849 -0.8629
12656TIP3    H259384   5.938   6.158   2.940  1.3863 -1.4020 -0.3708
12657TIP3   OH259385   6.727   0.554   1.802  0.1723  0.2515  0.3941
12657TIP3    H159386   6.759   0.641   1.780  1.1852 -0.0249  0.7208
12657TIP3    H259387   6.728   0.551   1.897  2.5721 -0.9338  0.4085
12658TIP3   OH259388   5.020   5.341  13.663 -0.5408  0.0597 -0.3690
12658TIP3    H159389   5.054   5.329  13.574 -0.5387  1.5720 -0.6051
12658TIP3    H259390   4.940   5.288  13.665  0.2828 -1.2433 -0.7380
12659TIP3   OH259391   4.349   5.645  15.826  0.5664 -0.4063 -0.0713
12659TIP3    H159392   4.348   5.587  15.750 -0.8319  0.2753 -0.5885
12659TIP3    H259393   4.408   5.716  15.802  1.5011 -1.0761  0.1792
12660TIP3   OH259394   6.290   6.369  15.737  0.1822 -0.3563 -0.5890
12660TIP3    H159395   6.284   6.428  15.812  0.0092 -0.2210 -0.7087
12660TIP3    H259396   6.201   6.336  15.725  0.0610  0.1612 -1.1659
12661TIP3   OH259397   3.879   5.136  16.017  0.0917  1.2351 -0.1094
12661TIP3    H159398   3.821   5.081  16.070 -1.0872  2.4012 -0.1411
12661TIP3    H259399   3.946   5.076  15.984 -1.2504 -0.1995 -0.2831
12662TIP3   OH259400   1.547   1.211   2.782  0.1873  0.2090 -0.1213
12662TIP3    H159401   1.527   1.134   2.729 -1.3372  0.5319 -0.0666
12662TIP3    H259402   1.621   1.253   2.737  0.3093 -0.6799 -0.7706
12663TIP3   OH259403   0.577   4.361  13.801 -0.3125 -0.0686 -0.0102
12663TIP3    H159404   0.582   4.440  13.748 -0.5115  0.6047  0.9453
12663TIP3    H259405   0.483   4.348  13.814 -0.2445  0.4249  1.0943
12664TIP3   OH259406   5.917   5.276  15.283  0.1054 -0.1157  0.1032
12664TIP3    H159407   5.893   5.243  15.370  1.1253  0.5839  0.6620
12664TIP3    H259408   5.996   5.227  15.260  0.5636  0.5988  0.1335
12665TIP3   OH259409   0.861   6.251  14.262 -0.4171  0.0159  0.3691
12665TIP3    H159410   0.850   6.192  14.337  1.5035 -1.5503 -0.4845
12665TIP3    H259411   0.801   6.217  14.196  0.4452 -0.8261 -0.0034
12666TIP3   OH259412   0.576   2.729   0.456 -0.0773  0.3289 -0.7586
12666TIP3    H159413   0.586   2.723   0.361  2.2181  1.8971 -0.7108
12666TIP3    H259414   0.522   2.807   0.471 -1.3302 -0.5136 -0.7581
12667TIP3   OH259415   1.847   1.473   0.139  0.0488 -0.1586  0.4792
12667TIP3    H159416   1.860   1.424   0.057 -0.3355 -0.0064  0.3262
12667TIP3    H259417   1.767   1.436   0.177  1.1965 -1.4974  1.7154
12668TIP3   OH259418   3.601   2.426  11.226 -0.1116  0.1798 -0.0550
12668TIP3    H159419   3.669   2.369  11.191 -1.4806 -2.6325  1.5435
12668TIP3    H259420   3.622   2.433  11.319 -0.9859  0.8699  0.1032
12669TIP3   OH259421   3.814   6.752   1.138  0.6627  0.3015  0.3203
12669TIP3    H159422   3.740   6.726   1.082  0.8470 -2.7876  1.3488
12669TIP3    H259423   3.891   6.728   1.087  0.9556  1.4529  0.1905
12670TIP3   OH259424   5.700   3.465  13.724  0.2270  0.3572 -0.1523
12670TIP3    H159425   5.713   3.558  13.743 -0.9398  0.6787 -0.8754
12670TIP3    H259426   5.730   3.420  13.804 -0.3251  1.4223  0.6787
12671TIP3   OH259427   3.950   6.673  13.319 -0.6482  0.6353  0.1244
12671TIP3    H159428   3.928   6.583  13.293 -0.6222  0.1383  1.6672
12671TIP3    H259429   3.930   6.675  13.413  1.7498  1.4604  0.6829
12672TIP3   OH259430   5.506   2.950   3.440 -0.6154 -0.1842  0.3849
12672TIP3    H159431   5.470   2.869   3.405 -1.4872 -0.1862  1.2321
12672TIP3    H259432   5.501   2.939   3.535  0.4896  0.3346  0.5213
12673TIP3   OH259433   1.506   5.305   1.297  0.1972  0.2140 -0.4818
12673TIP3    H159434   1.582   5.327   1.349 -0.3419 -0.1242  0.4641
12673TIP3    H259435   1.542   5.273   1.214  1.0351  2.1573 -0.9162
12674TIP3   OH259436   2.180   6.280  10.897  0.1627  0.0526  0.1456
12674TIP3    H159437   2.149   6.194  10.926  1.2343 -0.8579 -1.2611
12674TIP3    H259438   2.136   6.293  10.813 -0.7433  1.3536  0.7989
12675TIP3   OH259439   2.732   0.963   1.034  0.2371  0.4454  0.2795
12675TIP3    H159440   2.763   0.896   0.974 -0.4442  0.2145  0.1733
12675TIP3    H259441   2.771   1.045   1.002 -0.9856  0.5100 -1.1565
12676TIP3   OH259442   3.385   0.404  11.906  0.8241  0.5432  0.3243
12676TIP3    H159443   3.480   0.410  11.895  0.7760  1.5134  0.4053
12676TIP3    H259444   3.373   0.358  11.989  1.2124 -0.4224 -0.1374
12677TIP3   OH259445   5.650   6.347   3.408 -0.4178 -0.3465 -0.0666
12677TIP3    H159446   5.734   6.306   3.428 -0.4295  0.1693  1.0976
12677TIP3    H259447   5.598   6.336   3.487 -1.4184 -0.5527 -0.7311
12678TIP3   OH259448   6.430   1.400   4.136  0.1118 -0.0081  0.3633
12678TIP3    H159449   6.509   1.397   4.190 -1.8592  1.4534  3.6248
12678TIP3    H259450   6.374   1.331   4.170 -0.9416  0.5120 -0.2398
12679TIP3   OH259451   5.556   2.890   4.642 -0.0187 -0.5003  0.2081
12679TIP3    H159452   5.536   2.936   4.560 -0.8025 -0.8006  0.2125
12679TIP3    H259453   5.483   2.913   4.700  2.1449  2.4180  2.0403
12680TIP3   OH259454   5.948   1.225  12.998  0.4057  0.0254  0.3730
12680TIP3    H159455   5.966   1.132  13.009  4.2866  0.4438 -1.0468
12680TIP3    H259456   5.943   1.237  12.903  1.9387  1.5280  0.4482
12681TIP3   OH259457   0.390   2.850   2.949  0.0215  0.7216  0.3743
12681TIP3    H159458   0.478   2.860   2.984  1.0496  1.7833 -2.2330
12681TIP3    H259459   0.397   2.779   2.884 -1.2639  0.2304  0.7263
12682TIP3   OH259460   0.541   2.734  13.947 -0.3128 -0.0987 -0.6318
12682TIP3    H159461   0.576   2.714  13.860 -0.6738 -1.8343 -0.4119
12682TIP3    H259462   0.606   2.792  13.986  0.9952 -1.1319 -1.2096
12683TIP3   OH259463   3.522   5.022  13.469  0.0221 -0.2973 -0.1459
12683TIP3    H159464   3.481   4.936  13.459  0.4028 -0.5214  0.1590
12683TIP3    H259465   3.603   5.004  13.517  0.1525  0.2203 -0.1657
12684TIP3   OH259466   1.777   2.519   2.905 -0.1133  0.3787 -0.6721
12684TIP3    H159467   1.726   2.595   2.934 -0.7678  0.1355 -1.1582
12684TIP3    H259468   1.852   2.517   2.964 -0.1799  1.3004 -0.5398
12685TIP3   OH259469   0.063   5.122  15.958 -0.7647  0.2260  0.2189
12685TIP3    H159470   0.004   5.195  15.975 -0.2406  0.8610 -0.5925
12685TIP3    H259471   0.050   5.102  15.865 -0.0230  0.0913  0.1384
12686TIP3   OH259472   4.128   1.774  15.171 -0.3226 -0.0611 -0.2224
12686TIP3    H159473   4.088   1.853  15.134 -3.3315 -0.2940  2.1211
12686TIP3    H259474   4.121   1.786  15.265  2.2733 -1.7037  0.2589
12687TIP3   OH259475   4.254   2.771   3.105  0.4981  0.0014  0.3926
12687TIP3    H159476   4.163   2.769   3.077  0.0090  2.6852  1.5106
12687TIP3    H259477   4.255   2.721   3.187  0.3029 -1.0370 -0.2276
12688TIP3   OH259478   3.815   4.978   6.240 -0.5656  0.0843  0.3809
12688TIP3    H159479   3.804   4.883   6.231  0.8507 -0.2393  1.5876
12688TIP3    H259480   3.863   5.004   6.161 -0.9962 -0.1997  0.0237
12689TIP3   OH259481   2.903   2.834  10.411  0.0514  0.2560 -0.3957
12689TIP3    H159482   2.821   2.881  10.397  0.2295  0.8317  0.4289
12689TIP3    H259483   2.879   2.759  10.466 -0.2153 -0.5977 -1.6297
12690TIP3   OH259484   0.922   1.285   1.469 -0.2328  0.7605  0.3405
12690TIP3    H159485   0.903   1.363   1.521  1.3903  0.5389  1.3062
12690TIP3    H259486   0.972   1.318   1.394  0.3685  0.6588  0.6974
12691TIP3   OH259487   2.516   3.999  12.360  0.6626 -0.3187  0.4646
12691TIP3    H159488   2.593   4.041  12.323  0.6781  0.9087  1.7757
12691TIP3    H259489   2.442   4.041  12.316  0.7118 -1.0986 -0.3908
12692TIP3   OH259490   2.948   4.987  17.032 -0.1586 -0.2042  0.5209
12692TIP3    H159491   2.888   4.973  16.959 -0.2063  1.2791  0.2518
12692TIP3    H259492   3.008   5.055  17.000  0.5450 -0.3806  1.4427
12693TIP3   OH259493   5.789   0.671  16.892 -0.1168  0.1295  0.0636
12693TIP3    H159494   5.708   0.638  16.852 -0.4160  1.2974 -0.3218
12693TIP3    H259495   5.761   0.710  16.975  0.3402 -1.2161  0.8807
12694TIP3   OH259496   4.638   6.729   1.615  0.1250  0.2054 -0.5448
12694TIP3    H159497   4.665   6.645   1.652 -1.9680  0.2705  1.2788
12694TIP3    H259498   4.697   6.742   1.540  1.5693 -2.0756  0.1062
12695TIP3   OH259499   0.980   0.449   5.896  0.3573 -0.2464  0.2389
12695TIP3    H159500   0.985   0.541   5.869 -1.0100 -0.6958 -1.7620
12695TIP3    H259501   0.967   0.452   5.991  3.9007  1.5003  0.8269
12696TIP3   OH259502   4.809   0.901   3.795  0.2768  0.4715 -0.4832
12696TIP3    H159503   4.900   0.927   3.782  0.0306  0.7365 -1.8412
12696TIP3    H259504   4.764   0.931   3.716 -0.3800 -2.4988 -1.3568
12697TIP3   OH259505   4.962   0.945  15.540 -0.2725 -0.4688 -0.1789
12697TIP3    H159506   4.963   0.938  15.445 -0.8589  0.4903 -0.2745
12697TIP3    H259507   4.889   1.005  15.559  0.4443  0.1184  0.8132
12698TIP3   OH259508   5.513   6.012  12.850  0.1430 -0.3159 -0.3779
12698TIP3    H159509   5.528   5.919  12.870 -0.0592 -0.0599  1.1082
12698TIP3    H259510   5.599   6.046  12.825  0.6279 -0.4984  0.9362
12699TIP3   OH259511   2.264   1.094  11.385  0.0751 -0.6500  0.2519
12699TIP3    H159512   2.205   1.157  11.344  3.8737  2.0560 -1.5800
12699TIP3    H259513   2.309   1.051  11.312  0.2038 -2.9253  1.5553
12700TIP3   OH259514   3.874   1.016   0.881  0.1302  0.0478  0.1252
12700TIP3    H159515   3.809   1.032   0.812 -0.2556 -0.8137  0.2777
12700TIP3    H259516   3.945   0.970   0.837  0.3056  0.3233  0.1159
12701TIP3   OH259517   3.957   3.801   5.813  0.2417 -0.3755  0.2937
12701TIP3    H159518   4.032   3.760   5.770 -0.1359 -0.6202 -0.1364
12701TIP3    H259519   3.985   3.891   5.828  0.6901 -0.5144  0.2958
12702TIP3   OH259520   6.260   1.823   4.421 -0.2804  0.5505  0.9942
12702TIP3    H159521   6.298   1.882   4.355 -0.4850  0.2198  0.5781
12702TIP3    H259522   6.165   1.828   4.405 -0.2682 -0.2992  0.6032
12703TIP3   OH259523   5.424   1.930  14.910  0.0139 -0.3869 -0.5560
12703TIP3    H159524   5.352   1.926  14.973  1.3152 -1.9856  0.9566
12703TIP3    H259525   5.384   1.908  14.826 -1.5264  0.3778 -0.0536
12704TIP3   OH259526   3.744   0.499  12.406  0.5232 -0.6565 -0.0187
12704TIP3    H159527   3.754   0.496  12.501  1.3216 -1.9067 -0.1226
12704TIP3    H259528   3.673   0.561  12.392 -0.1497 -1.0494  1.4370
12705TIP3   OH259529   2.602   2.566  12.659 -0.1349 -0.0770 -0.1412
12705TIP3    H159530   2.600   2.479  12.620 -0.0747 -0.0390 -0.2272
12705TIP3    H259531   2.675   2.610  12.616 -0.6654  0.2876 -0.6713
12706TIP3   OH259532   2.225   4.709   5.476 -0.8291 -0.1521 -0.4985
12706TIP3    H159533   2.176   4.760   5.541  1.2305  0.5670  0.5609
12706TIP3    H259534   2.207   4.618   5.499 -2.5589  0.0515 -0.8730
12707TIP3   OH259535   4.060   6.751  11.617  0.3140 -0.1625  0.0205
12707TIP3    H159536   4.074   6.724  11.526 -0.8084 -2.3414  0.4087
12707TIP3    H259537   3.964   6.758  11.625  0.4302  0.5824  0.8918
12708TIP3   OH259538   5.527   5.263  13.587  0.1905 -0.0919  0.2607
12708TIP3    H159539   5.560   5.250  13.499 -1.1552  0.4459 -0.3444
12708TIP3    H259540   5.467   5.191  13.602 -1.1800  0.9412 -0.0830
12709TIP3   OH259541   0.906   3.612  11.404 -0.2563  0.0346 -0.4949
12709TIP3    H159542   0.856   3.535  11.377  0.3503 -0.4892 -0.1765
12709TIP3    H259543   0.977   3.618  11.339  0.8048 -0.8173  0.5338
12710TIP3   OH259544   5.165   1.620   2.981  0.2498 -0.8087  0.0546
12710TIP3    H159545   5.173   1.543   2.925 -0.7901 -0.3129 -0.8263
12710TIP3    H259546   5.110   1.591   3.054 -0.7803 -0.7282 -0.6626
12711TIP3   OH259547   5.424   4.328   3.054 -0.3215 -0.7356  0.1625
12711TIP3    H159548   5.400   4.394   3.119  1.3759  0.8556 -0.7335
12711TIP3    H259549   5.344   4.315   3.002 -1.3875 -1.2801  1.8743
12712TIP3   OH259550   1.982   6.082  12.060  0.6458  0.3086 -0.5164
12712TIP3    H159551   1.916   6.115  11.999  0.5632 -0.3915 -0.8262
12712TIP3    H259552   2.044   6.154  12.070  0.3523  0.6341 -0.9909
12713TIP3   OH259553   0.054   0.504  12.111  0.4182  0.1365  0.1451
12713TIP3    H159554   0.125   0.552  12.153 -0.2082  1.3501 -0.1370
12713TIP3    H259555   0.040   0.549  12.028 -0.8978  0.1435  0.3454
12714TIP3   OH259556   4.461   3.248   7.032 -0.1003  0.4504  0.0985
12714TIP3    H159557   4.393   3.308   7.062 -0.0427 -0.0143  1.2429
12714TIP3    H259558   4.534   3.305   7.007  0.1318  0.8688  1.6206
12715TIP3   OH259559   2.081   2.235  13.069  0.4139 -0.0630 -0.6007
12715TIP3    H159560   2.020   2.166  13.095  1.0063  0.1513  1.5570
12715TIP3    H259561   2.026   2.301  13.027 -0.3245 -1.3170 -1.6741
12716TIP3   OH259562   4.110   6.447   0.308 -0.8615 -0.0625 -0.2117
12716TIP3    H159563   4.188   6.455   0.362  0.3244 -1.2916 -1.6510
12716TIP3    H259564   4.136   6.478   0.221 -1.3515 -2.2477 -1.2165
12717TIP3   OH259565   4.744   4.665  14.552  0.4115 -0.4373  0.3861
12717TIP3    H159566   4.758   4.726  14.479 -1.2974 -0.4648 -0.0080
12717TIP3    H259567   4.832   4.642  14.581  1.1097  0.9097 -0.5515
12718TIP3   OH259568   2.233   2.219  14.904 -0.4201 -0.5570  0.1316
12718TIP3    H159569   2.273   2.260  14.981 -0.0427 -1.0434  0.2011
12718TIP3    H259570   2.255   2.278  14.832 -0.8443 -0.0573  0.4058
12719TIP3   OH259571   5.370   6.744   5.437  0.1285 -0.3911  0.0303
12719TIP3    H159572   5.355   6.702   5.522 -0.0799 -0.2833  0.0483
12719TIP3    H259573   5.339   6.834   5.449 -0.3627 -0.5136 -0.3061
12720TIP3   OH259574   0.814   0.435  12.326 -0.3272  0.0440 -0.3281
12720TIP3    H159575   0.744   0.484  12.367  1.3226  1.8951  0.4305
12720TIP3    H259576   0.885   0.435  12.391  0.6248 -1.1786 -1.3074
12721TIP3   OH259577   3.702   4.997   1.364 -0.0366  0.2708 -0.0824
12721TIP3    H159578   3.708   5.010   1.269  0.0703  1.6246  0.0904
12721TIP3    H259579   3.691   5.085   1.400 -0.1602 -0.2283  1.1633
12722TIP3   OH259580   4.807   5.635  14.221 -0.0042  0.4688  0.3458
12722TIP3    H159581   4.896   5.646  14.188  0.2998 -1.7113  0.3581
12722TIP3    H259582   4.804   5.688  14.300  0.6858  2.0295 -0.6203
12723TIP3   OH259583   2.131   3.175   5.733 -0.0314 -0.0347  0.5004
12723TIP3    H159584   2.068   3.248   5.728  0.1678  0.3970  3.1337
12723TIP3    H259585   2.217   3.217   5.735  0.1423 -0.3991  0.8431
12724TIP3   OH259586   5.457   1.948   4.877  0.4232  0.3592 -0.0763
12724TIP3    H159587   5.517   1.875   4.890  0.1908  0.3064  0.7763
12724TIP3    H259588   5.470   1.975   4.786 -0.6414 -1.7893 -0.9289
12725TIP3   OH259589   2.075   3.542   1.857  0.0236 -0.7685 -0.4337
12725TIP3    H159590   1.988   3.558   1.819  0.1598  0.0249 -0.4302
12725TIP3    H259591   2.112   3.629   1.869  0.5983 -1.0797  0.1015
12726TIP3   OH259592   2.827   0.035  13.400 -0.1323  0.4726  0.7304
12726TIP3    H159593   2.853   0.044  13.491 -0.5884  0.7763  0.8332
12726TIP3    H259594   2.766   0.108  13.385  0.1723  0.6018  0.1031
12727TIP3   OH259595   6.710   3.391  14.452  0.5995 -0.2297  0.7128
12727TIP3    H159596   6.639   3.360  14.396 -0.2407  1.7022  0.6282
12727TIP3    H259597   6.698   3.342  14.534  0.8704 -1.9033 -0.2000
12728TIP3   OH259598   6.762   0.955   1.438  0.0958 -0.7409 -0.2527
12728TIP3    H159599   6.795   0.986   1.522 -2.1649 -2.2378  1.2838
12728TIP3    H259600   6.818   0.880   1.417  1.4039  0.3184 -0.7377
12729TIP3   OH259601   0.011   1.498  16.990 -0.3451 -0.0916  0.4317
12729TIP3    H159602  -0.034   1.413  16.993 -2.2151  0.5587 -3.1592
12729TIP3    H259603  -0.051   1.559  17.030 -2.3780  0.5629 -3.2516
12730TIP3   OH259604   5.242   1.664   3.528 -0.5413 -0.2488 -0.1313
12730TIP3    H159605   5.230   1.617   3.610  1.3291 -0.7601 -0.1084
12730TIP3    H259606   5.217   1.601   3.460 -0.8055 -0.2732 -0.0150
12731TIP3   OH259607   3.466   5.151   5.353  0.6100  0.1942 -0.4365
12731TIP3    H159608   3.508   5.237   5.345  0.4113  0.3875  0.4665
12731TIP3    H259609   3.380   5.170   5.391  1.0625 -0.5018  1.0126
12732TIP3   OH259610   6.502   4.124  15.167 -0.1051 -0.2190 -0.4142
12732TIP3    H159611   6.595   4.121  15.143  0.7417 -0.7361  2.4672
12732TIP3    H259612   6.459   4.071  15.100  2.3038 -3.3255  0.1938
12733TIP3   OH259613   0.321   1.868  15.439 -0.6415  0.4513  0.6275
12733TIP3    H159614   0.387   1.799  15.435 -2.0025 -1.1770  3.3410
12733TIP3    H259615   0.255   1.842  15.376  0.3968  1.1067 -0.7675
12734TIP3   OH259616   6.454   5.420  13.082 -0.6288 -0.0448  0.1611
12734TIP3    H159617   6.397   5.392  13.010  1.1970 -0.1113 -1.3457
12734TIP3    H259618   6.492   5.338  13.115 -0.0286  0.1286 -0.0822
12735TIP3   OH259619   3.349   2.265  11.465 -0.5426  0.0815 -0.2607
12735TIP3    H159620   3.388   2.201  11.525 -0.4650 -0.4182 -0.8256
12735TIP3    H259621   3.394   2.249  11.382  0.4106  1.7593 -0.1028
12736TIP3   OH259622   4.100   6.281   4.292 -0.1225 -0.4738 -0.0662
12736TIP3    H159623   4.022   6.301   4.239  0.2538 -0.8942 -0.7895
12736TIP3    H259624   4.144   6.366   4.301 -0.5097 -0.2857  0.1007
12737TIP3   OH259625   1.466   1.161   1.011 -0.5867  0.4951  0.6694
12737TIP3    H159626   1.517   1.241   0.997  0.0231  0.4216  2.1917
12737TIP3    H259627   1.532   1.094   1.030 -1.0772 -0.4363 -0.7601
12738TIP3   OH259628   5.564   6.279   4.985 -0.0592  0.2321 -0.7451
12738TIP3    H159629   5.508   6.354   5.008  2.0437  2.2302 -1.7435
12738TIP3    H259630   5.555   6.271   4.891 -1.2302 -1.6912 -0.5248
12739TIP3   OH259631   1.280   3.475  13.000 -0.2419  0.2455  0.6721
12739TIP3    H159632   1.242   3.518  13.077 -2.7876 -0.0380 -0.3339
12739TIP3    H259633   1.215   3.411  12.973  1.0547 -0.4125 -1.1136
12740TIP3   OH259634   1.079   2.642   4.376  0.0156  0.3543 -0.4900
12740TIP3    H159635   1.108   2.664   4.287  0.4771  1.6841 -0.0257
12740TIP3    H259636   0.984   2.634   4.368  0.0569  0.4164 -1.1185
12741TIP3   OH259637   5.458   3.565  16.169  0.8101  0.1395  0.3265
12741TIP3    H159638   5.460   3.507  16.093 -0.7493  1.5734 -0.9262
12741TIP3    H259639   5.518   3.636  16.147 -0.9145  1.4452 -0.4290
12742TIP3   OH259640   2.640   1.073  16.971 -0.4033 -0.1648  0.2878
12742TIP3    H159641   2.634   1.026  17.054  1.6279 -2.5882 -0.8096
12742TIP3    H259642   2.559   1.050  16.925 -1.3303  0.8317  1.3706
12743TIP3   OH259643   0.776   5.058  16.750 -0.9163 -0.6166 -0.4232
12743TIP3    H159644   0.745   5.041  16.661  1.5647 -0.1916 -1.4557
12743TIP3    H259645   0.723   5.000  16.805 -2.0119 -1.4546 -2.2316
12744TIP3   OH259646   1.067   5.584   6.356 -0.5109  0.4521  0.3192
12744TIP3    H159647   1.019   5.537   6.288  1.5027 -1.1274 -0.0980
12744TIP3    H259648   1.039   5.545   6.438 -0.2724 -0.1523  0.1133
12745TIP3   OH259649   3.378   5.467   6.828  0.0351 -0.1269  0.3740
12745TIP3    H159650   3.459   5.502   6.865 -0.0609 -0.0180  0.4805
12745TIP3    H259651   3.351   5.399   6.890  0.0688 -0.1940  0.3152
12746TIP3   OH259652   2.101   6.792   3.238  0.0098  0.2910 -0.3247
12746TIP3    H159653   2.011   6.804   3.207  1.0828  2.4593 -2.9103
12746TIP3    H259654   2.112   6.859   3.306  0.2213  1.4326 -1.4406
12747TIP3   OH259655   4.293   4.395   3.208  0.3933  0.4203  0.2875
12747TIP3    H159656   4.207   4.432   3.188  0.4005  0.8311  0.9662
12747TIP3    H259657   4.329   4.370   3.123 -0.7706 -0.5989  0.0634
12748TIP3   OH259658   4.201   5.423   5.463  0.0053  0.3259  0.3674
12748TIP3    H159659   4.234   5.360   5.528 -0.6842 -0.2808  0.1399
12748TIP3    H259660   4.265   5.494   5.465  0.4539 -0.0782  1.0983
12749TIP3   OH259661   6.636   3.356   0.095  0.4439  0.0703  0.3154
12749TIP3    H159662   6.707   3.395   0.146 -0.2590  1.6097  0.1661
12749TIP3    H259663   6.592   3.430   0.054 -1.9305 -0.7081  1.2627
12750TIP3   OH259664   1.781   6.361  11.570  0.6684 -0.1704 -0.0870
12750TIP3    H159665   1.688   6.342  11.558  0.5781  0.7929 -1.0306
12750TIP3    H259666   1.782   6.443  11.619  0.9912  0.5318 -1.2329
12751TIP3   OH259667   6.638   3.838  10.808  0.1877  0.9542  0.0479
12751TIP3    H159668   6.660   3.745  10.813  0.3787  0.6774 -3.5769
12751TIP3    H259669   6.557   3.842  10.756 -0.9562  2.7723  1.7779
12752TIP3   OH259670   5.025   3.884  13.438 -0.2428  0.7354 -0.0413
12752TIP3    H159671   4.968   3.921  13.505 -1.1617 -1.0466  0.2224
12752TIP3    H259672   4.968   3.827  13.386  1.1571 -0.6883 -0.1185
12753TIP3   OH259673   4.898   3.592   4.335  0.2343 -0.0966 -0.0900
12753TIP3    H159674   4.930   3.521   4.392 -1.8267  0.3798  1.8317
12753TIP3    H259675   4.959   3.664   4.349 -0.5864  0.2427  2.1823
12754TIP3   OH259676   0.562   4.641  13.535  0.1457  0.1281 -0.1363
12754TIP3    H159677   0.565   4.633  13.440 -2.2490 -0.2331 -0.2495
12754TIP3    H259678   0.488   4.586  13.561  1.5518 -0.8179  2.0844
12755TIP3   OH259679   5.591   6.027   0.493 -0.5407 -0.2927  0.3147
12755TIP3    H159680   5.539   5.960   0.449 -0.5794 -0.0544 -0.0054
12755TIP3    H259681   5.662   6.048   0.431 -0.4138 -0.1851  0.4951
12756TIP3   OH259682   5.477   2.664   3.319 -0.3983 -0.5911  0.3978
12756TIP3    H159683   5.522   2.647   3.236  0.1847 -0.7791  0.7473
12756TIP3    H259684   5.547   2.670   3.384 -0.7910  0.2995  0.7664
12757TIP3   OH259685   6.032   5.698  13.703 -0.0140 -0.4268 -0.8612
12757TIP3    H159686   6.030   5.779  13.753 -2.4583 -1.1519  0.3684
12757TIP3    H259687   6.015   5.629  13.767  3.2653 -2.1497 -1.6310
12758TIP3   OH259688   5.912   2.214   3.252 -0.6497 -0.3231  0.2292
12758TIP3    H159689   5.900   2.231   3.345 -1.5673  0.3396  0.0047
12758TIP3    H259690   5.904   2.119   3.243 -2.3203 -0.2402  0.5970
12759TIP3   OH259691   0.944   5.352  15.352 -0.3760 -0.1931  0.3470
12759TIP3    H159692   0.876   5.351  15.284 -0.0218 -1.4207 -0.0108
12759TIP3    H259693   0.972   5.444  15.356  0.1353 -0.1998 -1.7292
12760TIP3   OH259694   0.881   2.704   5.355 -0.2293  0.8772 -0.1182
12760TIP3    H159695   0.836   2.622   5.375  1.2088 -0.0633 -0.5671
12760TIP3    H259696   0.828   2.771   5.396 -1.8175 -0.2096 -0.3018
12761TIP3   OH259697   2.437   2.034  15.795  0.0046 -0.0613 -0.0898
12761TIP3    H159698   2.405   1.991  15.716 -0.6248 -1.0595  0.6855
12761TIP3    H259699   2.531   2.018  15.796 -0.2889 -2.0009  0.4865
12762TIP3   OH259700   4.577   0.649   1.278 -0.0596  0.7243 -0.0466
12762TIP3    H159701   4.653   0.674   1.330  0.3632 -0.5618 -0.0249
12762TIP3    H259702   4.601   0.670   1.188  0.2536  0.4821 -0.0193
12763TIP3   OH259703   0.135   2.030   1.443 -0.5859 -0.3928  0.7308
12763TIP3    H159704   0.216   2.030   1.494  0.3272 -0.3541 -0.6500
12763TIP3    H259705   0.155   1.975   1.366 -1.4610  0.6045 -0.2446
12764TIP3   OH259706   1.333   0.021   3.262 -0.2774 -0.1070 -0.6473
12764TIP3    H159707   1.357  -0.068   3.289 -2.0080 -0.4813 -0.2505
12764TIP3    H259708   1.318   0.068   3.345  1.5909  0.8778 -0.8152
12765TIP3   OH259709   6.646   6.246  16.966  0.0852  0.1996  0.0709
12765TIP3    H159710   6.704   6.305  16.917 -0.7213  1.8446  0.9882
12765TIP3    H259711   6.689   6.234  17.050  1.0252 -1.8826 -0.6578
12766TIP3   OH259712   0.698   3.361   0.957  0.2855 -0.9185  0.1924
12766TIP3    H159713   0.782   3.322   0.934  1.1519  0.3800  1.0194
12766TIP3    H259714   0.683   3.334   1.048  0.2501 -0.4171  0.3389
12767TIP3   OH259715   3.141   1.444   2.361 -0.2022  0.5858  0.2659
12767TIP3    H159716   3.103   1.528   2.335 -0.9128  0.1151 -0.2505
12767TIP3    H259717   3.074   1.379   2.338 -0.1149 -0.0240  1.6454
12768TIP3   OH259718   5.218   4.120  15.821  0.2431  0.0449 -0.1264
12768TIP3    H159719   5.171   4.201  15.840  0.6167  0.5717 -1.3625
12768TIP3    H259720   5.183   4.091  15.737  1.4961 -0.0269 -0.6391
12769TIP3   OH259721   1.856   3.627   3.722  0.3788  0.3053  0.2001
12769TIP3    H159722   1.835   3.716   3.693 -0.5633  0.1677  0.4053
12769TIP3    H259723   1.885   3.637   3.812  0.7095  0.4503  0.0790
12770TIP3   OH259724   5.567   3.762   4.129  0.6377  0.3352 -0.2213
12770TIP3    H159725   5.613   3.743   4.211  1.6730 -0.4994 -0.9609
12770TIP3    H259726   5.553   3.856   4.131  1.9327  0.5380  0.2743
12771TIP3   OH259727   5.670   0.063  12.299  0.4479 -0.2565 -0.1953
12771TIP3    H159728   5.596   0.078  12.241 -0.1978 -0.3990  0.5782
12771TIP3    H259729   5.634   0.073  12.387  1.6745  1.2130  0.1828
12772TIP3   OH259730   1.412   3.762  15.163 -0.2268 -0.5357  0.3513
12772TIP3    H159731   1.447   3.708  15.092 -0.6552 -0.7723  0.3168
12772TIP3    H259732   1.383   3.842  15.120 -0.4172 -0.6480  0.2733
12773TIP3   OH259733   0.705   2.746  15.314 -0.1461 -0.3702 -0.1669
12773TIP3    H159734   0.654   2.826  15.327 -0.3656 -0.7608  1.6759
12773TIP3    H259735   0.793   2.777  15.291 -0.4248  0.3820 -0.2347
12774TIP3   OH259736   5.834   1.830   4.709 -0.4824 -0.2302 -0.2783
12774TIP3    H159737   5.835   1.738   4.680 -2.0956 -1.0530  2.0158
12774TIP3    H259738   5.745   1.859   4.693 -0.1620  0.7354 -0.3515
12775TIP3   OH259739   1.932   1.349   4.235 -0.0212  0.2917  0.0887
12775TIP3    H159740   1.976   1.296   4.169  1.5828  2.4562 -0.6786
12775TIP3    H259741   1.839   1.345   4.210  0.2412 -0.9761 -0.7676
12776TIP3   OH259742   2.803   0.807   0.832  0.4832  0.0403 -0.4533
12776TIP3    H159743   2.894   0.828   0.850  0.7413 -0.0640 -1.5628
12776TIP3    H259744   2.793   0.820   0.737 -0.5740 -0.2293 -0.3963
12777TIP3   OH259745   0.909   2.017  16.815 -0.3884 -0.2563  0.3678
12777TIP3    H159746   0.875   2.071  16.887  1.2774 -1.4669  2.1917
12777TIP3    H259747   0.846   2.028  16.744 -2.4504  0.5608  2.2102
12778TIP3   OH259748   5.508   5.806  15.525  0.2945  0.2886 -0.2777
12778TIP3    H159749   5.516   5.811  15.620 -0.4607  3.9741 -0.2664
12778TIP3    H259750   5.417   5.780  15.510  0.1502  0.6102  0.0229
12779TIP3   OH259751   2.132   6.597  10.601  0.2687 -0.3009 -0.1652
12779TIP3    H159752   2.068   6.615  10.533 -1.8357 -1.3538  1.4416
12779TIP3    H259753   2.146   6.503  10.598 -0.3854 -0.4726  1.2572
12780TIP3   OH259754   0.069   5.697   2.254 -0.3139  0.1080 -0.1595
12780TIP3    H159755   0.137   5.705   2.187 -1.3434 -1.1842 -1.4412
12780TIP3    H259756  -0.011   5.729   2.211 -0.4049  2.6193  1.6583
12781TIP3   OH259757   4.402   2.419  13.571 -0.4806  0.0406 -0.2551
12781TIP3    H159758   4.372   2.350  13.631  0.9534 -0.5047 -0.1251
12781TIP3    H259759   4.341   2.491  13.586 -0.3179 -0.1685  1.6907
12782TIP3   OH259760   4.725   4.888  13.739 -0.2750  0.2455  0.4312
12782TIP3    H159761   4.642   4.894  13.692 -0.8633  2.1503  1.6322
12782TIP3    H259762   4.705   4.916  13.828  1.4496 -0.3335  1.0442
12783TIP3   OH259763   5.166   0.943  13.595 -0.1881 -0.1226 -0.4663
12783TIP3    H159764   5.189   0.908  13.509 -0.5658 -1.2806 -0.1060
12783TIP3    H259765   5.105   1.014  13.576  0.2587  0.0762 -1.1861
12784TIP3   OH259766   4.492   2.058   5.485  0.2413  0.6247 -0.0808
12784TIP3    H159767   4.561   2.082   5.547  0.5967  0.4784 -0.4166
12784TIP3    H259768   4.528   1.984   5.437  0.0410  0.8562 -0.5885
12785TIP3   OH259769   4.989   3.368   1.855  0.0202  0.0377 -0.9475
12785TIP3    H159770   4.996   3.277   1.823 -0.3323  0.6368 -2.8544
12785TIP3    H259771   5.051   3.372   1.928  1.9162 -1.1210 -2.3827
12786TIP3   OH259772   3.425   0.409   5.449  0.0946  0.5194 -0.1438
12786TIP3    H159773   3.492   0.478   5.452  0.5185  0.0919  2.3627
12786TIP3    H259774   3.348   0.452   5.411 -0.2592  3.0169  2.9908
12787TIP3   OH259775   1.767   0.173   6.418  0.0637  0.7470 -0.1801
12787TIP3    H159776   1.751   0.266   6.401 -2.4575 -0.0832 -3.3966
12787TIP3    H259777   1.699   0.148   6.480  0.2651  0.8833  0.0976
12788TIP3   OH259778   5.840   0.166   2.605  0.4098 -0.2713 -0.2068
12788TIP3    H159779   5.763   0.144   2.657  0.3016 -1.1050 -0.7116
12788TIP3    H259780   5.910   0.176   2.669 -0.1781  0.8541  0.2937
12789TIP3   OH259781   1.803   4.574   6.177  0.3430  0.5713 -0.0625
12789TIP3    H159782   1.828   4.484   6.198 -2.3251 -0.2436  0.0414
12789TIP3    H259783   1.796   4.617   6.262 -0.8980  0.0827  0.1094
12790TIP3   OH259784   1.887   2.977  14.620  0.1486 -0.0806  0.1809
12790TIP3    H159785   1.926   3.064  14.615  1.5575 -0.7057 -0.0876
12790TIP3    H259786   1.849   2.963  14.533  1.1172 -0.2612 -0.2256
12791TIP3   OH259787   5.760   3.063   1.016 -0.2807  0.2184  0.0403
12791TIP3    H159788   5.744   3.156   0.998  1.8992  0.5982 -0.1881
12791TIP3    H259789   5.756   3.021   0.930  0.6014  0.4343 -0.1149
12792TIP3   OH259790   6.020   2.237   2.225 -0.4868  0.5997  0.3577
12792TIP3    H159791   6.038   2.186   2.146  1.0752  0.5609  0.7251
12792TIP3    H259792   5.946   2.192   2.265  0.9786 -1.5661  0.7917
12793TIP3   OH259793   4.912   0.434   4.189  0.3800 -0.0633  0.0692
12793TIP3    H159794   4.872   0.350   4.213 -3.0658  1.5128  0.4616
12793TIP3    H259795   4.911   0.434   4.093  3.9067 -1.8570 -0.1168
12794TIP3   OH259796   3.524   6.133   2.326 -0.2366  0.2223  0.5501
12794TIP3    H159797   3.544   6.095   2.241  1.0671  0.0738  0.9091
12794TIP3    H259798   3.546   6.226   2.316 -1.1990  0.4463  0.3857
12795TIP3   OH259799   1.939   1.872   2.915  0.1536  0.3324 -0.4457
12795TIP3    H159800   1.986   1.922   2.981  0.4393 -1.4356  0.7718
12795TIP3    H259801   1.937   1.929   2.838  0.5368  2.1240  0.8153
12796TIP3   OH259802   4.796   6.153   4.074 -0.5404  0.3243 -0.1440
12796TIP3    H159803   4.876   6.102   4.079  0.2959  1.6960  1.7832
12796TIP3    H259804   4.737   6.113   4.137 -0.3442  0.9483  0.4481
12797TIP3   OH259805   2.596   3.730  13.598  0.2271  0.1739  0.3418
12797TIP3    H159806   2.562   3.664  13.659  0.1442 -1.6907 -1.6081
12797TIP3    H259807   2.659   3.682  13.544  0.0066  1.6542 -1.3110
12798TIP3   OH259808   2.211   4.782  10.986  0.0769 -0.3749 -0.2731
12798TIP3    H159809   2.261   4.706  11.016  1.5796  0.7465  0.1832
12798TIP3    H259810   2.231   4.789  10.892 -1.7467 -1.7452 -0.8123
12799TIP3   OH259811   2.551   6.241  15.380  0.0102  0.1935 -0.0006
12799TIP3    H159812   2.566   6.332  15.407  0.3144 -0.0020  0.5065
12799TIP3    H259813   2.626   6.193  15.414 -0.4744 -0.3616  0.3028
12800TIP3   OH259814   3.265   4.890   1.719  0.6686  0.4174  0.0957
12800TIP3    H159815   3.199   4.832   1.680  0.2815  0.7699  0.2226
12800TIP3    H259816   3.272   4.963   1.657 -0.1318  1.1054  0.7928
12801TIP3   OH259817   0.278   5.367   2.452  0.4770 -0.3049  0.1859
12801TIP3    H159818   0.248   5.282   2.485 -1.1621  0.3311  0.4539
12801TIP3    H259819   0.204   5.426   2.468  0.6412  0.6500 -2.1430
12802TIP3   OH259820   1.183   6.371   2.190  0.4998 -0.1978  0.0509
12802TIP3    H159821   1.245   6.321   2.136  1.3327  1.0715 -0.2017
12802TIP3    H259822   1.127   6.304   2.229  0.2798 -1.2071 -1.8659
12803TIP3   OH259823   0.182   5.349   1.043 -0.4721  0.3739 -0.0637
12803TIP3    H159824   0.110   5.407   1.015 -0.7441  0.6322  1.1140
12803TIP3    H259825   0.141   5.290   1.107  0.4358  0.7810  0.9206
12804TIP3   OH259826   1.506   2.972  13.998 -0.1976  0.1368 -0.3687
12804TIP3    H159827   1.455   2.991  14.076 -0.2163  0.7996 -0.5361
12804TIP3    H259828   1.441   2.960  13.929 -0.1710 -0.2091 -0.3364
12805TIP3   OH259829   3.410   5.911   0.226 -0.1829 -0.2877 -0.1012
12805TIP3    H159830   3.332   5.886   0.275  0.4050 -3.0069 -0.4098
12805TIP3    H259831   3.479   5.853   0.259  1.5151  1.4067 -0.4849
12806TIP3   OH259832   2.449   4.486  16.122  0.4488 -0.2954 -0.4736
12806TIP3    H159833   2.434   4.392  16.133  0.9869 -0.1905  1.6860
12806TIP3    H259834   2.544   4.496  16.128  0.2917  0.5417  1.5241
12807TIP3   OH259835   4.777   6.735  10.546 -0.0202 -0.3042  0.6724
12807TIP3    H159836   4.800   6.805  10.607 -0.3216  0.5374 -0.1711
12807TIP3    H259837   4.733   6.779  10.474  2.8877 -0.8340 -1.6250
12808TIP3   OH259838   0.815   4.637   6.183 -0.3193 -0.0766 -0.2744
12808TIP3    H159839   0.835   4.624   6.090 -2.0705  1.0654 -0.8603
12808TIP3    H259840   0.890   4.686   6.217 -0.7849  1.7728 -1.7368
12809TIP3   OH259841   1.150   4.074   3.124 -0.2378  0.6487  0.3819
12809TIP3    H159842   1.105   3.996   3.157 -1.5288  1.0176 -0.4268
12809TIP3    H259843   1.230   4.040   3.084 -0.3863 -0.1675  0.7481
12810TIP3   OH259844   4.161   4.520  12.803  0.2926  0.1931  0.5797
12810TIP3    H159845   4.119   4.600  12.836  0.5415  1.0451 -1.0641
12810TIP3    H259846   4.220   4.551  12.734  0.7390 -1.3770  0.2207
12811TIP3   OH259847   1.058   0.834   2.242 -0.5081  0.2322 -0.3804
12811TIP3    H159848   0.999   0.759   2.236 -0.3263  0.0800 -0.2700
12811TIP3    H259849   1.047   0.866   2.331 -0.3396  0.1344 -0.3242
12812TIP3   OH259850   1.309   6.594  16.941  0.2414 -0.1777  0.5503
12812TIP3    H159851   1.279   6.597  16.850  1.9541 -2.0626 -0.1756
12812TIP3    H259852   1.256   6.525  16.981  0.4760 -0.3822  0.5208
12813TIP3   OH259853   2.654   0.262  12.464 -0.1431 -0.3124  0.8155
12813TIP3    H159854   2.636   0.356  12.470 -0.4261 -0.3388  0.3374
12813TIP3    H259855   2.670   0.235  12.555  2.4805  0.6961  0.7605
12814TIP3   OH259856   5.399   5.678  13.260  0.0650 -0.4419 -0.2523
12814TIP3    H159857   5.473   5.739  13.252  0.3610 -0.7828 -0.1215
12814TIP3    H259858   5.393   5.660  13.354 -1.2567  0.8959 -0.0301
12815TIP3   OH259859   1.868   1.735  11.014 -0.4470 -0.1333 -0.3125
12815TIP3    H159860   1.853   1.825  10.988 -0.0988  0.0325  0.0399
12815TIP3    H259861   1.781   1.701  11.034 -0.6337 -0.0405 -0.9575
12816TIP3   OH259862   0.375   2.884   4.002  0.2587  0.2109  0.6640
12816TIP3    H159863   0.347   2.846   3.919 -0.1154  0.6148  0.6007
12816TIP3    H259864   0.294   2.917   4.042  0.7790  2.9634 -0.3032
12817TIP3   OH259865   0.698   6.346  11.585 -0.0566  0.3587 -0.1774
12817TIP3    H159866   0.664   6.264  11.550 -1.7003  0.2566  1.5107
12817TIP3    H259867   0.775   6.320  11.636  0.9597  0.2403 -1.6821
12818TIP3   OH259868   4.839   4.951  13.994 -0.8958  0.4140 -0.1306
12818TIP3    H159869   4.893   4.939  14.072  0.7239 -1.5418 -1.4439
12818TIP3    H259870   4.856   5.042  13.967 -0.1741  0.5840  0.8406
12819TIP3   OH259871   6.588   5.994   4.461 -0.6114  0.0609 -0.4279
12819TIP3    H159872   6.526   6.057   4.497 -0.7353  0.0749 -0.6634
12819TIP3    H259873   6.542   5.910   4.468 -0.4266 -0.0117 -0.0679
12820TIP3   OH259874   1.156   6.059  16.557  0.4133 -0.1725 -0.0666
12820TIP3    H159875   1.113   6.011  16.628  1.0952  0.3088  0.6870
12820TIP3    H259876   1.168   5.994  16.488 -0.0778 -0.6998  0.3352
12821TIP3   OH259877   2.373   5.838  12.123  0.7253 -0.0108 -0.2717
12821TIP3    H159878   2.288   5.809  12.157  0.3988  0.5297 -0.6135
12821TIP3    H259879   2.352   5.887  12.044  1.3147  0.6640 -0.0221
12822TIP3   OH259880   1.410   4.938   4.334  0.4820 -0.9457 -0.4124
12822TIP3    H159881   1.442   4.865   4.387  0.9710 -0.5548 -0.1589
12822TIP3    H259882   1.315   4.941   4.352  0.9239  0.6336  2.3322
12823TIP3   OH259883   6.341   4.934  13.261 -0.1226 -0.1784  0.0094
12823TIP3    H159884   6.315   4.866  13.198 -2.7419 -0.3100  1.0936
12823TIP3    H259885   6.412   4.894  13.311 -1.1425 -1.9206  0.1557
12824TIP3   OH259886   4.778   5.377  12.962  0.4509 -0.3364 -0.3316
12824TIP3    H159887   4.733   5.447  13.009 -1.8479 -1.4644 -0.7090
12824TIP3    H259888   4.807   5.417  12.880 -1.9016 -0.0346 -1.0894
12825TIP3   OH259889   3.407   1.019  11.176  0.0167  0.4925  0.1987
12825TIP3    H159890   3.393   1.111  11.198  0.5599  0.7695 -0.5820
12825TIP3    H259891   3.413   1.017  11.080 -4.3499 -0.9188 -0.3211
12826TIP3   OH259892   3.205   0.033  15.028 -0.3512  0.1534  0.6446
12826TIP3    H159893   3.131  -0.026  15.018 -1.0825  1.0032  0.8973
12826TIP3    H259894   3.181   0.112  14.979  1.0406 -0.1060 -0.5369
12827TIP3   OH259895   2.195   0.778   2.935 -0.3089 -0.3524  0.3099
12827TIP3    H159896   2.264   0.764   2.870 -0.2490  1.7205 -0.1264
12827TIP3    H259897   2.125   0.821   2.887  0.0054  1.8390  1.7092
12828TIP3   OH259898   3.327   0.798   5.490  0.8211  0.5660 -0.3128
12828TIP3    H159899   3.369   0.810   5.576 -0.1359  2.1103 -0.0302
12828TIP3    H259900   3.399   0.804   5.427  1.4234  0.2145  0.3301
12829TIP3   OH259901   4.544   2.363  13.079  0.3962 -0.6973  0.1323
12829TIP3    H159902   4.494   2.354  13.160 -1.4964 -0.7413 -0.9751
12829TIP3    H259903   4.601   2.439  13.094  0.2187 -0.8179  1.5453
12830TIP3   OH259904   0.718   1.457  13.178 -0.1505  0.3190 -0.0327
12830TIP3    H159905   0.658   1.526  13.203 -1.7204 -0.8472 -0.3909
12830TIP3    H259906   0.662   1.383  13.154  1.3665 -0.3398 -1.8972
12831TIP3   OH259907   6.515   1.620  16.011  0.3003 -0.0840  0.2971
12831TIP3    H159908   6.562   1.550  15.965 -0.6711  0.1672 -1.1552
12831TIP3    H259909   6.504   1.688  15.945  1.4428  1.5849  1.7507
12832TIP3   OH259910   6.454   0.568   3.857  0.1688  0.2508  0.0965
12832TIP3    H159911   6.550   0.572   3.856  0.2143 -0.5712  0.0327
12832TIP3    H259912   6.430   0.564   3.764  0.1567 -0.7909  0.1267
12833TIP3   OH259913   2.969   1.955   0.808 -0.5445  0.3097 -0.0190
12833TIP3    H159914   2.894   1.902   0.780 -0.9713  0.4127  0.8917
12833TIP3    H259915   3.017   1.972   0.727 -0.1592 -1.8057 -0.3037
12834TIP3   OH259916   1.358   4.990  16.202 -0.1579 -0.2858  0.4167
12834TIP3    H159917   1.305   4.921  16.242  0.6430 -0.3388  1.4204
12834TIP3    H259918   1.445   4.979  16.241 -0.5881  2.9170  2.6755
12835TIP3   OH259919   1.041   0.022   0.240  0.5225 -0.1434 -0.2880
12835TIP3    H159920   1.092   0.097   0.268 -1.4060  1.1209 -0.0223
12835TIP3    H259921   1.003  -0.014   0.321  2.1598 -2.0364 -0.2775
12836TIP3   OH259922   4.721   5.539   0.577  0.2685 -0.1939  0.5886
12836TIP3    H159923   4.762   5.624   0.560  1.2669 -0.4690  1.4776
12836TIP3    H259924   4.643   5.538   0.522 -0.2352  1.6579  1.1730
12837TIP3   OH259925   4.230   2.865   5.781  0.2624 -0.6445 -0.6288
12837TIP3    H159926   4.157   2.924   5.765 -0.0349 -1.7408 -3.9162
12837TIP3    H259927   4.284   2.910   5.846 -0.6807  2.5649 -1.9222
12838TIP3   OH259928   2.813   4.633   3.423 -0.3888  0.6447 -0.1484
12838TIP3    H159929   2.723   4.624   3.392 -0.4864  0.7754  0.0971
12838TIP3    H259930   2.866   4.611   3.346 -0.6337  1.4179 -0.5560
12839TIP3   OH259931   1.575   3.507  14.997 -0.7318 -0.6452 -0.1144
12839TIP3    H159932   1.610   3.592  15.023 -0.6028 -0.5310 -0.6577
12839TIP3    H259933   1.485   3.526  14.971 -0.5217 -0.5701 -0.8045
12840TIP3   OH259934   3.442   1.539   1.817 -0.3270 -0.2403  0.5003
12840TIP3    H159935   3.482   1.622   1.789 -0.6379 -0.0004  0.7518
12840TIP3    H259936   3.516   1.479   1.829 -0.0361  0.1928  0.9415
12841TIP3   OH259937   5.828   5.146  11.960 -0.2823 -0.2219 -0.0966
12841TIP3    H159938   5.778   5.140  11.879 -0.1495 -1.2655 -0.1214
12841TIP3    H259939   5.788   5.082  12.018  0.3892 -0.3543  0.2355
12842TIP3   OH259940   5.813   5.940   1.354  0.2314 -0.3724 -0.5007
12842TIP3    H159941   5.849   6.018   1.396 -0.1061  0.5703 -1.8816
12842TIP3    H259942   5.848   5.943   1.265 -1.3050 -0.7526 -1.1514
12843TIP3   OH259943   4.215   6.218   3.474 -0.6013 -0.3724  1.1528
12843TIP3    H159944   4.233   6.182   3.561 -1.2447 -2.1055  0.6054
12843TIP3    H259945   4.141   6.167   3.442 -0.3593  0.2200 -0.4266
12844TIP3   OH259946   4.530   2.681   1.313 -0.2369 -0.4167 -0.1533
12844TIP3    H159947   4.481   2.608   1.351 -0.7127  0.3583  0.7598
12844TIP3    H259948   4.464   2.747   1.292  0.2139 -0.1402 -0.7522
12845TIP3   OH259949   2.137   5.057   1.016  0.2274 -0.6131 -0.2336
12845TIP3    H159950   2.164   5.105   1.094  0.4897  0.8510 -1.1897
12845TIP3    H259951   2.044   5.037   1.031  0.2849 -0.3725  0.4681
12846TIP3   OH259952   3.978   1.319   2.850  0.7717 -0.5815 -0.4164
12846TIP3    H159953   4.018   1.377   2.915  0.1491  0.2322 -0.7426
12846TIP3    H259954   3.887   1.312   2.878  1.2159 -2.8963  0.6572
12847TIP3   OH259955   6.089   5.153   1.612 -0.4543  0.2370 -0.5871
12847TIP3    H159956   6.107   5.063   1.639  0.6720  0.4616 -0.5513
12847TIP3    H259957   6.136   5.207   1.677 -0.6033  0.8347 -0.9690
12848TIP3   OH259958   2.844   3.869   2.160 -0.4015  0.2613  0.2032
12848TIP3    H159959   2.900   3.940   2.129  1.3018 -0.6677  1.0357
12848TIP3    H259960   2.840   3.881   2.255 -1.4402  0.1722  0.1826
12849TIP3   OH259961   2.169   2.721  14.897  0.0174 -0.4804 -0.5912
12849TIP3    H159962   2.254   2.765  14.895  0.9737 -2.2675 -1.6216
12849TIP3    H259963   2.173   2.658  14.825 -1.7598 -1.3784  0.0452
12850TIP3   OH259964   3.669   4.380   2.428  0.5668  0.7093 -0.1045
12850TIP3    H159965   3.582   4.373   2.390  1.1377  1.1681 -1.5634
12850TIP3    H259966   3.654   4.383   2.523 -0.8356 -1.5792 -0.1958
12851TIP3   OH259967   5.564   4.361  13.786 -0.0427  0.2985 -0.4461
12851TIP3    H159968   5.551   4.287  13.726  0.8968  0.3371 -0.7079
12851TIP3    H259969   5.564   4.437  13.728  1.6757  0.2724 -0.5176
12852TIP3   OH259970   6.366   1.895  10.972 -0.2998  0.4055  0.1678
12852TIP3    H159971   6.298   1.882  10.905  0.7431  1.3698 -1.1465
12852TIP3    H259972   6.448   1.893  10.923  0.5641  0.3115  1.5673
12853TIP3   OH259973   1.207   5.460   1.195 -0.1302 -0.2570 -0.3025
12853TIP3    H159974   1.151   5.515   1.250 -0.4933 -0.3971 -0.5242
12853TIP3    H259975   1.263   5.413   1.257 -1.4242 -1.3975  0.0549
12854TIP3   OH259976   4.640   3.779   3.290 -0.1940 -0.3469 -0.2184
12854TIP3    H159977   4.730   3.807   3.310 -0.4358 -0.8146  1.6605
12854TIP3    H259978   4.591   3.861   3.280 -0.0982 -0.0627  1.4218
12855TIP3   OH259979   1.790   4.889  12.911 -0.5540  0.4531 -0.4488
12855TIP3    H159980   1.756   4.937  12.836 -0.7533  0.5352 -0.3054
12855TIP3    H259981   1.721   4.894  12.977 -2.9395 -4.3519 -2.1062
12856TIP3   OH259982   1.758   5.844   0.497  0.7468 -0.1951  0.1846
12856TIP3    H159983   1.786   5.752   0.497  1.0166 -0.1162 -0.2186
12856TIP3    H259984   1.834   5.891   0.462  0.6466  0.1928  0.4897
12857TIP3   OH259985   2.424   3.560  11.101  0.0357 -0.6627  0.1318
12857TIP3    H159986   2.345   3.523  11.138  0.2307 -0.6753  0.5356
12857TIP3    H259987   2.401   3.650  11.079 -0.0215 -0.5956  0.4684
12858TIP3   OH259988   1.953   2.045   5.597  0.1355 -0.5396 -0.0028
12858TIP3    H159989   2.046   2.056   5.574  0.0855 -0.8413 -0.3567
12858TIP3    H259990   1.953   2.039   5.692  0.3235  1.0314  0.1248
12859TIP3   OH259991   2.184   6.738  13.406  0.3408 -0.1132 -0.5803
12859TIP3    H159992   2.178   6.661  13.350  0.7043  0.9155 -2.0779
12859TIP3    H259993   2.248   6.794  13.364  1.0772  0.4674  1.1998
12860TIP3   OH259994   6.535   6.543   1.952  0.0821  0.5098  0.2275
12860TIP3    H159995   6.465   6.541   1.887  0.2661 -0.2785  0.0464
12860TIP3    H259996   6.489   6.543   2.036 -0.1445  0.4547  0.1040
12861TIP3   OH259997   1.216   6.216  11.880 -0.4018 -0.1751 -0.0937
12861TIP3    H159998   1.192   6.308  11.886  2.2661  0.6141 -0.3675
12861TIP3    H259999   1.182   6.177  11.961 -1.3890  1.0694  0.1151
12862TIP3   OH260000   6.694   4.471   2.021  0.0335  0.5688 -0.5919
12862TIP3    H160001   6.702   4.392   1.966 -1.7401 -0.3324  0.3885
12862TIP3    H260002   6.658   4.537   1.962 -0.1445  0.1368 -0.9782
12863TIP3   OH260003   2.791   6.775   6.107 -0.1543  0.1790  0.0504
12863TIP3    H160004   2.879   6.764   6.144 -0.4575 -0.8457  0.5043
12863TIP3    H260005   2.732   6.753   6.179 -0.7528 -1.3567 -0.8591
12864TIP3   OH260006   4.169   5.710   0.582 -0.5788 -0.6408  0.1030
12864TIP3    H160007   4.192   5.696   0.674 -2.0514 -1.6910  0.3468
12864TIP3    H260008   4.111   5.786   0.583 -0.8346 -0.8337  0.0902
12865TIP3   OH260009   3.563   4.093  15.875 -0.3560  0.9176  0.0638
12865TIP3    H160010   3.553   3.998  15.888  0.2424  0.9383  0.7883
12865TIP3    H260011   3.603   4.101  15.788  2.6785  0.2641  1.2558
12866TIP3   OH260012   6.675   6.603  12.650  0.2060 -0.4359  0.1175
12866TIP3    H160013   6.662   6.604  12.555  1.0790  0.0021 -0.0060
12866TIP3    H260014   6.726   6.525  12.667  1.3493  0.2702  0.0294
12867TIP3   OH260015   4.258   5.909  11.261 -0.1251  0.0906 -0.3865
12867TIP3    H160016   4.304   5.929  11.342 -1.0907  0.5004  0.0767
12867TIP3    H260017   4.317   5.939  11.192  1.9390 -2.6664 -0.0129
12868TIP3   OH260018   4.575   1.088   6.001  0.4874 -0.0028 -0.8662
12868TIP3    H160019   4.533   1.018   6.051  1.2322 -0.5595 -0.9992
12868TIP3    H260020   4.652   1.111   6.052  0.5966  0.2673 -1.1519
12869TIP3   OH260021   2.928   2.880  12.966 -0.6223  0.0028 -0.1873
12869TIP3    H160022   2.939   2.937  13.041  0.2116  1.7949 -1.5840
12869TIP3    H260023   2.851   2.827  12.986  0.9029 -1.3104  2.9209
12870TIP3   OH260024   5.487   3.393   0.314 -0.8087  0.1621 -0.2725
12870TIP3    H160025   5.520   3.417   0.400 -0.5075  0.4255 -0.4565
12870TIP3    H260026   5.395   3.372   0.328 -0.3923 -1.4091  0.4051
12871TIP3   OH260027   4.459   5.278  14.703  0.1406 -0.4070 -0.1088
12871TIP3    H160028   4.442   5.267  14.609  0.1633 -0.0996 -0.1492
12871TIP3    H260029   4.382   5.241  14.746  0.7236 -1.8157 -0.2034
12872TIP3   OH260030   4.412   6.047  11.088  0.3107 -0.0942 -0.6384
12872TIP3    H160031   4.453   6.065  11.003  2.3615  0.4696  0.3838
12872TIP3    H260032   4.398   6.133  11.127 -0.9608 -0.3308 -0.5339
12873TIP3   OH260033   1.471   2.067   6.030 -0.3305 -0.2774  0.4059
12873TIP3    H160034   1.428   2.127   6.091  0.1400 -0.3938  0.8637
12873TIP3    H260035   1.417   1.989   6.031 -0.4622 -0.1866  0.4896
12874TIP3   OH260036   3.126   5.070   4.042  0.0904 -0.9176 -0.3842
12874TIP3    H160037   3.177   5.151   4.047  1.2530 -1.4883 -2.1907
12874TIP3    H260038   3.128   5.035   4.131  0.7666  0.3226  0.1174
12875TIP3   OH260039   6.593   1.130   3.329  0.1799 -0.9472  0.3143
12875TIP3    H160040   6.685   1.110   3.313 -0.2015 -0.9824 -2.3052
12875TIP3    H260041   6.581   1.218   3.293 -0.3852 -0.0251  2.5803
12876TIP3   OH260042   4.997   1.450  16.438  0.1644  0.4750  0.1428
12876TIP3    H160043   5.025   1.514  16.373 -1.5547  0.4350 -0.6997
12876TIP3    H260044   4.904   1.436  16.419  0.0975 -1.0054  1.3779
12877TIP3   OH260045   2.472   2.426   5.765  0.2809 -0.2685 -0.3564
12877TIP3    H160046   2.382   2.459   5.770  0.1501 -0.2887 -2.0415
12877TIP3    H260047   2.513   2.458   5.846 -1.6166 -1.5470  1.2299
12878TIP3   OH260048   3.850   1.832   5.324 -0.3838  0.2389  0.3660
12878TIP3    H160049   3.881   1.792   5.243 -1.8796 -0.8988  0.3149
12878TIP3    H260050   3.921   1.816   5.387 -0.1140 -0.7492 -0.1695
12879TIP3   OH260051   5.646   4.726   4.209  0.8203 -0.1148  0.3354
12879TIP3    H160052   5.561   4.697   4.175  0.1875  0.0058  1.7352
12879TIP3    H260053   5.645   4.700   4.301  1.6226  1.3175  0.7824
12880TIP3   OH260054   5.295   4.425   3.269 -0.2626 -0.3895 -0.2006
12880TIP3    H160055   5.211   4.406   3.309 -0.1629 -2.3956 -0.8137
12880TIP3    H260056   5.357   4.371   3.317  0.4508  0.0002 -0.6596
12881TIP3   OH260057   6.030   3.530  12.665 -0.4596  0.1421 -0.2607
12881TIP3    H160058   5.986   3.535  12.581 -1.1976  3.1365  0.1703
12881TIP3    H260059   6.088   3.607  12.666  1.4008 -1.1721  1.0206
12882TIP3   OH260060   2.534   3.008  14.789  0.5259 -0.1940  0.0738
12882TIP3    H160061   2.446   3.030  14.759 -0.3384  2.3170  3.7707
12882TIP3    H260062   2.525   2.923  14.832 -0.5291  0.7182  1.7415
12883TIP3   OH260063   6.486   2.490   4.525  0.3989  0.4329 -0.1101
12883TIP3    H160064   6.418   2.498   4.458  0.2919  1.3006  0.0933
12883TIP3    H260065   6.438   2.478   4.607  0.5218 -0.0668 -0.1025
12884TIP3   OH260066   1.069   6.617   3.303  0.0727  0.0713  0.4800
12884TIP3    H160067   1.041   6.708   3.295  0.7332  0.2521  0.1726
12884TIP3    H260068   0.988   6.566   3.295 -0.1017  0.5447 -1.0106
12885TIP3   OH260069   1.372   0.425  11.179 -0.7029 -0.0895 -0.0253
12885TIP3    H160070   1.466   0.430  11.159 -0.8911  0.0753 -0.8876
12885TIP3    H260071   1.358   0.493  11.245 -0.8343  2.3302 -2.3865
12886TIP3   OH260072   4.139   2.717   5.271 -0.2719  0.2614  0.1327
12886TIP3    H160073   4.084   2.707   5.193  0.5818  1.9423 -0.7222
12886TIP3    H260074   4.189   2.635   5.275 -1.3539 -0.4490 -0.2171
12887TIP3   OH260075   6.732   2.186   3.487  0.1630 -0.0452 -0.3110
12887TIP3    H160076   6.818   2.178   3.445  0.2405  0.7830 -0.3416
12887TIP3    H260077   6.716   2.101   3.526  1.2261 -0.0656  0.1129
12888TIP3   OH260078   1.595   5.826  13.589  0.6012 -0.4109  0.1708
12888TIP3    H160079   1.608   5.851  13.497  0.8781  0.4066  0.4263
12888TIP3    H260080   1.683   5.824  13.626  0.6498 -2.2346  0.0646
12889TIP3   OH260081   0.946   0.813   0.412  0.0475 -0.1385  0.1157
12889TIP3    H160082   0.922   0.906   0.405  2.0680  0.2972 -2.9864
12889TIP3    H260083   0.862   0.767   0.412 -0.9876  1.6273  0.6961
12890TIP3   OH260084   3.852   4.790  14.554  0.9261  0.2567  0.0862
12890TIP3    H160085   3.889   4.855  14.614  0.0198  0.8225  0.0537
12890TIP3    H260086   3.866   4.706  14.597  1.8143  0.4990  0.2860
12891TIP3   OH260087   2.762   4.330   4.249 -0.4326 -0.2873 -0.4640
12891TIP3    H160088   2.672   4.349   4.224 -0.0549  0.3433 -1.4025
12891TIP3    H260089   2.804   4.300   4.168  0.7124  1.3919 -0.5435
12892TIP3   OH260090   1.063   6.414  11.400  0.0638  0.3046  0.0483
12892TIP3    H160091   1.027   6.472  11.468 -0.1449  0.8115 -0.4839
12892TIP3    H260092   0.987   6.390  11.347  0.2012 -0.2196  0.0884
12893TIP3   OH260093   5.473   6.025  17.088  0.1412  0.4147  0.2303
12893TIP3    H160094   5.435   5.943  17.121 -0.9076  1.2733  1.2063
12893TIP3    H260095   5.566   6.004  17.075 -0.1896 -1.0553  0.0201
12894TIP3   OH260096   5.015   5.039   5.801 -0.2983 -0.3003 -0.0472
12894TIP3    H160097   4.986   5.048   5.892  0.9198  0.0920  0.3265
12894TIP3    H260098   5.055   4.952   5.796  1.5003  0.4636  0.3719
12895TIP3   OH260099   2.367   3.293   4.407  0.0678  0.2333 -0.5287
12895TIP3    H160100   2.400   3.269   4.320  0.7101  0.6402 -0.4010
12895TIP3    H260101   2.278   3.325   4.390  0.5283  1.2255 -1.1768
12896TIP3   OH260102   6.291   4.464  14.007 -0.4018  0.0303  0.7886
12896TIP3    H160103   6.331   4.403  14.069 -1.3363 -0.2858  1.0949
12896TIP3    H260104   6.204   4.481  14.042 -0.7193  0.3432 -0.1081
12897TIP3   OH260105   6.104   6.720  13.093 -0.5347  0.0411  0.5315
12897TIP3    H160106   6.031   6.781  13.104 -0.3287  0.6879 -1.3698
12897TIP3    H260107   6.065   6.643  13.051 -0.6211 -0.8117  2.1012
12898TIP3   OH260108   2.990   1.368  13.685  0.0648 -0.2906 -0.4093
12898TIP3    H160109   2.901   1.385  13.654  0.2279 -0.4193 -0.9592
12898TIP3    H260110   2.986   1.280  13.721  0.0260 -0.3905 -0.6550
12899TIP3   OH260111   3.157   1.776  17.010  0.1184 -0.0637  0.3975
12899TIP3    H160112   3.075   1.726  17.015  0.7389 -1.2886 -0.7420
12899TIP3    H260113   3.140   1.844  16.945  0.1464 -0.6745 -0.2710
12900TIP3   OH260114   5.676   3.722   2.928 -0.7172 -0.2940 -0.5354
12900TIP3    H160115   5.718   3.773   2.859 -0.9993  0.2167 -0.3382
12900TIP3    H260116   5.627   3.654   2.881 -0.7549 -0.0662 -0.8291
12901TIP3   OH260117   3.297   4.221  11.404  0.0595  0.0636  0.3195
12901TIP3    H160118   3.217   4.169  11.415  1.2735 -2.5065 -1.7763
12901TIP3    H260119   3.266   4.311  11.390 -2.6242 -1.0447 -1.8186
12902TIP3   OH260120   3.772   3.043  15.541 -0.2132  0.1249 -0.4913
12902TIP3    H160121   3.866   3.062  15.543  0.3128 -2.2203  0.3405
12902TIP3    H260122   3.740   3.071  15.627 -0.5767  1.9398 -1.1551
12903TIP3   OH260123   5.416   6.582  16.255  0.2346  0.1116 -0.5936
12903TIP3    H160124   5.377   6.508  16.302  2.8828 -1.6336 -0.9623
12903TIP3    H260125   5.442   6.643  16.324  0.4223 -0.5556 -0.0632
12904TIP3   OH260126   3.422   0.874  14.500  0.4105 -0.0407  0.2254
12904TIP3    H160127   3.358   0.917  14.556  1.1563  0.9514  0.3258
12904TIP3    H260128   3.484   0.943  14.475  2.1247 -1.2016  1.0731
12905TIP3   OH260129   6.451   4.168   3.428 -1.0260 -0.1985  0.0112
12905TIP3    H160130   6.478   4.258   3.442 -1.9491 -0.0656  1.1041
12905TIP3    H260131   6.437   4.133   3.516 -0.4583 -1.4894 -0.3879
12906TIP3   OH260132   2.067   2.201   0.560 -0.6560  0.2020 -0.1028
12906TIP3    H160133   2.033   2.133   0.502  0.7361 -0.1114 -0.6000
12906TIP3    H260134   2.048   2.283   0.516  0.2612 -0.0281 -0.9550
12907TIP3   OH260135   6.307   3.737   4.484 -0.0608  0.2721 -0.1414
12907TIP3    H160136   6.391   3.761   4.444 -0.9566 -0.2155 -2.4943
12907TIP3    H260137   6.312   3.642   4.494  0.7886  0.5011  2.6757
12908TIP3   OH260138   1.132   2.339   3.246  0.2298  0.8471 -0.0107
12908TIP3    H160139   1.152   2.315   3.156  2.6200 -1.6892  1.0561
12908TIP3    H260140   1.177   2.423   3.259  1.4662  0.3104 -0.6600
12909TIP3   OH260141   6.011   3.129  14.043  0.2484  0.0288 -0.3815
12909TIP3    H160142   6.013   3.062  13.976 -0.4173  0.4920 -0.8843
12909TIP3    H260143   6.102   3.152  14.058  0.4859 -1.0304 -0.1492
12910TIP3   OH260144   1.225   4.657   2.087 -0.1326 -0.5732  0.1034
12910TIP3    H160145   1.237   4.655   1.992 -0.3412 -0.4946  0.0748
12910TIP3    H260146   1.289   4.594   2.120  2.1939  1.6488  0.1607
12911TIP3   OH260147   5.814   5.873  12.998 -0.4070  0.0812 -0.8503
12911TIP3    H160148   5.875   5.812  13.041 -0.1738 -0.1993 -1.5618
12911TIP3    H260149   5.766   5.818  12.935  0.4168  0.7784 -2.1287
12912TIP3   OH260150   3.625   1.076  13.605 -0.4274  0.0324 -0.0216
12912TIP3    H160151   3.689   1.124  13.552 -1.0204 -0.5233 -1.2770
12912TIP3    H260152   3.594   1.140  13.669  2.2446 -0.0114  1.4348
12913TIP3   OH260153   6.752   6.579   5.180 -0.1605  0.7558 -0.3513
12913TIP3    H160154   6.765   6.649   5.244  0.8649 -2.0414  2.7177
12913TIP3    H260155   6.840   6.544   5.164 -0.8557 -1.1573 -0.1913
12914TIP3   OH260156   3.234   5.332  15.916 -0.4298 -0.9693  0.2188
12914TIP3    H160157   3.306   5.332  15.978 -0.4006  1.7968  0.3150
12914TIP3    H260158   3.273   5.303  15.834  0.5190 -0.6698  0.5508
12915TIP3   OH260159   3.955   5.776  16.953  0.0397  0.3115  0.1242
12915TIP3    H160160   3.938   5.865  16.985  1.1292  0.5958 -0.0605
12915TIP3    H260161   3.929   5.720  17.026 -3.1075  0.5620 -0.6335
12916TIP3   OH260162   3.964   6.741   0.814 -0.3414  0.7515  0.2907
12916TIP3    H160163   3.928   6.675   0.874  1.6600 -0.3327  0.3757
12916TIP3    H260164   4.007   6.690   0.745  0.3863  1.9782 -0.1938
12917TIP3   OH260165   6.798   5.290  13.475 -0.0965 -1.0142 -0.1138
12917TIP3    H160166   6.850   5.255  13.403 -2.6462 -0.4338 -2.3990
12917TIP3    H260167   6.770   5.376  13.444  0.1875  0.0591  2.3911
12918TIP3   OH260168   5.450   0.647  13.819  0.4700 -0.1885  0.5813
12918TIP3    H160169   5.445   0.668  13.912 -0.3904  0.3680  0.4178
12918TIP3    H260170   5.449   0.551  13.816 -1.2219 -0.2255  1.0868
12919TIP3   OH260171   5.808   1.763   2.649  0.2449  0.1801  0.1364
12919TIP3    H160172   5.791   1.818   2.725  2.3318  0.8271  0.1932
12919TIP3    H260173   5.800   1.674   2.682 -4.7019  0.1784 -0.2845
12920TIP3   OH260174   0.991   6.494   4.416 -0.5059 -0.0814 -0.5304
12920TIP3    H160175   1.048   6.475   4.490 -0.1734  1.0399 -0.4880
12920TIP3    H260176   1.012   6.425   4.352 -1.6646 -1.7950  0.8340
12921TIP3   OH260177   0.270   5.179   2.027  0.6884 -0.3313 -0.1228
12921TIP3    H160178   0.249   5.237   2.100 -1.0207 -0.7757 -0.2037
12921TIP3    H260179   0.204   5.200   1.960 -0.1694 -2.5006 -0.0437
12922TIP3   OH260180   6.047   0.198  14.754 -0.2243 -0.2316  0.3709
12922TIP3    H160181   6.070   0.291  14.750 -3.7765  0.7620 -1.6432
12922TIP3    H260182   6.043   0.170  14.663 -1.9756 -1.5172  0.7824
12923TIP3   OH260183   2.765   0.620  14.866  0.3758 -0.6562  0.0623
12923TIP3    H160184   2.775   0.712  14.890 -1.2559 -0.1030 -1.2130
12923TIP3    H260185   2.855   0.588  14.856  0.9673  0.8056  0.4881
12924TIP3   OH260186   3.478   2.878  16.388 -0.4430 -0.2657  0.0331
12924TIP3    H160187   3.496   2.840  16.473 -1.6135  1.2505  1.0082
12924TIP3    H260188   3.416   2.949  16.405 -0.6489  0.1399 -2.0640
12925TIP3   OH260189   6.190   3.124  12.055 -0.5352  0.2138 -0.1982
12925TIP3    H160190   6.182   3.087  11.967 -1.1751  1.4065 -0.6729
12925TIP3    H260191   6.218   3.214  12.040 -0.9918  0.5351  0.8022
12926TIP3   OH260192   5.815   5.145  16.887 -0.0533  0.9811 -0.2878
12926TIP3    H160193   5.839   5.215  16.826 -0.0441  1.5544  0.3546
12926TIP3    H260194   5.724   5.162  16.909  0.5366  2.1308  1.5515
12927TIP3   OH260195   2.133   1.444   1.737 -0.1895 -0.4577 -0.3687
12927TIP3    H160196   2.122   1.371   1.676  0.8214  0.2608 -1.4504
12927TIP3    H260197   2.226   1.467   1.731 -0.3556  0.5017  0.4431
12928TIP3   OH260198   5.373   5.716   3.467  1.4345  0.9139  0.5973
12928TIP3    H160199   5.453   5.677   3.434  2.5277  3.1368  0.4080
12928TIP3    H260200   5.376   5.806   3.435 -1.0022  1.1489  0.8455
12929TIP3   OH260201   2.494   5.352   5.494 -0.4086 -0.2773  0.6680
12929TIP3    H160202   2.478   5.387   5.407 -0.1634 -0.3443  0.5947
12929TIP3    H260203   2.516   5.260   5.480  0.2324 -0.1423  0.7420
12930TIP3   OH260204   2.297   2.560   3.496  0.6676 -0.7571  0.0252
12930TIP3    H160205   2.332   2.485   3.544 -0.5427 -0.2532  1.7745
12930TIP3    H260206   2.270   2.622   3.564  0.2508  0.6421 -1.3490
12931TIP3   OH260207   1.846   2.468  13.934  0.4228 -0.1015  0.0713
12931TIP3    H160208   1.892   2.486  13.853 -1.8947  0.7954 -1.1270
12931TIP3    H260209   1.798   2.387  13.917  0.2516 -0.1438  0.7127
12932TIP3   OH260210   2.579   3.966   4.106 -0.0480 -1.0440  0.1765
12932TIP3    H160211   2.672   3.943   4.097 -0.2476 -1.4498 -1.0489
12932TIP3    H260212   2.535   3.881   4.117 -0.4595 -1.0352 -1.1983
12933TIP3   OH260213   1.340   2.093  14.069  0.5972 -0.0930 -0.2275
12933TIP3    H160214   1.418   2.145  14.087  0.6860 -0.4175  0.3533
12933TIP3    H260215   1.290   2.096  14.151  1.1549 -1.8633  0.2272
12934TIP3   OH260216   6.633   1.550   1.181  0.3414  0.2577  0.2175
12934TIP3    H160217   6.684   1.591   1.251 -0.7447  0.1608  1.0897
12934TIP3    H260218   6.688   1.477   1.152  0.1859 -0.6184  2.0072
12935TIP3   OH260219   5.127   1.437  13.132  0.0528 -0.2638 -0.0957
12935TIP3    H160220   5.059   1.453  13.066  0.1714  0.6563 -0.0052
12935TIP3    H260221   5.109   1.348  13.163 -0.6051 -0.3412 -0.6681
12936TIP3   OH260222   2.393   0.161   2.225  0.0028  0.3967 -0.0433
12936TIP3    H160223   2.352   0.112   2.153  1.3814 -1.2024  0.1999
12936TIP3    H260224   2.358   0.249   2.216  1.2785  0.7350 -3.7029
12937TIP3   OH260225   5.125   6.490  14.844  0.4108 -0.0121  0.0428
12937TIP3    H160226   5.183   6.566  14.850  0.7038 -0.1507 -0.8763
12937TIP3    H260227   5.048   6.523  14.798  1.0129 -0.5065 -1.4054
12938TIP3   OH260228   0.294   6.421   4.401 -0.1288  0.0118 -0.0560
12938TIP3    H160229   0.339   6.489   4.351  3.5479 -0.6800  1.8995
12938TIP3    H260230   0.279   6.351   4.337  1.2884  0.4723 -0.9544
12939TIP3   OH260231   1.679   4.360  15.548  0.2736 -0.0323  0.3720
12939TIP3    H160232   1.690   4.428  15.614 -1.7299 -0.2334  0.9619
12939TIP3    H260233   1.587   4.335  15.554  0.8865 -2.6739  0.0531
12940TIP3   OH260234   6.437   2.969  13.138 -0.1830  0.1783  0.2794
12940TIP3    H160235   6.349   2.932  13.137 -0.3751  0.6407 -0.8541
12940TIP3    H260236   6.454   2.996  13.048  1.2187 -0.1209  0.4176
12941TIP3   OH260237   3.410   4.712   5.981  0.2304  0.1164  0.2725
12941TIP3    H160238   3.322   4.747   5.966  0.7693  1.0397 -0.9301
12941TIP3    H260239   3.469   4.782   5.953  1.3566 -0.5844  0.8078
12942TIP3   OH260240   4.381   6.795   3.880  0.0879  0.4911 -0.5829
12942TIP3    H160241   4.314   6.749   3.830 -1.4928 -0.8920  2.5206
12942TIP3    H260242   4.363   6.888   3.864 -0.3409  0.1168 -2.4838
12943TIP3   OH260243   1.306   5.955  10.047 -0.1755 -0.0176 -0.0239
12943TIP3    H160244   1.293   6.042  10.008  0.0421 -0.4855 -1.1967
12943TIP3    H260245   1.392   5.960  10.089 -0.7384  0.7331  1.1082
12944TIP3   OH260246   1.531   1.045  15.305 -0.2908 -0.0660  0.9423
12944TIP3    H160247   1.567   0.976  15.248 -0.0125  1.9657 -1.4863
12944TIP3    H260248   1.586   1.122  15.288 -1.7976  1.3317  2.1042
12945TIP3   OH260249   3.361   2.562  14.473 -0.1235  0.2991  0.6090
12945TIP3    H160250   3.450   2.578  14.505  0.0016 -0.1900  0.5150
12945TIP3    H260251   3.343   2.471  14.497 -0.7105  0.4814  0.8833
12946TIP3   OH260252   3.762   3.097   2.351 -0.2174  0.1467  0.1678
12946TIP3    H160253   3.760   3.148   2.270  1.4433  1.1876  0.7179
12946TIP3    H260254   3.832   3.033   2.337  0.2215  0.4622  0.8092
12947TIP3   OH260255   2.912   1.021  12.648  0.2522 -1.1173 -0.6356
12947TIP3    H160256   2.835   1.025  12.592  0.0384  1.4296 -0.3109
12947TIP3    H260257   2.976   0.970  12.597 -1.0964 -1.9048 -1.5971
12948TIP3   OH260258   3.934   4.945   4.057  0.2733  0.5921  0.0401
12948TIP3    H160259   3.914   4.926   4.148 -0.4772  2.0969  0.2242
12948TIP3    H260260   3.850   4.938   4.011  1.0042 -2.6403 -1.0923
12949TIP3   OH260261   3.925   3.483   2.083 -0.1657 -0.5710  0.1823
12949TIP3    H160262   3.844   3.527   2.108 -0.1138 -0.7883  0.7320
12949TIP3    H260263   3.898   3.393   2.065 -0.3483 -0.2400 -1.3574
12950TIP3   OH260264   0.812   0.660   2.067  0.0125  0.0708 -0.3447
12950TIP3    H160265   0.794   0.741   2.114  1.5927 -0.1564  0.7236
12950TIP3    H260266   0.831   0.595   2.135  0.2914 -0.7954 -1.2155
12951TIP3   OH260267   1.921   1.794   5.728 -0.0791 -0.3144 -0.7235
12951TIP3    H160268   1.919   1.828   5.638 -0.1878 -0.0741 -0.6299
12951TIP3    H260269   1.959   1.706   5.719 -0.7226 -0.5623 -1.0866
12952TIP3   OH260270   4.358   0.848   5.736 -0.3504 -0.3497 -0.0613
12952TIP3    H160271   4.338   0.755   5.725  1.6786 -1.0454  1.6035
12952TIP3    H260272   4.354   0.863   5.830  0.4657  0.9889 -0.2087
12953TIP3   OH260273   0.543   0.859  11.816  0.7857  0.5214 -0.4407
12953TIP3    H160274   0.594   0.781  11.835  1.4634  1.0174 -0.1944
12953TIP3    H260275   0.488   0.833  11.742 -0.3770 -0.7651  0.8119
12954TIP3   OH260276   1.138   6.605  12.786  0.2654  0.6325 -0.3452
12954TIP3    H160277   1.156   6.632  12.876  1.1522 -1.2315  0.0836
12954TIP3    H260278   1.081   6.674  12.752 -0.4307  1.1931  1.7553
12955TIP3   OH260279   3.986   5.906   0.609  0.2345  0.0250 -0.2567
12955TIP3    H160280   3.908   5.892   0.662  0.8463  0.6469  0.8574
12955TIP3    H260281   4.011   5.996   0.626  1.2427 -0.1884 -0.5171
12956TIP3   OH260282   6.674   3.327  12.893 -0.0104 -0.0478 -0.3618
12956TIP3    H160283   6.741   3.311  12.960 -0.7714 -1.4745  0.1121
12956TIP3    H260284   6.718   3.379  12.826  0.8830  1.1285  1.0653
12957TIP3   OH260285   5.200   1.301   1.276 -0.3066 -0.1152 -0.3865
12957TIP3    H160286   5.203   1.256   1.361  0.0681 -1.0470 -0.8714
12957TIP3    H260287   5.283   1.346   1.270 -0.9015  1.1329  0.3395
12958TIP3   OH260288   4.547   2.321  16.353 -0.2178  0.1734  0.1012
12958TIP3    H160289   4.458   2.315  16.386 -0.0027 -0.0095  0.6663
12958TIP3    H260290   4.560   2.240  16.303 -0.4053  0.2510 -0.0699
12959TIP3   OH260291   3.524   5.191   1.689  0.3353 -0.1053  0.0294
12959TIP3    H160292   3.526   5.286   1.689 -1.7352 -0.0049 -0.4092
12959TIP3    H260293   3.434   5.169   1.662  0.7942 -2.1739  0.0067
12960TIP3   OH260294   2.442   2.532   5.201  0.2521  0.3062 -0.0844
12960TIP3    H160295   2.390   2.570   5.130 -0.5595 -2.2815 -0.9836
12960TIP3    H260296   2.390   2.549   5.280 -1.3928 -1.0240 -0.7976
12961TIP3   OH260297   1.507   1.616  16.979  0.0618  0.8731  0.0917
12961TIP3    H160298   1.532   1.681  16.913 -0.8635  2.5651  1.3343
12961TIP3    H260299   1.508   1.532  16.932  1.3840  1.7454 -1.5340
12962TIP3   OH260300   5.583   2.259  16.514  0.3348  0.0170  0.8003
12962TIP3    H160301   5.541   2.194  16.570 -1.2784 -0.6190 -1.0482
12962TIP3    H260302   5.554   2.237  16.425  2.0442  1.5457 -0.2146
12963TIP3   OH260303   3.784   0.359   1.565  0.0246  0.4259 -0.3993
12963TIP3    H160304   3.878   0.340   1.573 -0.2801 -0.5435  1.5536
12963TIP3    H260305   3.761   0.400   1.648 -1.1047  1.5388 -1.2419
12964TIP3   OH260306   1.947   3.660   4.746 -0.1679 -0.3508  0.1936
12964TIP3    H160307   1.951   3.755   4.762  0.5685 -0.0049 -1.7896
12964TIP3    H260308   1.868   3.632   4.793 -0.7394  1.3502  0.3341
12965TIP3   OH260309   2.675   3.301   2.164  0.1588  0.2159 -0.5925
12965TIP3    H160310   2.604   3.329   2.221  1.0487  1.4377 -0.0318
12965TIP3    H260311   2.644   3.220   2.124 -1.2720  0.3850  0.1271
12966TIP3   OH260312   6.026   1.441   1.166  0.4329 -0.6563 -0.4633
12966TIP3    H160313   6.070   1.451   1.082  1.3293 -1.7093 -0.1443
12966TIP3    H260314   5.967   1.516   1.171 -0.2128 -0.9815 -2.3704
12967TIP3   OH260315   2.399   4.934  11.605 -0.2285  0.1339  0.4968
12967TIP3    H160316   2.323   4.983  11.636 -0.1179  2.2959 -2.3131
12967TIP3    H260317   2.469   4.999  11.598  0.7761 -1.0101 -0.6136
12968TIP3   OH260318   1.415   1.584   2.735 -0.4653 -0.1354  0.5153
12968TIP3    H160319   1.349   1.590   2.666 -1.5183 -0.8779  1.4069
12968TIP3    H260320   1.444   1.674   2.749 -0.7935  0.1184 -0.3501
12969TIP3   OH260321   3.324   3.623   1.286 -0.1597  0.1189  0.4081
12969TIP3    H160322   3.320   3.672   1.204  0.5483  0.5096  0.5932
12969TIP3    H260323   3.235   3.629   1.322 -0.9856 -1.6112 -1.1801
12970TIP3   OH260324   5.624   3.019  11.215 -0.2066  0.2109 -0.7291
12970TIP3    H160325   5.584   3.044  11.131 -0.5586 -0.8016 -0.8808
12970TIP3    H260326   5.561   3.047  11.281 -1.0064 -0.9917 -0.9447
12971TIP3   OH260327   5.606   3.644  11.421  0.2652  0.2974  0.1571
12971TIP3    H160328   5.630   3.562  11.376 -0.0203 -0.0562  0.6410
12971TIP3    H260329   5.622   3.712  11.356  1.9979  0.0253  0.2453
12972TIP3   OH260330   5.070   0.156   2.999  0.1430 -0.3752 -0.4408
12972TIP3    H160331   5.129   0.161   3.074  1.0543 -3.1128 -0.8795
12972TIP3    H260332   5.004   0.223   3.017  1.3858  0.3627  1.8292
12973TIP3   OH260333   0.086   3.264   5.126 -0.3127 -0.0612 -0.1629
12973TIP3    H160334   0.012   3.206   5.108 -0.4785 -0.3625  1.3848
12973TIP3    H260335   0.163   3.216   5.094 -0.6137 -0.4569 -0.2913
12974TIP3   OH260336   0.984   4.099  13.112 -0.9096  0.1270 -0.4780
12974TIP3    H160337   1.053   4.102  13.178 -0.5996  0.8704 -0.8247
12974TIP3    H260338   0.944   4.013  13.124 -1.4385  0.5686  1.2462
12975TIP3   OH260339   3.288   4.704   0.035  0.4542  0.4831  0.0049
12975TIP3    H160340   3.245   4.745  -0.040  1.7906  1.0008 -0.5053
12975TIP3    H260341   3.377   4.739   0.034  0.9856 -0.7649  0.8719
12976TIP3   OH260342   0.206   2.962   2.403 -0.3998  0.1620  0.7517
12976TIP3    H160343   0.244   3.037   2.356  0.3657 -0.7775 -0.2071
12976TIP3    H260344   0.221   2.981   2.495  1.6410  0.2672  0.4449
12977TIP3   OH260345   5.867   4.043   2.189  0.6598  0.2984  1.1140
12977TIP3    H160346   5.853   3.959   2.144 -0.2329  1.9502 -1.9854
12977TIP3    H260347   5.794   4.050   2.250  0.2414 -0.7788  0.7679
12978TIP3   OH260348   1.411   0.376  14.343 -0.0929 -0.1755 -0.3046
12978TIP3    H160349   1.390   0.468  14.358 -0.6228 -0.7096  3.2767
12978TIP3    H260350   1.327   0.331  14.349 -0.2464 -0.8323 -4.6170
12979TIP3   OH260351   2.029   1.936   1.790 -0.3303 -0.2938 -0.0665
12979TIP3    H160352   2.081   1.924   1.869  0.3821 -0.9497 -0.6064
12979TIP3    H260353   2.053   2.023   1.758 -0.4249 -0.1326  0.3062
12980TIP3   OH260354   5.840   0.255   1.959  0.7443  0.0510  0.3089
12980TIP3    H160355   5.764   0.205   1.986  1.3306 -2.1035 -1.7091
12980TIP3    H260356   5.812   0.300   1.880  1.7678 -1.5627 -1.0357
12981TIP3   OH260357   3.120   4.720  12.558 -0.7834  0.1613 -0.3348
12981TIP3    H160358   3.199   4.749  12.603 -0.8213  1.3328 -0.9672
12981TIP3    H260359   3.071   4.801  12.542 -2.1042 -0.5307  0.0110
12982TIP3   OH260360   3.757   1.536  14.903 -0.3744  0.1893 -0.6361
12982TIP3    H160361   3.723   1.616  14.943 -1.4598 -0.0463 -1.0501
12982TIP3    H260362   3.782   1.562  14.815  0.1664  0.2741 -0.4610
12983TIP3   OH260363   1.984   6.810  11.602  0.1173 -0.7523  0.7155
12983TIP3    H160364   2.065   6.759  11.606 -0.1287 -1.1608  0.5191
12983TIP3    H260365   2.001   6.875  11.534 -0.1575 -1.6169 -0.1975
12984TIP3   OH260366   3.185   1.170  15.477  0.3659 -0.0416  0.0515
12984TIP3    H160367   3.111   1.182  15.536 -1.2203  0.9845 -2.0070
12984TIP3    H260368   3.145   1.144  15.394  2.2238  1.3339 -1.3465
12985TIP3   OH260369   2.737   2.381   2.793  0.4332  0.4584  0.4598
12985TIP3    H160370   2.729   2.297   2.838  0.3253  0.9091  1.2934
12985TIP3    H260371   2.827   2.409   2.811  1.1183 -0.3546 -1.4053
12986TIP3   OH260372   6.255   2.745   3.481 -0.3073  0.7314 -0.1107
12986TIP3    H160373   6.218   2.748   3.570  1.4182 -0.2528  0.6810
12986TIP3    H260374   6.316   2.671   3.483 -2.4050 -1.2772 -3.0224
12987TIP3   OH260375   5.013   3.292   5.797  0.3321 -0.2047 -0.1263
12987TIP3    H160376   5.004   3.310   5.890  1.3825 -1.8844  0.3543
12987TIP3    H260377   4.948   3.224   5.780  1.3612 -1.2102 -0.1682
12988TIP3   OH260378   0.941   6.665   2.995  0.4044 -0.4717 -0.4695
12988TIP3    H160379   1.000   6.736   3.019 -0.7822  0.7625 -1.0255
12988TIP3    H260380   0.903   6.635   3.077  0.3763  0.0405 -0.2961
12989TIP3   OH260381   0.879   6.508   4.085 -0.2928  0.0877  0.4981
12989TIP3    H160382   0.821   6.501   4.161 -0.8047 -3.6850 -0.0572
12989TIP3    H260383   0.967   6.500   4.121 -0.3488  1.0108  0.8844
12990TIP3   OH260384   4.870   2.848   3.944 -0.7601 -0.1047 -0.1634
12990TIP3    H160385   4.895   2.912   3.878  0.9349 -0.3965  0.1307
12990TIP3    H260386   4.875   2.764   3.899  2.6831 -0.5625  0.7580
12991TIP3   OH260387   0.751   1.220   0.493 -0.0521  0.3363 -0.2559
12991TIP3    H160388   0.780   1.310   0.508 -0.9801  0.7919 -1.1187
12991TIP3    H260389   0.678   1.208   0.554 -1.2684  0.8820 -1.5460
12992TIP3   OH260390   4.674   2.335  11.052 -0.2977  0.4782 -0.0621
12992TIP3    H160391   4.673   2.405  10.987  1.6846 -0.2434 -0.9581
12992TIP3    H260392   4.627   2.263  11.011 -0.4033  0.5435 -0.0557
12993TIP3   OH260393   4.074   5.191   5.077 -0.5233 -0.2206 -0.0923
12993TIP3    H160394   4.064   5.282   5.048 -1.6078 -0.3987 -0.3382
12993TIP3    H260395   3.984   5.157   5.080 -0.0592 -1.6514 -1.2059
12994TIP3   OH260396   3.420   0.966   3.477  0.3335 -0.2170  0.2246
12994TIP3    H160397   3.482   1.030   3.511  0.8615  0.3573 -1.7157
12994TIP3    H260398   3.352   1.018   3.434  1.0949 -0.8867 -1.9396
12995TIP3   OH260399   2.093   1.738  13.977 -0.3036  0.0947  0.1455
12995TIP3    H160400   2.080   1.820  14.025  0.7458  0.3591 -0.0066
12995TIP3    H260401   2.066   1.759  13.887 -1.1314 -0.0691  0.3399
12996TIP3   OH260402   6.193   4.031   4.695  0.5788  0.7630 -0.3324
12996TIP3    H160403   6.288   4.046   4.693  0.6861  0.1104 -2.1836
12996TIP3    H260404   6.183   3.939   4.671 -0.4722  0.2628  1.8160
12997TIP3   OH260405   6.318   4.382  12.655  0.3746 -0.7088  0.5809
12997TIP3    H160406   6.333   4.466  12.613  0.9154 -1.6743 -1.2322
12997TIP3    H260407   6.240   4.347  12.612 -0.7343 -0.5508  2.3346
12998TIP3   OH260408   6.684   5.436   1.199 -0.1965  0.2681 -0.3492
12998TIP3    H160409   6.663   5.521   1.237  3.1754  0.9080  0.4671
12998TIP3    H260410   6.689   5.452   1.105 -2.8535  0.0774 -0.5908
12999TIP3   OH260411   4.918   4.988   1.825  0.4296  0.0338  0.2779
12999TIP3    H160412   4.907   4.912   1.883  0.9993 -0.5804 -0.4053
12999TIP3    H260413   4.935   4.950   1.739  0.9517  0.9401 -0.0235
13000TIP3   OH260414   3.299   2.258  16.336 -0.9257  0.3627  0.6722
13000TIP3    H160415   3.275   2.226  16.250 -0.1435 -0.8004  0.8679
13000TIP3    H260416   3.221   2.245  16.389 -1.0140 -0.0722  0.4390
13001TIP3   OH260417   3.710   5.803   0.962 -0.4656 -0.2606  0.1204
13001TIP3    H160418   3.800   5.835   0.965 -0.6392  0.3504 -0.6768
13001TIP3    H260419   3.696   5.780   0.870 -2.2581  3.1734 -0.6580
13002TIP3   OH260420   3.528   4.754  12.287  0.1218  0.2487 -0.1066
13002TIP3    H160421   3.603   4.718  12.334  1.2935  1.0032 -1.3075
13002TIP3    H260422   3.567   4.808  12.218 -1.5392  1.7178  0.0265
13003TIP3   OH260423   2.927   1.124  13.809  0.4008  0.4235  0.9816
13003TIP3    H160424   2.990   1.058  13.838  1.4482 -0.1727 -2.2285
13003TIP3    H260425   2.842   1.092  13.839  1.1208 -1.3607  1.2026
13004TIP3   OH260426   0.011   1.504  12.337  0.1281 -0.2689 -0.4108
13004TIP3    H160427  -0.032   1.469  12.415  1.8152 -1.0013  0.2434
13004TIP3    H260428   0.002   1.599  12.344 -1.0833 -0.3822 -0.1565
13005TIP3   OH260429   2.454   5.479  13.492  0.2126 -0.2845  0.3464
13005TIP3    H160430   2.526   5.463  13.431  0.3902 -0.6520  0.6452
13005TIP3    H260431   2.490   5.458  13.578  0.1019  0.6623  0.6358
13006TIP3   OH260432   3.692   3.409  14.874 -0.0832 -0.0152  0.2258
13006TIP3    H160433   3.726   3.364  14.951 -0.3484  0.4821  0.6459
13006TIP3    H260434   3.600   3.426  14.895 -0.3045 -0.3617 -0.4316
13007TIP3   OH260435   2.979   4.526   2.922 -0.2083  0.5285  0.5221
13007TIP3    H160436   2.983   4.621   2.934 -0.4590  0.4579  1.2326
13007TIP3    H260437   3.036   4.509   2.847 -0.8158  1.3262 -0.1571
13008TIP3   OH260438   1.382   1.354   0.472 -0.7747  0.5222  0.0295
13008TIP3    H160439   1.389   1.272   0.520 -0.6521  0.1045 -0.6919
13008TIP3    H260440   1.360   1.419   0.539  0.0565  0.0781  0.7526
13009TIP3   OH260441   1.098   2.324   6.503  0.1184 -0.3259  0.4276
13009TIP3    H160442   1.056   2.377   6.571 -0.0554  0.7779 -0.5199
13009TIP3    H260443   1.096   2.235   6.538 -0.5707  0.1172  1.5756
13010TIP3   OH260444   3.733   4.534   3.731 -0.2683 -0.6618  0.6744
13010TIP3    H160445   3.775   4.617   3.755  0.3718 -0.5108 -0.8058
13010TIP3    H260446   3.643   4.558   3.709  0.5103  0.1420 -2.0657
13011TIP3   OH260447   5.649   5.743  16.209 -0.2811  0.1335 -0.2091
13011TIP3    H160448   5.581   5.802  16.176  1.7498  1.6921 -1.9019
13011TIP3    H260449   5.652   5.760  16.303  0.1238  2.6712 -0.6165
13012TIP3   OH260450   6.143   6.159   0.738 -0.2179  0.7998 -0.1708
13012TIP3    H160451   6.114   6.250   0.727 -0.9719  0.7226  0.9848
13012TIP3    H260452   6.070   6.116   0.781 -0.0976 -0.5211 -1.2265
13013TIP3   OH260453   0.255   2.501   1.063 -0.1306 -0.1015  0.2068
13013TIP3    H160454   0.230   2.465   1.149 -1.7939 -0.0711 -0.2213
13013TIP3    H260455   0.183   2.475   1.005  2.3833 -2.8692 -1.9807
13014TIP3   OH260456   0.277   4.169  16.239  0.2307 -0.1277  0.0610
13014TIP3    H160457   0.246   4.242  16.185  0.7217  0.8561  1.0697
13014TIP3    H260458   0.352   4.205  16.287  0.4593 -1.2875  0.6006
13015TIP3   OH260459   1.965   2.712   5.178 -0.2999  0.3441  0.1568
13015TIP3    H160460   2.029   2.758   5.232 -1.6900  1.4810  0.9014
13015TIP3    H260461   1.939   2.776   5.111 -1.0501  0.0970  0.2010
13016TIP3   OH260462   3.487   4.980   5.575  0.0698  0.1134 -0.1220
13016TIP3    H160463   3.476   5.026   5.492  0.7241  0.4081 -0.0443
13016TIP3    H260464   3.425   5.024   5.635  0.3316  0.5656 -0.1811
13017TIP3   OH260465   1.052   6.083  13.101 -0.2141  0.1984  0.1946
13017TIP3    H160466   1.050   6.033  13.183  1.5319 -0.4985 -0.1478
13017TIP3    H260467   1.088   6.168  13.126 -1.0722  0.5146  0.3877
13018TIP3   OH260468   4.273   1.575   0.766  0.1183 -0.3339  0.0336
13018TIP3    H160469   4.270   1.564   0.671  1.8529  2.3754 -0.4443
13018TIP3    H260470   4.365   1.560   0.789 -0.3888 -1.5607  1.4294
13019TIP3   OH260471   0.460   2.188   6.189 -0.2759  0.0048  0.6360
13019TIP3    H160472   0.428   2.127   6.257  0.5598  0.4297  1.4391
13019TIP3    H260473   0.526   2.241   6.234  1.2794 -0.5801 -0.8367
13020TIP3   OH260474   1.235   1.115  15.912 -0.0744 -0.1774  0.0756
13020TIP3    H160475   1.170   1.050  15.885 -0.2728  0.1930 -0.3593
13020TIP3    H260476   1.250   1.168  15.833  1.5687 -0.9257 -0.1764
13021TIP3   OH260477   3.694   4.154  13.688  0.8493 -0.0687  0.3141
13021TIP3    H160478   3.751   4.120  13.619  1.8474  1.2696  0.4198
13021TIP3    H260479   3.673   4.243  13.660  2.0836  0.8860  2.1383
13022TIP3   OH260480   5.479   2.265   2.493  0.7554  0.3540 -0.1375
13022TIP3    H160481   5.436   2.301   2.571  1.1264  2.3002 -0.7780
13022TIP3    H260482   5.440   2.179   2.482 -1.3744  1.1535  0.5881
13023TIP3   OH260483   6.713   2.986  16.133 -0.2808 -0.9272 -0.6208
13023TIP3    H160484   6.763   2.905  16.120  3.0545  0.4766  1.9248
13023TIP3    H260485   6.732   3.012  16.223 -0.3479  3.1380 -1.5612
13024TIP3   OH260486   2.532   6.622   0.555  0.4575  0.1915  0.4806
13024TIP3    H160487   2.600   6.573   0.601  0.4462 -0.8914 -0.6097
13024TIP3    H260488   2.543   6.713   0.585  1.9135 -0.0911  0.8562
13025TIP3   OH260489   6.661   4.744   2.232  1.0959  0.1623  0.2657
13025TIP3    H160490   6.743   4.793   2.236  0.4936  1.2011  0.1875
13025TIP3    H260491   6.633   4.735   2.323 -0.0250  2.1311  0.1641
13026TIP3   OH260492   1.988   3.266   5.305  0.0737  0.6897  0.6233
13026TIP3    H160493   2.027   3.183   5.332 -1.6260 -0.4554 -0.2504
13026TIP3    H260494   1.994   3.265   5.209  1.4367  2.3196  0.6597
13027TIP3   OH260495   0.362   1.553  16.169 -0.7232 -0.0706  0.0314
13027TIP3    H160496   0.434   1.574  16.109 -1.9582 -0.5978 -1.7324
13027TIP3    H260497   0.380   1.463  16.196  1.3900  1.0532  2.8898
13028TIP3   OH260498   2.068   1.360   3.450 -0.2554 -0.8335 -0.8249
13028TIP3    H160499   2.028   1.427   3.504 -2.6494 -1.0026 -2.2284
13028TIP3    H260500   2.158   1.390   3.436 -0.4137  0.5790  0.9219
13029TIP3   OH260501   2.371   0.811   2.020 -0.1331  0.2379  0.0377
13029TIP3    H160502   2.447   0.826   2.075 -1.2028  0.4448  1.5334
13029TIP3    H260503   2.398   0.741   1.960  1.7800  1.5128 -0.6697
13030TIP3   OH260504   3.446   2.033  11.587 -0.3985 -0.1199 -0.2181
13030TIP3    H160505   3.491   2.022  11.671  0.9947  1.9788 -0.6200
13030TIP3    H260506   3.512   2.010  11.521 -0.1621  2.0170 -0.7956
13031TIP3   OH260507   4.260   0.644   1.560  0.0006 -0.2920  0.7124
13031TIP3    H160508   4.321   0.688   1.621  1.3409 -1.1858  0.0609
13031TIP3    H260509   4.202   0.594   1.617 -0.0057  0.4038  1.3445
13032TIP3   OH260510   0.957   0.193   6.057  0.7303  0.4406  0.2232
13032TIP3    H160511   0.897   0.119   6.061  0.7396  0.4637  3.2770
13032TIP3    H260512   1.023   0.167   5.994 -0.2711 -1.3405 -0.1672
13033TIP3   OH260513   5.803   6.624  12.493 -0.4025  0.0316  0.1759
13033TIP3    H160514   5.709   6.606  12.492 -0.3912 -0.1127  0.9820
13033TIP3    H260515   5.828   6.629  12.400 -1.1983  0.0580 -0.0411
13034TIP3   OH260516   2.594   1.713   0.560  0.2343 -0.4527 -0.6518
13034TIP3    H160517   2.519   1.727   0.502 -0.9801  0.5277  1.0611
13034TIP3    H260518   2.629   1.800   0.576  0.3662 -0.6704  0.3060
13035TIP3   OH260519   3.286   6.580   6.244 -0.1270 -0.7666  0.2556
13035TIP3    H160520   3.301   6.500   6.194  0.4251 -1.6367  1.7549
13035TIP3    H260521   3.227   6.554   6.315  0.0104  0.1528  0.7339
13036TIP3   OH260522   2.297   0.609  11.393 -0.6900  0.3242 -0.0441
13036TIP3    H160523   2.383   0.582  11.360 -2.0064 -1.5054 -2.2134
13036TIP3    H260524   2.289   0.566  11.478  0.1234 -0.3278 -0.2881
13037TIP3   OH260525   1.770   0.855  15.263  0.3217 -0.0260 -0.1534
13037TIP3    H160526   1.834   0.910  15.306 -0.8666  0.1093  1.5487
13037TIP3    H260527   1.795   0.856  15.170  2.1481  0.8035  0.3080
13038TIP3   OH260528   3.246   2.070  12.657 -0.2076  0.2929 -0.3034
13038TIP3    H160529   3.317   2.008  12.636  0.2955  1.2223 -1.5250
13038TIP3    H260530   3.227   2.055  12.749  2.1634  0.5570  0.2900
13039TIP3   OH260531   4.441   0.676   4.676 -0.4043 -0.2506  1.4938
13039TIP3    H160532   4.419   0.622   4.752 -1.7784 -1.3947  0.3507
13039TIP3    H260533   4.534   0.695   4.686  0.2235 -3.0298  1.8774
13040TIP3   OH260534   6.456   0.783  14.415  0.5248  0.0928 -0.3234
13040TIP3    H160535   6.433   0.764  14.506  0.8173 -0.6164 -0.3945
13040TIP3    H260536   6.372   0.800  14.372  0.2679 -0.8471 -0.2075
13041TIP3   OH260537   1.690   2.679   5.139  0.4585  0.1244  0.5886
13041TIP3    H160538   1.761   2.740   5.157  0.2731 -0.1050  2.2312
13041TIP3    H260539   1.611   2.734   5.138  0.4812  0.1570  0.2501
13042TIP3   OH260540   4.545   4.577  13.518 -0.0400 -0.5200  0.3769
13042TIP3    H160541   4.583   4.644  13.461 -1.4836 -1.2533 -1.5843
13042TIP3    H260542   4.476   4.622  13.566  0.0533 -0.2468  0.2563
13043TIP3   OH260543   4.110   4.429   4.309  0.1485  0.2132  0.3677
13043TIP3    H160544   4.140   4.483   4.382  0.6536 -1.3906  1.4068
13043TIP3    H260545   4.177   4.441   4.242 -0.4468  1.8920  0.0342
13044TIP3   OH260546   2.084   4.816   0.006  0.1788 -0.0528 -0.6459
13044TIP3    H160547   2.011   4.757  -0.010 -0.1715 -0.0571  0.8011
13044TIP3    H260548   2.044   4.899   0.029  0.4111 -0.8645  3.4145
13045TIP3   OH260549   3.944   2.229  16.466 -0.3052 -0.1085  0.2303
13045TIP3    H160550   3.944   2.280  16.385 -0.7064 -1.9358 -0.9895
13045TIP3    H260551   3.941   2.294  16.535  1.4012  1.5816 -1.1674
13046TIP3   OH260552   2.114   3.921   4.115  0.3311 -0.4399 -0.1932
13046TIP3    H160553   2.033   3.954   4.076 -0.1336 -0.5502  0.6645
13046TIP3    H260554   2.164   3.999   4.136 -0.2089 -0.3121  0.6510
13047TIP3   OH260555   5.757   4.253   3.130 -0.3224 -0.0587  0.8378
13047TIP3    H160556   5.679   4.249   3.074  1.9528  0.7219 -2.7087
13047TIP3    H260557   5.744   4.332   3.182 -0.8602  1.5580 -1.5788
13048TIP3   OH260558   2.330   2.033  16.694  0.2465 -0.2870 -0.2193
13048TIP3    H160559   2.424   2.029  16.681  0.3802 -1.1430  0.8597
13048TIP3    H260560   2.318   2.023  16.788 -0.8220  2.3432  0.0082
13049TIP3   OH260561   0.702   2.273  10.713 -0.2893 -0.3903  0.3550
13049TIP3    H160562   0.669   2.337  10.650  0.4060 -0.8564 -0.4999
13049TIP3    H260563   0.714   2.323  10.794 -3.3846 -0.2407  0.8655
13050TIP3   OH260564   6.634   0.003  15.739 -0.2262  0.1935 -0.1114
13050TIP3    H160565   6.645  -0.079  15.691 -0.8186  0.7908 -1.3159
13050TIP3    H260566   6.715   0.011  15.790 -0.2935 -1.2817  0.2924
13051TIP3   OH260567   3.346   2.666   5.322 -0.3124 -0.2666  0.4329
13051TIP3    H160568   3.344   2.761   5.326 -0.7788 -0.2233 -0.5221
13051TIP3    H260569   3.432   2.645   5.287 -0.1983 -0.1964  0.6736
13052TIP3   OH260570   0.256   5.045  13.033 -0.6390 -0.1105 -0.8070
13052TIP3    H160571   0.256   4.952  13.011  1.0239 -0.2698 -0.2081
13052TIP3    H260572   0.296   5.087  12.957 -0.9272  0.0719 -0.8607
13053TIP3   OH260573   0.642   4.159  14.999 -0.2994 -0.5052 -0.2470
13053TIP3    H160574   0.592   4.109  14.935  0.1585 -0.6418 -0.5038
13053TIP3    H260575   0.609   4.248  14.992 -2.3961 -1.0749  1.4766
13054TIP3   OH260576   6.110   4.465  16.168  0.1066 -0.4746 -0.4714
13054TIP3    H160577   6.044   4.512  16.219  2.0119  0.7123  1.0565
13054TIP3    H260578   6.164   4.421  16.233  2.3468  0.6854 -1.4215
13055TIP3   OH260579   1.983   6.759  13.605  0.0011 -0.5488 -0.1507
13055TIP3    H160580   2.040   6.793  13.536  0.7458  0.3485  0.8893
13055TIP3    H260581   1.993   6.663  13.600  0.3657 -0.4743 -0.9997
13056TIP3   OH260582   0.058   5.757   4.392 -0.2819 -0.6027  0.6712
13056TIP3    H160583   0.049   5.662   4.397 -1.3941 -0.6724 -1.3413
13056TIP3    H260584  -0.023   5.787   4.350  0.9550  0.9692 -0.7799
13057TIP3   OH260585   6.693   1.796  13.872 -0.0542 -0.1638 -0.5065
13057TIP3    H160586   6.713   1.859  13.803  0.2912  1.3525  0.9079
13057TIP3    H260587   6.753   1.818  13.943 -0.8896 -1.1756  0.5683
13058TIP3   OH260588   3.405   2.805  11.738  0.1832 -0.8164 -0.4431
13058TIP3    H160589   3.456   2.726  11.721  1.2359 -0.4567  0.8612
13058TIP3    H260590   3.321   2.773  11.771  1.3886 -1.4647  2.2685
13059TIP3   OH260591   5.763   2.074  12.250 -0.2216  0.2327 -0.2121
13059TIP3    H160592   5.838   2.082  12.191 -0.9917  1.2934 -1.1000
13059TIP3    H260593   5.724   2.161  12.250 -1.7234 -0.4087 -0.1571
13060TIP3   OH260594   5.326   1.213   3.582  0.1279 -1.0578 -0.8834
13060TIP3    H160595   5.301   1.213   3.674  0.0570 -0.1210 -0.9007
13060TIP3    H260596   5.243   1.200   3.535 -0.1291  0.4471 -0.8795
13061TIP3   OH260597   0.338   3.929   3.116  0.4926  0.0606  0.1938
13061TIP3    H160598   0.310   3.948   3.205 -1.9038 -1.0116 -0.2338
13061TIP3    H260599   0.362   3.837   3.117  0.8711  0.1489 -0.1978
13062TIP3   OH260600   3.090   0.618  10.866 -0.5944  0.0250  0.1915
13062TIP3    H160601   3.060   0.676  10.796 -1.8641  0.0898  0.7674
13062TIP3    H260602   3.166   0.573  10.829 -1.1268  0.1923 -1.1534
13063TIP3   OH260603   3.727   2.915  11.670 -0.0438  0.4456 -0.0903
13063TIP3    H160604   3.758   2.833  11.707 -0.0783  0.1797 -0.6505
13063TIP3    H260605   3.666   2.890  11.601  0.3921  0.9251 -0.6643
13064TIP3   OH260606   5.356   1.043   1.176  0.1727  0.1185 -0.1022
13064TIP3    H160607   5.304   1.006   1.248  1.9681 -0.5763  0.9064
13064TIP3    H260608   5.325   1.133   1.168 -0.4975  0.0278  1.1226
13065TIP3   OH260609   1.722   4.150   3.755 -0.0191 -0.6316  0.8054
13065TIP3    H160610   1.663   4.140   3.680  0.4067 -0.3541  0.4228
13065TIP3    H260611   1.685   4.223   3.805  1.3402  1.2846 -0.7872
13066TIP3   OH260612   4.914   1.080   5.501  0.2209  1.0279 -0.0654
13066TIP3    H160613   4.933   1.074   5.594 -0.3783  0.5010  0.0300
13066TIP3    H260614   4.964   1.008   5.462 -1.7737 -0.6228  0.2363
13067TIP3   OH260615   0.039   4.979  13.916  0.5402  0.4777  0.3850
13067TIP3    H160616  -0.050   4.978  13.952 -0.9454  1.0585 -2.9092
13067TIP3    H260617   0.062   5.072  13.911  1.2510  0.3417  0.9324
13068TIP3   OH260618   3.089   4.182   3.491  0.3869  0.1255  0.2453
13068TIP3    H160619   3.125   4.228   3.567  1.1453  0.4552 -0.2989
13068TIP3    H260620   3.166   4.152   3.443 -0.0746  0.3916 -0.6768
13069TIP3   OH260621   1.302   3.805   3.344 -0.5609 -0.0717 -0.2605
13069TIP3    H160622   1.383   3.827   3.298  0.3571  1.1530  1.8217
13069TIP3    H260623   1.270   3.888   3.379 -2.5566 -0.5788 -0.7175
13070TIP3   OH260624   1.958   0.187   0.771 -0.2431 -0.3255 -0.0420
13070TIP3    H160625   1.992   0.166   0.858 -2.3315  0.0405  0.9303
13070TIP3    H260626   1.882   0.129   0.761  0.3761 -0.8905 -1.9713
13071TIP3   OH260627   1.628   0.855  13.486 -0.1796  0.1805 -0.7895
13071TIP3    H160628   1.716   0.839  13.452 -0.1697 -0.5136 -0.4532
13071TIP3    H260629   1.607   0.944  13.458 -0.0452 -0.2480 -2.3468
13072TIP3   OH260630   6.768   6.790   2.059 -0.3292  0.1377  0.8893
13072TIP3    H160631   6.673   6.790   2.053 -0.3040  0.8662  0.4349
13072TIP3    H260632   6.799   6.798   1.969  0.1957 -1.6034  0.8714
13073TIP3   OH260633   2.209   2.155  11.736  0.6991  0.4682 -0.3055
13073TIP3    H160634   2.172   2.092  11.798  0.7333 -0.1134 -0.8556
13073TIP3    H260635   2.303   2.155  11.755  0.8267 -0.3103 -0.8607
13074TIP3   OH260636   2.243   2.363  15.177  0.2650  0.5792  0.6965
13074TIP3    H160637   2.149   2.372  15.162  0.2767 -2.0691 -1.8932
13074TIP3    H260638   2.249   2.323  15.264 -1.2078 -1.0998  0.0893
13075TIP3   OH260639   2.097   4.817   4.012  0.5005 -0.0934  0.1246
13075TIP3    H160640   2.124   4.885   3.950 -1.1730  0.1050 -0.4559
13075TIP3    H260641   2.119   4.735   3.969  0.0865  0.0584 -0.3902
13076TIP3   OH260642   0.797   3.688   3.038  0.7732 -0.5054  0.0143
13076TIP3    H160643   0.869   3.627   3.050 -0.6974 -2.1975  0.7966
13076TIP3    H260644   0.720   3.632   3.028 -0.7598  1.2004  1.5411
13077TIP3   OH260645   6.189   3.377  12.303 -0.2758  0.2401  0.0066
13077TIP3    H160646   6.192   3.408  12.212  0.7686  1.7180  0.5034
13077TIP3    H260647   6.120   3.428  12.344  1.5836  2.2068  0.8790
13078TIP3   OH260648   1.934   5.496  13.323  0.2107  0.1857  0.3059
13078TIP3    H160649   1.961   5.505  13.232 -0.0961  1.2034  0.3028
13078TIP3    H260650   2.015   5.505  13.374  0.4099 -0.5751  0.1344
13079TIP3   OH260651   1.019   3.546   0.928  0.4217 -0.3155  1.0498
13079TIP3    H160652   1.074   3.623   0.940  0.1495  0.2267 -0.8746
13079TIP3    H260653   0.929   3.578   0.941  0.3555 -0.4623  0.9651
13080TIP3   OH260654   3.433   4.955  15.149 -0.5925  0.5100 -0.6869
13080TIP3    H160655   3.490   4.947  15.073 -2.5976  1.8182 -2.4384
13080TIP3    H260656   3.368   4.885  15.137 -0.2573 -0.0245  0.4873
13081TIP3   OH260657   5.063   3.151   2.654 -0.3291 -0.1124  0.2441
13081TIP3    H160658   5.141   3.145   2.709  0.8837 -1.1287 -1.4811
13081TIP3    H260659   5.040   3.060   2.635 -1.8745  0.1772  0.6121
13082TIP3   OH260660   0.203   4.624  12.327 -0.1614 -0.0819  0.0403
13082TIP3    H160661   0.290   4.664  12.330 -1.6612  3.4878  0.5690
13082TIP3    H260662   0.216   4.536  12.362  2.9875  0.7853  1.4012
13083TIP3   OH260663   1.458   2.101  16.037  0.0269  0.4899  0.0589
13083TIP3    H160664   1.438   2.178  16.092 -0.3307  0.2939  0.2058
13083TIP3    H260665   1.455   2.135  15.948  2.3106  1.2105  0.2000
13084TIP3   OH260666   0.807   5.210  14.709  0.3020 -0.2456  0.2091
13084TIP3    H160667   0.846   5.157  14.779  0.9333 -0.2529 -0.1374
13084TIP3    H260668   0.807   5.153  14.632  0.2925  0.0089  0.0179
13085TIP3   OH260669   5.958   5.762  16.363  0.2610 -0.4299 -0.2708
13085TIP3    H160670   5.950   5.831  16.297  0.8027 -0.0938  0.0049
13085TIP3    H260671   5.968   5.809  16.446 -0.5280 -0.8502  0.0736
13086TIP3   OH260672   6.770   4.171   3.170  0.4663  0.0065 -0.3826
13086TIP3    H160673   6.699   4.110   3.151  1.2027 -0.3472 -2.2462
13086TIP3    H260674   6.729   4.242   3.219 -1.1215 -0.3115 -1.1993
13087TIP3   OH260675   6.166   3.174   5.052  0.1911 -0.1732 -0.7980
13087TIP3    H160676   6.086   3.143   5.095  0.8953 -0.6259  0.2524
13087TIP3    H260677   6.172   3.266   5.076  1.0425 -0.6306  0.8953
13088TIP3   OH260678   4.821   3.176  16.246  0.2082  0.3590  0.2990
13088TIP3    H160679   4.844   3.178  16.153  0.9218 -1.1462  0.4102
13088TIP3    H260680   4.738   3.223  16.251  1.1225  2.1775 -0.7770
13089TIP3   OH260681   6.294   5.662  10.139  0.1131 -0.1190  0.4836
13089TIP3    H160682   6.352   5.606  10.191 -0.5619 -1.4916 -0.1937
13089TIP3    H260683   6.205   5.636  10.166 -0.2500 -0.8118 -1.2634
13090TIP3   OH260684   0.384   2.792   0.185  0.4640  0.6032  0.7186
13090TIP3    H160685   0.420   2.880   0.194 -2.2681  1.8206  0.6331
13090TIP3    H260686   0.359   2.785   0.093  0.0222  0.0097  0.8742
13091TIP3   OH260687   1.980   0.416  16.141 -0.4178  0.0061 -0.1078
13091TIP3    H160688   1.912   0.349  16.140 -0.3352 -0.4452  4.2972
13091TIP3    H260689   1.933   0.498  16.159 -0.0526  0.1317  0.3089
13092TIP3   OH260690   6.290   5.133   3.421 -0.7078 -0.1053  0.7820
13092TIP3    H160691   6.334   5.170   3.497 -2.0138  1.5852  0.7776
13092TIP3    H260692   6.200   5.116   3.450 -0.4350 -2.5056  0.4954
13093TIP3   OH260693   1.477   2.388   3.736  0.3067 -0.1533 -0.1662
13093TIP3    H160694   1.423   2.333   3.680 -0.5679 -0.4388  0.9173
13093TIP3    H260695   1.419   2.413   3.808  1.1670  0.8494  0.2036
13094TIP3   OH260696   2.299   1.164   3.321  0.6541  0.4171 -0.3107
13094TIP3    H160697   2.285   1.158   3.226  0.1280  0.4312 -0.2394
13094TIP3    H260698   2.338   1.081   3.345 -0.8379 -0.3079 -0.2802
13095TIP3   OH260699   2.472   6.053  13.305 -0.0881  0.1934 -0.1844
13095TIP3    H160700   2.508   6.051  13.216 -1.4253  0.9576 -0.7686
13095TIP3    H260701   2.442   5.963  13.320 -3.2056  0.7947 -1.9877
13096TIP3   OH260702   1.123   1.432  15.665  0.0612  0.5794  0.3017
13096TIP3    H160703   1.208   1.477  15.662  0.4969 -0.2276  0.0538
13096TIP3    H260704   1.059   1.499  15.642  0.7647  0.9239 -0.7315
13097TIP3   OH260705   0.832   5.252  16.103  0.0126  1.2236  0.0933
13097TIP3    H160706   0.770   5.325  16.108  0.3846  1.5766 -0.4682
13097TIP3    H260707   0.848   5.239  16.010 -0.0093  0.4510  0.1861
13098TIP3   OH260708   2.484   4.633   5.534 -0.1142 -0.0089 -0.2446
13098TIP3    H160709   2.392   4.651   5.514  0.0245  1.6809  0.4920
13098TIP3    H260710   2.517   4.715   5.570  1.4612 -0.8578  0.3231
13099TIP3   OH260711   5.795   4.507   2.754 -1.1916  0.3758 -0.1677
13099TIP3    H160712   5.824   4.521   2.844  0.7507  0.8370 -0.8124
13099TIP3    H260713   5.700   4.512   2.758 -1.3946 -2.7089  2.3532
13100TIP3   OH260714   4.619   4.564  16.779 -0.1494  0.2584  0.2466
13100TIP3    H160715   4.612   4.659  16.779 -0.6993  0.2299  1.0575
13100TIP3    H260716   4.540   4.533  16.735  1.5836  0.2189 -3.0826
13101TIP3   OH260717   0.270   1.640   5.178 -0.7586  0.8094  0.6261
13101TIP3    H160718   0.282   1.673   5.267  0.3870  1.5923  0.1949
13101TIP3    H260719   0.184   1.673   5.152 -0.8759  1.0043  1.2474
13102TIP3   OH260720   0.989   4.723  14.623 -0.0078 -0.0741  0.2321
13102TIP3    H160721   1.008   4.720  14.717  0.3609  0.0714  0.1636
13102TIP3    H260722   1.048   4.791  14.589  0.7985 -1.0314 -0.3256
13103TIP3   OH260723   6.433   2.965   3.066  0.6454 -0.2998  0.7433
13103TIP3    H160724   6.420   2.890   3.008 -1.1311  0.8558 -0.4559
13103TIP3    H260725   6.511   3.009   3.033  0.1058 -0.1042 -0.3069
13104TIP3   OH260726   2.019   5.551  11.284  0.1153  0.4313  0.1503
13104TIP3    H160727   2.104   5.581  11.317 -0.8491  1.7075  1.6097
13104TIP3    H260728   1.961   5.558  11.360 -1.5832  0.7461 -1.1434
13105TIP3   OH260729   5.839   6.558  11.647 -0.1903 -0.7100 -0.6236
13105TIP3    H160730   5.831   6.598  11.734 -3.1595 -3.2952  0.5001
13105TIP3    H260731   5.933   6.547  11.634  0.6602  3.6990  0.1717
13106TIP3   OH260732   5.410   0.794  11.939  0.4244  0.2000 -0.0245
13106TIP3    H160733   5.417   0.699  11.928 -0.1039  0.3078 -1.5891
13106TIP3    H260734   5.327   0.816  11.897  1.1697  1.5136 -0.8672
13107TIP3   OH260735   6.086   5.875   2.300 -0.6931 -0.1232  0.0713
13107TIP3    H160736   6.151   5.940   2.324 -0.9977  0.0631  0.4035
13107TIP3    H260737   6.129   5.821   2.234 -0.8665  1.1701 -1.1330
13108TIP3   OH260738   6.103   6.561  11.690  0.4328 -0.1582 -0.5730
13108TIP3    H160739   6.196   6.574  11.669  0.3438 -0.8865 -1.4921
13108TIP3    H260740   6.100   6.474  11.732  0.0751 -0.4613 -1.2191
13109TIP3   OH260741   5.476   1.988   4.235  0.1279  0.5649 -0.7737
13109TIP3    H160742   5.486   2.064   4.178  1.5808  2.5994  1.9598
13109TIP3    H260743   5.461   2.025   4.322  0.6807 -2.2922  0.6573
13110TIP3   OH260744   1.006   4.950   1.896  0.8556 -0.3691  0.6138
13110TIP3    H160745   0.985   4.970   1.805 -1.7400  2.4760  1.6549
13110TIP3    H260746   1.096   4.979   1.907  1.3386 -1.1038 -1.0817
13111TIP3   OH260747   2.738   5.213  17.011  0.3010 -0.1976  0.2066
13111TIP3    H160748   2.654   5.185  17.046  0.4722 -0.3004  0.5395
13111TIP3    H260749   2.741   5.177  16.923  0.6202 -1.4331  0.7036
13112TIP3   OH260750   1.170   2.373  12.791  0.7171  0.0173 -0.2919
13112TIP3    H160751   1.218   2.413  12.718 -0.6134  2.5605  0.1199
13112TIP3    H260752   1.113   2.309  12.749  0.3130  1.1069 -1.4678
13113TIP3   OH260753   2.902   4.754   5.434 -0.1923 -0.2317  0.3638
13113TIP3    H160754   2.844   4.808   5.488  0.2974 -1.2222  1.9415
13113TIP3    H260755   2.851   4.736   5.355 -0.4916  2.2357 -0.0832
13114TIP3   OH260756   3.974   6.306   4.757  0.3109  0.3097 -0.4393
13114TIP3    H160757   3.887   6.329   4.724 -0.9510 -0.1197  2.2863
13114TIP3    H260758   3.963   6.218   4.793  1.9151  0.2346 -0.0628
13115TIP3   OH260759   5.556   3.412   0.605  0.4813 -0.5564  0.2253
13115TIP3    H160760   5.542   3.439   0.696  1.2711 -0.8682  0.4510
13115TIP3    H260761   5.595   3.324   0.612 -0.5794 -1.1055 -0.4504
13116TIP3   OH260762   0.760   0.526   1.408 -0.2854  0.5966  0.0143
13116TIP3    H160763   0.800   0.453   1.455  0.4863  0.5583 -0.6832
13116TIP3    H260764   0.723   0.581   1.477 -1.0058 -0.5187  0.5371
13117TIP3   OH260765   0.820   0.021  14.712 -0.6512 -0.5534  0.4731
13117TIP3    H160766   0.867  -0.047  14.665 -1.2610  0.2756 -1.4120
13117TIP3    H260767   0.833  -0.001  14.805  3.7024 -0.2348  0.1440
13118TIP3   OH260768   3.855   6.469   0.413 -0.7471  0.2928 -0.4295
13118TIP3    H160769   3.846   6.553   0.456  0.8828 -0.5624  1.7976
13118TIP3    H260770   3.945   6.470   0.377 -0.2155 -0.9337  0.7776
13119TIP3   OH260771   1.177   1.010   3.531 -0.4516  0.4836 -0.4793
13119TIP3    H160772   1.253   0.975   3.486 -0.2943  0.1086  0.0655
13119TIP3    H260773   1.213   1.055   3.607 -0.8194 -0.4504  0.2627
13120TIP3   OH260774   2.277   4.481   4.429  0.3996 -0.2917  0.2633
13120TIP3    H160775   2.268   4.569   4.465  1.3726  0.1358 -0.5071
13120TIP3    H260776   2.259   4.423   4.503 -1.1680  0.5181  0.5831
13121TIP3   OH260777   0.087   1.160   4.363 -0.4161 -0.2019 -0.1194
13121TIP3    H160778   0.167   1.207   4.386  1.5037 -3.6215  1.0298
13121TIP3    H260779   0.094   1.145   4.269  1.4931 -2.1371  0.2305
13122TIP3   OH260780   5.042   1.630   4.281 -0.2934  0.8036 -0.4797
13122TIP3    H160781   4.964   1.619   4.226 -0.7674  0.5434  0.2325
13122TIP3    H260782   5.017   1.696   4.346 -0.6263 -0.6784  0.9734
13123TIP3   OH260783   0.377   0.168   3.835  0.2197  0.3703 -0.7690
13123TIP3    H160784   0.446   0.111   3.868  0.4963  1.0195 -0.1942
13123TIP3    H260785   0.381   0.246   3.891 -1.3290  0.2038 -0.3698
13124TIP3   OH260786   6.769   5.196  12.849 -0.0963  0.5775  0.1394
13124TIP3    H160787   6.711   5.264  12.816 -1.6148 -0.9553 -0.5074
13124TIP3    H260788   6.844   5.197  12.789 -2.2041 -1.2917 -2.8742
13125TIP3   OH260789   1.632   5.204   1.061  0.1244  0.1370  0.2857
13125TIP3    H160790   1.644   5.283   1.009  0.3834  1.3503  2.1121
13125TIP3    H260791   1.594   5.141   0.999  0.6470  1.4035 -1.4150
13126TIP3   OH260792   1.417   6.178  16.881  0.5212  0.2584  0.1727
13126TIP3    H160793   1.409   6.243  16.811  0.9929 -1.1287 -1.2182
13126TIP3    H260794   1.435   6.096  16.836 -3.1832 -1.5605  1.5748
13127TIP3   OH260795   1.302   3.093  15.900  0.2960 -0.2058  0.0299
13127TIP3    H160796   1.295   3.171  15.844  0.2239 -1.4500 -1.7711
13127TIP3    H260797   1.242   3.029  15.860 -0.1931 -0.9812  1.8872
13128TIP3   OH260798   3.328   6.536   1.356  0.1933 -0.0543  0.0265
13128TIP3    H160799   3.282   6.454   1.335 -0.0731  0.3999 -1.2497
13128TIP3    H260800   3.332   6.537   1.452  1.2721 -2.1453  0.0630
13129TIP3   OH260801   3.067   3.411  14.754 -0.4424  0.6741 -0.1076
13129TIP3    H160802   3.079   3.505  14.767 -0.1660  0.4246  1.7156
13129TIP3    H260803   3.093   3.396  14.663 -0.1903  2.3017 -0.3353
13130TIP3   OH260804   1.465   0.037   0.893 -0.0745 -0.3273 -0.2151
13130TIP3    H160805   1.513   0.078   0.965 -0.7060 -0.4080  0.2633
13130TIP3    H260806   1.424  -0.040   0.933  0.2573 -0.8504 -0.8623
13131TIP3   OH260807   6.165   6.348   2.693 -0.0314 -0.4932 -0.4245
13131TIP3    H160808   6.172   6.342   2.597 -0.4602 -0.2954 -0.4695
13131TIP3    H260809   6.256   6.354   2.723  0.1353 -1.0744 -0.7808
13132TIP3   OH260810   5.296   2.970   2.592 -0.3265 -0.5451  0.2979
13132TIP3    H160811   5.212   2.936   2.625 -0.5110  0.9455  1.5027
13132TIP3    H260812   5.279   3.064   2.577  0.8984 -0.3980 -0.2358
13133TIP3   OH260813   0.807   5.964   5.073 -0.0436 -0.0031 -0.1330
13133TIP3    H160814   0.727   5.912   5.083  0.0738 -0.9483 -3.3200
13133TIP3    H260815   0.777   6.055   5.082 -0.5823 -0.3706  3.3904
13134TIP3   OH260816   2.076   1.074   2.312 -0.0605  0.6064  0.3755
13134TIP3    H160817   2.122   0.997   2.278  0.3334 -0.2186  2.5666
13134TIP3    H260818   1.997   1.039   2.353  0.7762  1.1150  2.5905
13135TIP3   OH260819   2.026   0.923  14.023 -0.5148  0.1447  0.6752
13135TIP3    H160820   2.066   0.951  14.105  0.7278 -0.3434  0.2655
13135TIP3    H260821   2.064   0.836  14.007 -2.6776 -0.9129  0.8666
13136TIP3   OH260822   1.787   2.805   0.708 -0.4727  0.1457  0.4629
13136TIP3    H160823   1.852   2.871   0.682  0.1287 -1.0688 -1.3059
13136TIP3    H260824   1.718   2.812   0.642 -0.2253 -1.2097  0.0304
13137TIP3   OH260825   4.134   5.411   5.845 -0.4051 -0.1319 -0.3691
13137TIP3    H160826   4.046   5.446   5.858 -0.0250 -0.0686  2.7822
13137TIP3    H260827   4.193   5.481   5.872  0.7269 -0.1193 -2.5490
13138TIP3   OH260828   5.290   5.363   3.974 -0.4919  0.1667  0.4465
13138TIP3    H160829   5.343   5.346   4.052 -0.0433 -1.0143 -0.0904
13138TIP3    H260830   5.213   5.410   4.007  0.3776  0.9931  1.3835
13139TIP3   OH260831   6.616   0.519  12.846 -0.1832  0.0986 -0.6542
13139TIP3    H160832   6.556   0.487  12.914  0.2517 -1.8968 -1.1400
13139TIP3    H260833   6.685   0.452  12.841  0.1922  0.5538 -2.5297
13140TIP3   OH260834   4.735   6.608   0.752 -0.0232 -0.1352  0.4564
13140TIP3    H160835   4.773   6.690   0.721  0.0152 -0.4962 -0.5200
13140TIP3    H260836   4.810   6.550   0.766 -0.0365  0.0569  1.3399
13141TIP3   OH260837   1.855   0.172   2.508 -0.3669 -0.1172 -0.0938
13141TIP3    H160838   1.838   0.137   2.421 -0.0956 -0.2755 -0.0841
13141TIP3    H260839   1.844   0.097   2.567  1.2041 -0.4415 -0.1724
13142TIP3   OH260840   5.200   3.776  11.644 -0.2545 -0.7099 -0.1599
13142TIP3    H160841   5.116   3.766  11.599 -0.4891  1.0457 -0.1750
13142TIP3    H260842   5.249   3.697  11.622 -1.4273 -1.1837 -1.1771
13143TIP3   OH260843   2.033   6.668   5.021  0.0068 -0.4175 -0.1504
13143TIP3    H160844   2.114   6.718   5.022 -1.9132  3.3566 -3.5327
13143TIP3    H260845   2.061   6.576   5.021  4.1330  0.6519  0.0278
13144TIP3   OH260846   6.058   1.070   4.010  0.5918 -0.2203  0.0472
13144TIP3    H160847   6.078   1.133   3.941 -0.6168 -0.3234 -0.4319
13144TIP3    H260848   6.113   0.994   3.990 -2.0381 -1.6005 -2.8556
13145TIP3   OH260849   5.416   6.072   4.811  0.2197  0.3491  0.1879
13145TIP3    H160850   5.502   6.030   4.801 -0.5969 -1.2782 -0.3646
13145TIP3    H260851   5.402   6.075   4.906  0.4335 -0.3823  0.2546
13146TIP3   OH260852   5.210   5.597  16.901 -0.4840  0.0503 -0.3013
13146TIP3    H160853   5.196   5.527  16.965  0.6649 -1.3637 -1.5301
13146TIP3    H260854   5.289   5.572  16.854 -0.6093  1.6683 -1.4770
13147TIP3   OH260855   2.761   5.182   1.480  0.2281  0.2132 -0.1058
13147TIP3    H160856   2.824   5.249   1.505 -0.6007  0.7842  0.5369
13147TIP3    H260857   2.741   5.201   1.388 -1.4747  2.1386  0.5800
13148TIP3   OH260858   2.586   4.766   2.704 -0.1989 -0.7016 -0.3421
13148TIP3    H160859   2.633   4.734   2.781 -0.0940 -2.0864 -0.9366
13148TIP3    H260860   2.509   4.709   2.698 -1.5062  0.9487  0.0979
13149TIP3   OH260861   1.604   1.758  16.789 -0.0778 -0.0656  0.3285
13149TIP3    H160862   1.637   1.725  16.705  1.9503  1.9163  0.2401
13149TIP3    H260863   1.647   1.843  16.800 -0.6431 -0.0456  3.1859
13150TIP3   OH260864   4.331   3.316   3.168  0.0647 -0.2779 -0.3833
13150TIP3    H160865   4.282   3.256   3.112 -2.1921  1.1006  0.0155
13150TIP3    H260866   4.388   3.364   3.107 -0.6263 -0.4334 -1.1640
13151TIP3   OH260867   0.882   5.284  12.040 -0.2094  0.4143  0.4578
13151TIP3    H160868   0.951   5.350  12.051 -1.6739  1.9576  0.8445
13151TIP3    H260869   0.842   5.306  11.956 -0.7248  0.0173  0.5963
13152TIP3   OH260870   5.386   6.729   1.330  0.0791  0.6999 -0.4638
13152TIP3    H160871   5.461   6.745   1.274 -0.3906  2.2129 -0.6955
13152TIP3    H260872   5.335   6.810   1.326 -1.7898 -0.4326 -0.6551
13153TIP3   OH260873   0.807   4.569   3.203 -0.6247 -0.4879  0.5568
13153TIP3    H160874   0.749   4.493   3.211 -0.4660 -0.7798 -0.7424
13153TIP3    H260875   0.894   4.532   3.189 -0.8357 -0.1610 -2.1656
13154TIP3   OH260876   5.924   0.037   0.550 -0.1203  0.4520 -0.3089
13154TIP3    H160877   5.831   0.022   0.539 -0.1541 -1.1627  1.7410
13154TIP3    H260878   5.936   0.129   0.526 -2.0415  0.4344 -1.5324
13155TIP3   OH260879   1.239   6.668  16.658  0.6448 -0.1862 -0.1456
13155TIP3    H160880   1.158   6.695  16.616  0.1119 -1.5162 -0.0133
13155TIP3    H260881   1.304   6.666  16.587  0.2275 -0.4504 -0.5248
13156TIP3   OH260882   5.676   6.469   5.863 -1.2180  0.1162  0.3861
13156TIP3    H160883   5.632   6.555   5.861 -2.4707 -0.4710  1.1059
13156TIP3    H260884   5.680   6.447   5.956  1.6604  0.6119  0.4609
13157TIP3   OH260885   0.781   5.161  12.892 -0.2691 -0.0904  0.1417
13157TIP3    H160886   0.696   5.201  12.913  0.3259  1.2927  0.0149
13157TIP3    H260887   0.792   5.176  12.799  1.9169  3.4969  0.8094
13158TIP3   OH260888   0.900   1.482  12.280 -0.5747  0.8191  0.0732
13158TIP3    H160889   0.830   1.417  12.280 -0.0797  0.2723 -0.4711
13158TIP3    H260890   0.896   1.522  12.366 -0.7507 -0.0843  0.4942
13159TIP3   OH260891   1.760   0.902  14.422  0.1371 -0.2252  0.5638
13159TIP3    H160892   1.800   0.983  14.390  1.2222 -0.3660  1.5224
13159TIP3    H260893   1.731   0.923  14.511  1.4526 -1.2054  1.2484
13160TIP3   OH260894   1.194   1.715  16.933 -0.4323 -0.1191  0.2559
13160TIP3    H160895   1.257   1.786  16.946 -1.3377  0.9557 -0.9719
13160TIP3    H260896   1.114   1.747  16.974 -0.6531 -0.7482  0.3203
13161TIP3   OH260897   4.397   6.539   0.959 -0.3646  0.6504 -0.6920
13161TIP3    H160898   4.336   6.515   0.889 -2.0785  1.3048  0.5286
13161TIP3    H260899   4.371   6.628   0.983  0.1638  0.4113  0.8081
13162TIP3   OH260900   4.206   3.877  11.865 -0.0356 -0.2152 -0.4311
13162TIP3    H160901   4.239   3.859  11.953  0.4879  0.2045 -0.5448
13162TIP3    H260902   4.119   3.836  11.864 -0.1179 -0.0682  0.3373
13163TIP3   OH260903   2.994   6.023   5.853 -0.2299  0.1386  0.1153
13163TIP3    H160904   2.941   6.031   5.932  0.9240  0.4254  0.8792
13163TIP3    H260905   2.945   5.962   5.798 -0.8346 -0.4143  1.2340
13164TIP3   OH260906   2.461   0.097  14.350 -0.1774 -0.2682  0.0171
13164TIP3    H160907   2.511   0.015  14.351 -0.9781 -0.7718 -0.0587
13164TIP3    H260908   2.421   0.102  14.438  0.1303  0.2091  0.1336
13165TIP3   OH260909   4.169   6.228   4.551  0.1940  0.2763  0.4123
13165TIP3    H160910   4.112   6.287   4.600 -0.6485  0.1720 -0.4186
13165TIP3    H260911   4.150   6.246   4.459  0.3205 -0.8933  0.1378
13166TIP3   OH260912   4.727   5.945   0.029 -0.3172  0.7223 -0.4323
13166TIP3    H160913   4.800   5.988  -0.015 -0.2610  0.4854 -0.5771
13166TIP3    H260914   4.769   5.876   0.082 -0.5015 -0.0889 -1.3116
13167TIP3   OH260915   2.141   3.315   0.581 -0.1571  0.1502  1.0698
13167TIP3    H160916   2.066   3.333   0.637 -1.1565 -1.8540  0.4809
13167TIP3    H260917   2.183   3.238   0.620 -1.6357 -2.1426 -1.4358
13168TIP3   OH260918   4.901   6.488   1.213  0.7359 -0.1357 -0.5570
13168TIP3    H160919   4.922   6.537   1.133 -0.4517 -1.3216 -1.6495
13168TIP3    H260920   4.810   6.459   1.200  0.8042 -1.0764  0.8588
13169TIP3   OH260921   1.179   0.943   1.420 -0.2047 -0.8068 -0.2706
13169TIP3    H160922   1.231   0.914   1.494  0.0217 -2.1551 -0.9221
13169TIP3    H260923   1.101   0.887   1.421 -0.8579  0.0841 -0.2609
13170TIP3   OH260924   0.778   5.756   1.856  1.0495  0.0248  0.6485
13170TIP3    H160925   0.858   5.753   1.803 -0.2230 -0.7366 -1.3346
13170TIP3    H260926   0.716   5.805   1.803 -0.5310 -1.4795  1.0246
13171TIP3   OH260927   0.271   4.037  15.116 -0.0739 -1.0727  0.2768
13171TIP3    H160928   0.357   4.014  15.082 -0.6621 -1.0392 -1.2910
13171TIP3    H260929   0.258   3.978  15.190  1.7820 -0.2582  1.3437
13172TIP3   OH260930   5.579   3.826   4.945  0.3919  0.2748  0.0069
13172TIP3    H160931   5.663   3.827   4.991 -0.2377 -0.0037  1.2271
13172TIP3    H260932   5.530   3.756   4.988  0.4773 -1.4243 -2.4906
13173TIP3   OH260933   0.798   4.699  15.146  0.0522  0.3708 -0.4097
13173TIP3    H160934   0.793   4.735  15.057  1.1824 -0.5838 -0.8762
13173TIP3    H260935   0.851   4.763  15.194 -1.5733  1.5233 -0.0565
13174TIP3   OH260936   3.232   3.275   1.101  0.4050 -0.6796 -0.2556
13174TIP3    H160937   3.223   3.359   1.145  0.3378 -1.2282  0.7906
13174TIP3    H260938   3.156   3.269   1.044  0.5384  0.0687 -0.5266
13175TIP3   OH260939   2.011   4.654   3.291 -0.2356  0.1573 -0.3090
13175TIP3    H160940   2.005   4.704   3.209 -2.0634 -0.8253 -0.8553
13175TIP3    H260941   2.043   4.716   3.356  2.2410  0.7145 -1.9376
13176TIP3   OH260942   6.502   2.407  16.967 -0.1484 -0.5599  0.5151
13176TIP3    H160943   6.593   2.390  16.942 -0.6407 -1.5990 -0.7068
13176TIP3    H260944   6.460   2.438  16.886 -0.3372  2.4920  1.6272
13177TIP3   OH260945   1.520   0.131  14.324  0.6285 -0.0103 -0.0174
13177TIP3    H160946   1.601   0.160  14.282  1.8328  0.4558  2.4240
13177TIP3    H260947   1.489   0.207  14.373 -0.0551 -0.8136  0.8569
13178TIP3   OH260948   1.050   3.824  14.496  0.0212  0.5146  0.7961
13178TIP3    H160949   0.990   3.898  14.483  0.3536  0.9872  1.8631
13178TIP3    H260950   1.044   3.774  14.414 -0.9729  1.1633  0.4503
13179TIP3   OH260951   2.244   6.149   1.178  0.2228 -0.0333  0.5018
13179TIP3    H160952   2.188   6.083   1.221 -0.1788 -0.8078 -1.1301
13179TIP3    H260953   2.205   6.160   1.091  2.1484  0.0164 -0.3898
13180TIP3   OH260954   2.577   4.300  11.225 -0.0420 -0.2970 -0.3654
13180TIP3    H160955   2.620   4.233  11.279 -0.4259 -1.0212 -0.9353
13180TIP3    H260956   2.612   4.285  11.137  0.6454  0.9250 -0.3246
13181TIP3   OH260957   0.083   1.031   5.403  0.2573  0.2178 -0.3320
13181TIP3    H160958   0.127   1.009   5.321 -0.4174  1.1944 -0.9701
13181TIP3    H260959   0.143   1.000   5.471  1.0042 -0.2534 -1.1829
13182TIP3   OH260960   4.241   6.245  13.866 -0.4125  0.1688  0.1403
13182TIP3    H160961   4.172   6.261  13.802  0.9288  1.9165 -0.9674
13182TIP3    H260962   4.314   6.211  13.813  0.1326 -0.0394  1.0118
13183TIP3   OH260963   5.716   3.552   2.222 -0.2735  0.3685 -0.0369
13183TIP3    H160964   5.676   3.490   2.283 -2.1081 -0.1725 -1.6884
13183TIP3    H260965   5.794   3.585   2.268 -0.9583 -0.8367  2.1016
13184TIP3   OH260966   4.904   2.389   4.128  0.1395 -0.0410  0.6201
13184TIP3    H160967   4.992   2.379   4.165  1.1170  1.3903 -1.0978
13184TIP3    H260968   4.871   2.471   4.167 -0.4243 -0.5356  1.2032
13185TIP3   OH260969   0.402   4.513   2.358 -0.2991 -0.6929  0.3791
13185TIP3    H160970   0.467   4.480   2.420  0.8755 -0.1685 -0.5307
13185TIP3    H260971   0.431   4.480   2.273 -0.9078  0.0184 -0.1191
13186TIP3   OH260972   1.298   4.672   0.876  0.5864  0.1892  0.1374
13186TIP3    H160973   1.306   4.740   0.809  0.8706 -0.5389 -0.5867
13186TIP3    H260974   1.270   4.718   0.955 -0.3707  0.9757 -0.6473
13187TIP3   OH260975   4.914   6.661   4.415 -0.0661  0.3112  0.6669
13187TIP3    H160976   4.829   6.618   4.413  0.1730 -0.2348  1.7636
13187TIP3    H260977   4.940   6.659   4.507  1.4041 -0.0774  0.2710
13188TIP3   OH260978   4.901   4.460  15.011 -0.2353  0.4173  0.2662
13188TIP3    H160979   4.829   4.431  15.067 -1.4307 -0.0645 -1.4344
13188TIP3    H260980   4.905   4.394  14.941 -2.2143  3.5006 -3.0905
13189TIP3   OH260981   6.196   4.820  12.874 -0.0256  0.1508 -1.0939
13189TIP3    H160982   6.121   4.760  12.871 -0.5024  0.7465 -1.5091
13189TIP3    H260983   6.269   4.769  12.839 -0.1824 -0.5082 -0.4865
13190TIP3   OH260984   0.075   0.038   0.465 -0.3818  0.3748 -0.2148
13190TIP3    H160985   0.164   0.064   0.491 -0.5282  2.3356 -1.4836
13190TIP3    H260986   0.055   0.094   0.390 -3.0398  0.5962  0.5753
13191TIP3   OH260987   4.004   4.998  15.000  0.1686  0.1876  0.1260
13191TIP3    H160988   3.919   5.034  15.025 -0.0262 -1.4839  2.1190
13191TIP3    H260989   4.064   5.073  15.007 -0.8769  1.0589  0.0898
13192TIP3   OH260990   1.499   5.789   5.397 -0.3606  0.3628 -0.4544
13192TIP3    H160991   1.541   5.850   5.457 -0.0697  1.1020 -1.3915
13192TIP3    H260992   1.550   5.796   5.316 -0.2643 -1.1925 -0.5577
13193TIP3   OH260993   2.830   2.890  14.194 -0.4090 -0.4899 -0.0682
13193TIP3    H160994   2.891   2.818  14.180 -0.5108 -0.3385 -1.4137
13193TIP3    H260995   2.813   2.889  14.288  0.2903 -1.6477  0.0658
13194TIP3   OH260996   0.265   4.900  11.796 -0.1897 -0.1817 -0.6851
13194TIP3    H160997   0.215   4.981  11.800  0.6390  0.3500 -0.7940
13194TIP3    H260998   0.343   4.917  11.849 -0.8214 -1.5110  0.7421
13195TIP3   OH260999   2.489   5.425  16.110 -0.7320 -0.3985  0.4585
13195TIP3    H161000   2.576   5.449  16.077 -1.0095  0.1924  0.1431
13195TIP3    H261001   2.461   5.352  16.055 -0.3913 -0.6747  0.6431
13196TIP3   OH261002   6.502   6.813   1.883  0.2324  0.1342  0.3974
13196TIP3    H161003   6.551   6.733   1.903 -0.1168 -0.6368 -1.5797
13196TIP3    H261004   6.436   6.819   1.952  1.1913 -0.4661  1.3942
13197TIP3   OH261005   1.567   6.074  15.772  0.0493  0.4525 -0.2167
13197TIP3    H161006   1.499   6.022  15.816 -0.4949  0.3246 -1.1688
13197TIP3    H261007   1.642   6.015  15.767  0.0896  0.4445  0.4671
13198TIP3   OH261008   1.530   5.519  13.321 -0.2842 -0.6809  0.1932
13198TIP3    H161009   1.537   5.460  13.246 -0.4455 -1.6345  0.9099
13198TIP3    H261010   1.589   5.591  13.300 -0.3520 -0.9148 -0.8620
13199TIP3   OH261011   4.564   5.920  13.442 -0.0911 -0.2639 -0.3389
13199TIP3    H161012   4.505   5.956  13.375 -0.8546 -0.7619  0.0419
13199TIP3    H261013   4.649   5.913  13.398 -0.2076  0.8574 -0.7780
13200TIP3   OH261014   4.062   1.948  13.187 -0.0996  0.0752  0.5653
13200TIP3    H161015   4.023   2.004  13.255 -0.8836  0.0615  0.1371
13200TIP3    H261016   4.145   1.920  13.224 -1.3299 -1.4615  2.3178
13201TIP3   OH261017   0.614   5.724  10.862 -0.0663 -0.0478 -0.2159
13201TIP3    H161018   0.637   5.677  10.782 -1.8502  1.8872 -1.9932
13201TIP3    H261019   0.534   5.683  10.893  1.0954 -1.3766  1.1770
13202TIP3   OH261020   0.500   6.144   2.296 -0.1698  0.2190  0.6785
13202TIP3    H161021   0.420   6.093   2.280 -0.0282  0.4311 -0.8606
13202TIP3    H261022   0.477   6.202   2.369 -2.3521  2.1295 -1.3459
13203TIP3   OH261023   3.366   0.614   5.189  0.2708  0.1284 -0.2496
13203TIP3    H161024   3.428   0.682   5.217  0.0352 -0.1710  1.1068
13203TIP3    H261025   3.373   0.612   5.094  1.3402  1.0478 -0.2116
13204TIP3   OH261026   5.443   5.613  14.485  0.2594  0.3293  0.2387
13204TIP3    H161027   5.442   5.706  14.509  2.6502  0.3869  0.3344
13204TIP3    H261028   5.514   5.606  14.421 -0.8879 -1.1995 -0.9459
13205TIP3   OH261029   6.337   2.064  16.129  0.0401 -0.1548  0.6466
13205TIP3    H161030   6.298   2.118  16.197  0.1442  0.3890  0.2796
13205TIP3    H261031   6.421   2.036  16.166 -1.2889 -2.5753  2.0514
13206TIP3   OH261032   1.908   1.775  11.505  0.7529  0.6449 -0.4280
13206TIP3    H161033   1.928   1.774  11.598  0.2583  2.1070 -0.2684
13206TIP3    H261034   1.965   1.844  11.469  1.1541 -0.1003 -1.2680
13207TIP3   OH261035   1.542   2.728  16.311 -0.4436  0.8470  0.2633
13207TIP3    H161036   1.513   2.782  16.384 -0.6796  2.3998 -0.9329
13207TIP3    H261037   1.468   2.671  16.293 -0.6739  0.9918  0.7256
13208TIP3   OH261038   3.895   5.837  16.325  0.1468 -0.1041  0.4616
13208TIP3    H161039   3.946   5.769  16.371 -0.7847 -0.7748  0.5366
13208TIP3    H261040   3.949   5.916  16.332  0.9227 -0.6606  1.0140
13209TIP3   OH261041   0.713   6.502  13.441 -0.0604  0.9186 -0.0872
13209TIP3    H161042   0.659   6.502  13.362 -0.2075  0.1782 -0.0034
13209TIP3    H261043   0.654   6.533  13.510 -0.0579  1.1585 -0.1934
13210TIP3   OH261044   6.083   4.736  16.658  0.6633 -0.2362  0.3235
13210TIP3    H161045   6.165   4.698  16.626  2.2892  1.8221  1.7498
13210TIP3    H261046   6.096   4.742  16.753 -1.6865 -0.9533  0.7430
13211TIP3   OH261047   2.302   5.889  16.418  0.0679 -0.3132 -0.0418
13211TIP3    H161048   2.309   5.885  16.323  0.4535  2.4296 -0.2126
13211TIP3    H261049   2.212   5.917  16.434  1.0866  3.5548  0.0379
13212TIP3   OH261050   2.437   1.781   5.863  0.5215 -0.1888 -0.5485
13212TIP3    H161051   2.363   1.840   5.879  0.9221  0.2743 -0.3473
13212TIP3    H261052   2.429   1.757   5.771 -0.7938 -1.4436 -0.1328
13213TIP3   OH261053   6.512   3.586   0.000 -0.7360  0.0017 -0.1814
13213TIP3    H161054   6.546   3.618  -0.083  0.9696 -1.0236  0.0502
13213TIP3    H261055   6.418   3.576  -0.014 -0.3467 -1.2443 -2.3769
13214TIP3   OH261056   2.620   6.354   2.525 -0.0075 -0.3148  0.8305
13214TIP3    H161057   2.675   6.369   2.602 -0.1083  0.7298  0.7256
13214TIP3    H261058   2.531   6.349   2.561  0.0985 -1.5916  0.9561
13215TIP3   OH261059   3.751   6.631   1.639  0.0397 -0.9492  0.3053
13215TIP3    H161060   3.758   6.672   1.553 -0.1363 -2.6852 -0.5883
13215TIP3    H261061   3.735   6.538   1.620 -0.1516 -1.3513  2.2149
13216TIP3   OH261062   3.575   1.425  10.991 -0.2361 -0.1712 -0.1193
13216TIP3    H161063   3.523   1.427  10.910  1.1658 -0.5204 -1.0659
13216TIP3    H261064   3.656   1.469  10.968 -0.9853  2.6170  2.0388
13217TIP3   OH261065   1.306   0.699  16.750 -0.2417  0.2431 -0.3316
13217TIP3    H161066   1.400   0.687  16.763 -0.2433 -0.7880 -1.1240
13217TIP3    H261067   1.299   0.739  16.663 -0.5879 -1.4833 -1.1412
13218TIP3   OH261068   5.148   5.795  15.999 -1.0870 -0.6526 -0.1973
13218TIP3    H161069   5.129   5.885  15.975  1.1446  0.1973  0.9800
13218TIP3    H261070   5.065   5.762  16.033 -1.9222  0.9758 -0.5607
13219TIP3   OH261071   4.761   1.800   1.235 -0.0297 -0.2774 -0.0180
13219TIP3    H161072   4.778   1.864   1.304 -0.3550  0.2893 -0.4583
13219TIP3    H261073   4.670   1.816   1.210 -0.0405 -0.7548 -0.2977
13220TIP3   OH261074   1.359   0.395   1.106  0.1745 -0.4621  0.6450
13220TIP3    H161075   1.291   0.388   1.173 -0.7157  0.1352 -0.1691
13220TIP3    H261076   1.373   0.489   1.095 -1.1135 -0.4350 -1.3562
13221TIP3   OH261077   6.378   1.398   5.155 -0.1242  0.5349  0.3373
13221TIP3    H161078   6.297   1.363   5.193  0.7058 -0.1912  1.5075
13221TIP3    H261079   6.410   1.327   5.099  0.2275  0.3979  0.7024
13222TIP3   OH261080   1.850   5.115   1.577 -0.3374  0.1037  0.5583
13222TIP3    H161081   1.854   5.023   1.551 -2.7819  0.0004  0.2521
13222TIP3    H261082   1.915   5.123   1.647  1.2008 -1.3757 -0.6128
13223TIP3   OH261083   1.551   3.534   4.239 -0.4052 -0.1573 -0.0023
13223TIP3    H161084   1.563   3.580   4.323 -2.5185  0.1098  0.2030
13223TIP3    H261085   1.517   3.448   4.264  0.7230 -0.7895 -0.5438
13224TIP3   OH261086   5.421   1.418  10.317 -0.0743  0.6802 -0.7886
13224TIP3    H161087   5.431   1.354  10.387  0.0804  0.7828 -0.7148
13224TIP3    H261088   5.425   1.503  10.362 -1.5635  0.7344 -0.7186
13225TIP3   OH261089   5.559   2.621   1.018 -0.4303  0.1297 -0.2803
13225TIP3    H161090   5.491   2.566   0.979 -1.1211 -2.2158  3.6933
13225TIP3    H261091   5.554   2.603   1.112  2.5227  3.5609  0.7767
13226TIP3   OH261092   6.791   1.485  16.203  0.0277  0.0686 -0.5241
13226TIP3    H161093   6.726   1.550  16.229 -0.0600  0.5463 -1.8569
13226TIP3    H261094   6.740   1.404  16.190 -0.2152  0.3039 -1.0420
13227TIP3   OH261095   4.271   4.112   4.641 -0.4107 -0.5470 -0.2886
13227TIP3    H161096   4.282   4.034   4.696 -0.1895 -1.2223 -1.2655
13227TIP3    H261097   4.278   4.186   4.702  1.0998 -1.2283  0.4094
13228TIP3   OH261098   2.765   4.418   2.606  0.3649 -0.1772 -0.5160
13228TIP3    H161099   2.711   4.467   2.545 -0.6006 -0.2748  0.2328
13228TIP3    H261100   2.823   4.484   2.645 -0.0917  0.1621 -0.3996
13229TIP3   OH261101   1.291   5.698  16.981 -0.1102 -0.0533  0.4743
13229TIP3    H161102   1.238   5.700  17.061 -1.6588  0.6948 -0.5198
13229TIP3    H261103   1.380   5.682  17.011 -0.4905  1.1925  2.4531
13230TIP3   OH261104   4.713   1.952  16.908 -0.4453 -0.4584  0.4066
13230TIP3    H161105   4.700   2.043  16.882 -0.5707 -0.8105 -0.8533
13230TIP3    H261106   4.779   1.955  16.977  0.2002  0.5103 -0.2369
13231TIP3   OH261107   3.616   1.432   0.418  0.6023 -0.1450  0.0892
13231TIP3    H161108   3.537   1.438   0.471 -0.4381 -0.4839 -1.3361
13231TIP3    H261109   3.688   1.454   0.477 -0.5972  0.5751  1.3211
13232TIP3   OH261110   0.635   2.072   6.583  0.2963 -0.2696 -0.7180
13232TIP3    H161111   0.558   2.117   6.619  1.1399  0.0893  0.7014
13232TIP3    H261112   0.634   1.987   6.627  0.5004 -0.4063 -0.9823
13233TIP3   OH261113   1.202   1.652   0.097  0.2047  0.5507  0.5085
13233TIP3    H161114   1.171   1.679   0.183  0.0028 -0.7207  0.8596
13233TIP3    H261115   1.140   1.691   0.035 -1.9661 -1.6200  1.1622
13234TIP3   OH261116   0.877   1.820  13.245 -0.2172  0.5067  0.0910
13234TIP3    H161117   0.825   1.897  13.268 -1.6680 -1.1054  2.7246
13234TIP3    H261118   0.821   1.771  13.184 -0.4159  0.3585  0.3853
13235TIP3   OH261119   0.908   3.366  14.449 -0.7760  0.2043 -0.0316
13235TIP3    H161120   0.842   3.431  14.426 -0.3826  1.0850  1.1955
13235TIP3    H261121   0.946   3.339  14.366 -1.6839  0.7525 -0.6415
13236TIP3   OH261122   5.137   4.634   1.747  0.8990  0.5060  0.3690
13236TIP3    H161123   5.136   4.690   1.669 -2.3145  0.2957  0.1243
13236TIP3    H261124   5.177   4.552   1.717 -0.0143  0.5319 -1.0422
13237TIP3   OH261125   6.374   5.290   0.051 -0.0599  0.7875  0.4528
13237TIP3    H161126   6.431   5.364   0.030 -1.1511  1.8090  1.0165
13237TIP3    H261127   6.285   5.324   0.043 -0.6347 -0.8164 -0.5483
13238TIP3   OH261128   1.256   5.107   1.102 -0.9265 -0.1694  0.1336
13238TIP3    H161129   1.325   5.099   1.036 -0.9936 -3.0702  0.2760
13238TIP3    H261130   1.297   5.156   1.173  0.4508 -0.3610 -0.4921
13239TIP3   OH261131   1.302   0.958  12.253 -0.4054 -0.6015 -0.3469
13239TIP3    H161132   1.215   0.976  12.289 -0.2816  0.1465 -0.4070
13239TIP3    H261133   1.361   1.012  12.305  0.0032 -0.9696 -0.4274
13240TIP3   OH261134   6.500   1.506  13.963 -0.3007  0.1030  0.0448
13240TIP3    H161135   6.576   1.453  13.985 -0.7251 -0.4612  0.1784
13240TIP3    H261136   6.500   1.576  14.029  0.3355  0.3501 -0.2121
13241TIP3   OH261137   3.267   5.487  10.734  0.0442  0.5583 -0.9239
13241TIP3    H161138   3.268   5.497  10.639  0.7060 -0.3653 -1.0260
13241TIP3    H261139   3.326   5.556  10.766  1.4679 -0.4401 -1.3400
13242TIP3   OH261140   0.407   0.449   6.008 -0.6798 -0.1234  0.1541
13242TIP3    H161141   0.502   0.464   6.007  0.0164 -3.6589 -0.5648
13242TIP3    H261142   0.374   0.499   5.933  0.6265  0.9564  0.2646
13243TIP3   OH261143   3.523   5.814   5.987 -0.5572 -0.8411  0.3272
13243TIP3    H161144   3.563   5.781   6.068  1.3324 -0.1115 -0.2469
13243TIP3    H261145   3.539   5.909   5.991 -1.2014 -0.6936 -0.4995
13244TIP3   OH261146   4.407   0.836  16.704  0.4078  0.4072 -0.4717
13244TIP3    H161147   4.445   0.773  16.643  0.5819  0.6547 -0.6215
13244TIP3    H261148   4.324   0.862  16.664  1.8311  2.7702 -2.0932
13245TIP3   OH261149   2.936   4.983   3.436  0.4082  0.1390  0.2779
13245TIP3    H161150   2.866   4.935   3.479 -0.3259  0.0683 -0.9722
13245TIP3    H261151   2.968   5.044   3.503 -0.6144 -0.0563  0.9582
13246TIP3   OH261152   3.530   0.586  14.991  0.3316  0.2890 -0.0501
13246TIP3    H161153   3.614   0.567  14.949  0.3782  0.6201 -0.1054
13246TIP3    H261154   3.526   0.681  14.996  0.9932  0.2609  2.0374
13247TIP3   OH261155   4.855   2.374  15.894  0.4056 -0.1939  0.1603
13247TIP3    H161156   4.930   2.350  15.950  1.3530  0.3956 -0.8157
13247TIP3    H261157   4.878   2.459  15.858  0.3193 -0.9772 -1.9268
13248TIP3   OH261158   2.955   5.427  14.095 -0.4634 -0.1483  0.2385
13248TIP3    H161159   2.993   5.419  14.183  1.1026 -0.0117 -0.4055
13248TIP3    H261160   3.030   5.421  14.036 -1.4294  0.4191 -1.0731
13249TIP3   OH261161   4.386   5.707   4.311  0.1088 -0.2284 -0.2277
13249TIP3    H161162   4.350   5.764   4.243 -1.0720 -0.1917  0.4101
13249TIP3    H261163   4.471   5.680   4.277  0.0323  0.7133 -1.2031
13250TIP3   OH261164   6.199   4.216  16.801  0.1239  0.1448 -0.0961
13250TIP3    H161165   6.273   4.216  16.741  0.0015  0.1951 -0.2485
13250TIP3    H261166   6.192   4.306  16.832 -0.5183  0.3745 -0.8846
13251TIP3   OH261167   4.934   5.353   4.623 -0.6822  0.0338 -0.6676
13251TIP3    H161168   4.915   5.446   4.622 -0.1598  0.1623 -2.4489
13251TIP3    H261169   5.028   5.347   4.610 -0.3473 -0.7306  1.6424
13252TIP3   OH261170   5.362   3.529   2.183  0.0983 -0.3190  0.2712
13252TIP3    H161171   5.285   3.476   2.162  0.5325 -0.9734  0.2964
13252TIP3    H261172   5.436   3.468   2.175  0.6681  0.4222 -0.2431
13253TIP3   OH261173   6.609   5.405   1.570  0.7352  0.1397 -0.0727
13253TIP3    H161174   6.523   5.369   1.548  0.7641  0.4549 -0.7480
13253TIP3    H261175   6.593   5.465   1.643  0.7501 -1.5205  1.3454
13254TIP3   OH261176   4.238   4.971  16.743 -0.6097 -0.1367 -0.5634
13254TIP3    H161177   4.240   5.066  16.733  1.0456  0.0320  0.7601
13254TIP3    H261178   4.219   4.958  16.836  2.9683 -0.8882  0.2427
13255TIP3   OH261179   0.448   4.413  12.078  0.2294 -0.2446 -0.0358
13255TIP3    H161180   0.456   4.351  12.150 -1.4442  1.1360  1.4260
13255TIP3    H261181   0.357   4.402  12.048  1.0042 -1.1193 -2.3115
13256TIP3   OH261182   5.596   3.016   3.166  0.3287  0.8101 -0.9294
13256TIP3    H161183   5.690   3.027   3.180  0.1541  1.0968  0.0977
13256TIP3    H261184   5.557   3.025   3.253 -0.5995  0.0898 -1.2476
13257TIP3   OH261185   2.575   4.229   5.745  0.5974  0.3696  0.5029
13257TIP3    H161186   2.568   4.264   5.833 -0.0777 -1.4397  1.2289
13257TIP3    H261187   2.553   4.136   5.754 -2.4587  0.6510 -2.0088
13258TIP3   OH261188   4.545   6.202  14.509 -0.2554 -0.1499 -0.1131
13258TIP3    H161189   4.482   6.237  14.447  1.2022 -0.6233 -1.9663
13258TIP3    H261190   4.584   6.127  14.464  1.9008  0.3578  0.7549
13259TIP3   OH261191   6.786   4.339   1.768 -0.5802 -0.3043  0.6232
13259TIP3    H161192   6.785   4.245   1.781 -0.0464 -0.2771  0.8383
13259TIP3    H261193   6.794   4.350   1.673 -2.3168 -0.4756  0.4087
13260TIP3   OH261194   3.765   3.428   0.240 -0.1904 -0.2954 -0.6889
13260TIP3    H161195   3.784   3.452   0.330 -2.5940 -0.3542 -0.0898
13260TIP3    H261196   3.775   3.509   0.190  0.5789 -0.1313 -0.2749
13261TIP3   OH261197   5.860   5.421   0.833  0.3372  0.0854 -0.4781
13261TIP3    H161198   5.765   5.421   0.847  0.3664 -1.3457 -0.2287
13261TIP3    H261199   5.886   5.512   0.849 -0.9188  0.3954 -0.0880
13262TIP3   OH261200   1.943   0.908   2.857  0.1004 -0.8710  0.3748
13262TIP3    H161201   1.963   0.997   2.830 -2.8267 -0.3748 -0.5121
13262TIP3    H261202   1.941   0.858   2.776 -0.2785 -1.2894  0.6356
13263TIP3   OH261203   4.202   3.068  16.294  0.2662 -0.4012 -0.0201
13263TIP3    H161204   4.209   3.101  16.384 -0.4702 -2.6207  0.9108
13263TIP3    H261205   4.293   3.064  16.263  0.4794  1.0159  0.3490
13264TIP3   OH261206   6.351   1.129   3.528 -0.6689 -0.3618  0.0829
13264TIP3    H161207   6.331   1.037   3.513 -1.1333 -0.2882  0.2455
13264TIP3    H261208   6.346   1.170   3.442 -1.2577 -0.3357  0.1302
13265TIP3   OH261209   0.484   1.847   0.403 -0.0372 -0.2919  0.0323
13265TIP3    H161210   0.535   1.777   0.362 -0.2298  0.1528 -0.9895
13265TIP3    H261211   0.393   1.820   0.392 -0.0764 -0.4454  0.6893
13266TIP3   OH261212   0.505   0.559  13.404  0.7320 -0.0448 -0.2378
13266TIP3    H161213   0.416   0.568  13.438  0.7102  3.7195 -0.8676
13266TIP3    H261214   0.493   0.553  13.309  1.1258  1.3558 -0.3921
13267TIP3   OH261215   2.559   3.399   2.948  0.0820 -0.2162  0.0783
13267TIP3    H161216   2.563   3.489   2.916 -0.1674 -0.4727 -0.7001
13267TIP3    H261217   2.472   3.391   2.986  0.5194  0.2068  1.2079
13268TIP3   OH261218   2.719   3.656   5.581  0.3038  0.1324  0.4479
13268TIP3    H161219   2.763   3.740   5.580  2.5166 -0.9468 -0.8420
13268TIP3    H261220   2.676   3.650   5.496  0.7836 -0.3116  0.2273
13269TIP3   OH261221   5.865   5.264  15.964 -0.3619  0.1676  0.0346
13269TIP3    H161222   5.868   5.347  15.916  1.0876 -0.1111 -0.3977
13269TIP3    H261223   5.941   5.268  16.022  0.2274 -1.2371 -0.6215
13270TIP3   OH261224   5.727   5.474   1.957  0.1706 -0.5841  0.3862
13270TIP3    H161225   5.645   5.428   1.978 -0.6938  1.0404  0.7377
13270TIP3    H261226   5.788   5.404   1.934 -0.7281 -2.0036  2.0544
13271TIP3   OH261227   6.508   3.094  12.901  0.4043  0.0455  0.4569
13271TIP3    H161228   6.537   3.185  12.909  0.8845  0.2371 -2.3731
13271TIP3    H261229   6.584   3.042  12.927  0.8415  0.5072  0.1395
13272TIP3   OH261230   3.243   3.228  14.258 -0.4038  0.1735  0.1835
13272TIP3    H161231   3.153   3.205  14.280 -0.6912  0.0565 -1.0655
13272TIP3    H261232   3.240   3.254  14.166  0.9395 -0.3805 -0.0425
13273TIP3   OH261233   0.830   4.513  10.783 -0.3251 -0.0003 -0.2667
13273TIP3    H161234   0.825   4.421  10.759 -0.3963  0.1613 -0.8954
13273TIP3    H261235   0.855   4.557  10.702  0.8368  0.4071  0.2815
13274TIP3   OH261236   4.026   6.156   0.364  0.7972 -0.4159  0.4989
13274TIP3    H161237   4.039   6.249   0.343 -0.5430  0.0244  1.4667
13274TIP3    H261238   3.977   6.121   0.290  0.5799 -0.1337  0.5048
13275TIP3   OH261239   4.577   4.149  13.985  0.2274 -0.2360  0.3157
13275TIP3    H161240   4.497   4.179  13.941  0.9167  1.0184 -0.1422
13275TIP3    H261241   4.573   4.190  14.071  1.0839  1.0829 -0.2455
13276TIP3   OH261242   6.095   0.892  10.448 -0.1013  0.3380 -0.2390
13276TIP3    H161243   6.022   0.843  10.412  0.6052  0.0451 -1.3141
13276TIP3    H261244   6.144   0.923  10.372  0.2927  1.4615  0.4403
13277TIP3   OH261245   6.307   0.203   3.431 -0.2097  0.3833  0.3183
13277TIP3    H161246   6.294   0.207   3.526  0.0826 -0.0192  0.3775
13277TIP3    H261247   6.380   0.262   3.414 -0.1387  0.3108  0.3702
13278TIP3   OH261248   1.188   5.718   0.513  0.3856  0.0232  0.2202
13278TIP3    H161249   1.183   5.808   0.543 -0.0755  0.1069 -0.1011
13278TIP3    H261250   1.122   5.711   0.444 -0.0649 -0.7424  0.7106
13279TIP3   OH261251   4.914   2.836  16.195 -0.5465 -0.1501 -0.0446
13279TIP3    H161252   4.953   2.878  16.119 -0.2050  0.5900  0.5290
13279TIP3    H261253   4.851   2.900  16.229  1.8365  1.1238  2.3958
13280TIP3   OH261254   6.354   0.370  12.795  0.4650  0.4681 -0.3346
13280TIP3    H161255   6.414   0.303  12.763 -0.2072 -0.1420 -0.3297
13280TIP3    H261256   6.374   0.447  12.741  0.7699  0.0661 -0.8072
13281TIP3   OH261257   4.220   4.821   0.789  0.1297 -0.5473 -0.0477
13281TIP3    H161258   4.133   4.847   0.820  0.6872 -0.6960  1.6971
13281TIP3    H261259   4.259   4.903   0.758 -0.2718 -0.3233  0.0249
13282TIP3   OH261260   4.986   0.294   1.204 -0.3980  0.2700  0.3358
13282TIP3    H161261   4.990   0.375   1.154  1.5991  0.3660  0.5430
13282TIP3    H261262   5.077   0.277   1.229 -1.0674 -0.7963  2.2917
13283TIP3   OH261263   6.278   4.339  15.993 -0.1451 -0.0293 -0.3176
13283TIP3    H161264   6.332   4.304  16.064  0.2992 -0.1603 -0.7106
13283TIP3    H261265   6.223   4.405  16.035 -1.1365 -1.3160  0.4740
13284TIP3   OH261266   3.417   5.776  11.018 -0.5719  0.4050  0.6250
13284TIP3    H161267   3.427   5.737  10.931 -0.0539  0.9378  0.4463
13284TIP3    H261268   3.334   5.740  11.050 -1.3299  1.0530 -0.5316
13285TIP3   OH261269   3.821   6.535  14.903 -0.7868 -0.5799 -0.2390
13285TIP3    H161270   3.793   6.603  14.842 -0.3338 -0.9752 -0.8878
13285TIP3    H261271   3.791   6.453  14.865 -2.4656 -0.6901  1.1670
13286TIP3   OH261272   1.207   4.138   6.441 -0.2707 -0.4154  0.0557
13286TIP3    H161273   1.163   4.069   6.391  0.6808 -1.1531  0.2134
13286TIP3    H261274   1.167   4.219   6.410 -1.3202 -1.0234 -0.2269
13287TIP3   OH261275   4.077   1.576  14.053  0.1393 -0.2409  0.0101
13287TIP3    H161276   4.124   1.531  14.124 -0.2531 -2.0522 -0.8260
13287TIP3    H261277   3.985   1.574  14.079 -0.0114 -0.9538 -0.5594
13288TIP3   OH261278   4.112   4.840   4.655  0.3289  0.5059 -0.3153
13288TIP3    H161279   4.129   4.885   4.738 -0.6067 -0.3343  0.3493
13288TIP3    H261280   4.018   4.824   4.655  0.7459 -2.4447  0.0286
13289TIP3   OH261281   0.709   6.048   4.405  0.2554 -0.0866  0.0128
13289TIP3    H161282   0.640   6.043   4.339  0.7674  0.4731 -0.5754
13289TIP3    H261283   0.790   6.028   4.357  0.7698  1.3855  0.2299
13290TIP3   OH261284   4.861   1.970  12.902  0.2862 -0.0767  0.5355
13290TIP3    H161285   4.797   1.982  12.831 -0.9803 -0.3784  1.5936
13290TIP3    H261286   4.834   1.889  12.945  0.2938  0.7329  2.1176
13291TIP3   OH261287   0.804   2.485   3.757  0.3142  0.0219  0.2681
13291TIP3    H161288   0.749   2.503   3.834 -0.8648 -0.9357 -0.3174
13291TIP3    H261289   0.774   2.549   3.692 -0.6358 -0.9523 -0.2822
13292TIP3   OH261290   2.420   5.780   5.475  0.1237  0.3226  0.0148
13292TIP3    H161291   2.417   5.834   5.396 -2.0017 -0.7393 -0.7141
13292TIP3    H261292   2.465   5.700   5.448 -0.0172  0.2303  0.0510
13293TIP3   OH261293   4.393   0.458  12.871  0.2992 -0.4399  0.1768
13293TIP3    H161294   4.431   0.404  12.802  0.2897 -0.0005 -0.1846
13293TIP3    H261295   4.383   0.400  12.946  1.4793 -0.6190  0.2111
13294TIP3   OH261296   0.412   0.148  14.965  0.5049  0.3581 -0.0039
13294TIP3    H161297   0.379   0.079  15.023 -0.0536  0.8888  0.3229
13294TIP3    H261298   0.337   0.206  14.952  0.6439  0.2926 -1.2060
13295TIP3   OH261299   5.169   0.750  11.654  0.0516  0.0625  0.3316
13295TIP3    H161300   5.163   0.746  11.558 -1.5173  3.5237  0.1094
13295TIP3    H261301   5.097   0.695  11.685 -0.3450  0.0649 -0.5591
13296TIP3   OH261302   2.471   2.267  11.486  0.2345 -0.3218  1.0693
13296TIP3    H161303   2.441   2.358  11.483  1.6735  0.1785  0.9677
13296TIP3    H261304   2.431   2.225  11.409  2.9050  1.3764 -1.4886
13297TIP3   OH261305   1.444   6.169  16.514 -0.1992 -0.4802  0.2893
13297TIP3    H161306   1.499   6.091  16.514 -0.0613 -0.4150 -1.0182
13297TIP3    H261307   1.364   6.143  16.559  0.3354 -0.9947  0.9565
13298TIP3   OH261308   1.722   0.464  11.326 -0.2326  0.2138 -0.0372
13298TIP3    H161309   1.640   0.512  11.338  0.3357  1.1615  0.1456
13298TIP3    H261310   1.788   0.532  11.311  1.1743 -0.1970  3.3230
13299TIP3   OH261311   2.293   5.586   1.647 -0.5388  0.7692  0.6452
13299TIP3    H161312   2.329   5.576   1.559 -0.4661  3.2425  0.3005
13299TIP3    H261313   2.370   5.596   1.704 -0.6006  1.3438  0.6352
13300TIP3   OH261314   1.798   0.252   3.570  0.4025  0.1863  0.1172
13300TIP3    H161315   1.819   0.316   3.639 -0.7180  1.3218 -0.5427
13300TIP3    H261316   1.801   0.303   3.489 -1.2661 -0.3891 -0.3545
13301TIP3   OH261317   1.689   1.776  14.457 -0.2966  0.5787  0.1978
13301TIP3    H161318   1.695   1.826  14.376 -2.1084  0.4153 -0.0828
13301TIP3    H261319   1.749   1.703  14.445  1.2812  1.8548  0.0205
13302TIP3   OH261320   0.677   6.786  16.770  0.2946 -0.1431 -0.0283
13302TIP3    H161321   0.612   6.816  16.707  0.9405  2.1996  0.3403
13302TIP3    H261322   0.758   6.830  16.744  0.9500 -0.3898  1.4912
13303TIP3   OH261323   1.832   5.501   4.487  0.1149  0.3093  1.0282
13303TIP3    H161324   1.759   5.562   4.488  0.4756  0.7407  1.7902
13303TIP3    H261325   1.906   5.552   4.456 -0.3214 -0.6681 -2.0037
13304TIP3   OH261326   0.264   3.580   0.310 -0.5910  0.1105 -0.5289
13304TIP3    H161327   0.299   3.642   0.247 -1.2531  0.0761 -0.9465
13304TIP3    H261328   0.335   3.517   0.324  0.7812  1.9086  1.3005
13305TIP3   OH261329   5.216   1.531  13.369  0.0259 -0.5757  0.4871
13305TIP3    H161330   5.216   1.624  13.345  2.5578 -0.2614  1.4219
13305TIP3    H261331   5.180   1.487  13.292  0.6156  1.0223 -0.7696
13306TIP3   OH261332   5.880   2.835  12.086 -0.1498 -0.2376  0.2922
13306TIP3    H161333   5.942   2.774  12.047 -0.3466 -0.0774 -0.2749
13306TIP3    H261334   5.903   2.837  12.179  0.6421 -0.2364  0.0994
13307TIP3   OH261335   4.792   0.284  14.411 -0.3071  0.7116 -0.1808
13307TIP3    H161336   4.711   0.320  14.447 -1.2447 -0.1044 -1.3980
13307TIP3    H261337   4.806   0.203  14.459 -0.1268  0.9231  0.1274
13308TIP3   OH261338   2.717   3.367  13.655 -0.1640 -0.0771 -0.7112
13308TIP3    H161339   2.750   3.447  13.695  1.2726  0.1685 -2.2731
13308TIP3    H261340   2.694   3.310  13.729  0.0272  1.2691  0.4124
13309TIP3   OH261341   0.465   0.371  15.955 -0.5756  0.0282 -0.1408
13309TIP3    H161342   0.541   0.429  15.952 -0.0121 -0.7577 -2.6281
13309TIP3    H261343   0.463   0.340  16.046  1.2881  1.0561  0.3079
13310TIP3   OH261344   1.999   2.909   2.917 -0.4644 -0.3960  0.3154
13310TIP3    H161345   2.038   2.988   2.880 -0.5419 -0.5841 -0.1810
13310TIP3    H261346   1.906   2.916   2.896 -0.8915  0.4893  2.2824
13311TIP3   OH261347   3.790   1.218   6.354 -0.1674  0.3122  0.1588
13311TIP3    H161348   3.872   1.267   6.346  0.5184 -0.9570 -1.1541
13311TIP3    H261349   3.817   1.131   6.383 -0.8502 -0.5362 -1.5746
13312TIP3   OH261350   1.861   2.464  12.297 -0.2138  0.0885 -0.2588
13312TIP3    H161351   1.879   2.407  12.372 -0.5424 -0.5250 -0.6340
13312TIP3    H261352   1.887   2.551  12.326 -0.1736 -0.1698  0.5072
13313TIP3   OH261353   5.727   5.983  15.886 -0.1681  0.1146 -0.3243
13313TIP3    H161354   5.698   6.072  15.907  0.8213 -0.1136  2.4981
13313TIP3    H261355   5.649   5.938  15.854 -1.8059  0.8502  2.3514
13314TIP3   OH261356   3.883   1.354  16.998  0.1005  0.0761 -0.6579
13314TIP3    H161357   3.798   1.321  17.028 -0.8822  3.0887  0.1731
13314TIP3    H261358   3.945   1.283  17.020 -1.8557 -1.3392  0.6596
13315TIP3   OH261359   5.600   0.151   2.118 -0.3174 -0.7670  0.1524
13315TIP3    H161360   5.509   0.162   2.145 -0.2232  1.4910 -0.2226
13315TIP3    H261361   5.640   0.101   2.189 -1.2846  0.4472  1.6340
13316TIP3   OH261362   3.780   4.859  11.407  0.4341  0.8928  0.0777
13316TIP3    H161363   3.686   4.863  11.420  0.5891  2.4417  1.0106
13316TIP3    H261364   3.794   4.886  11.317 -0.0388 -0.0861 -0.3032
13317TIP3   OH261365   3.895   3.721  11.523  0.3739  0.6363 -0.1997
13317TIP3    H161366   3.887   3.677  11.608 -1.1105 -0.6840 -0.9559
13317TIP3    H261367   3.986   3.750  11.519  1.1811 -1.5415  0.7686
13318TIP3   OH261368   6.164   3.998   2.808 -0.2811 -0.3203  0.2752
13318TIP3    H161369   6.073   3.971   2.812  0.5233 -3.4857  4.1685
13318TIP3    H261370   6.203   3.942   2.740 -0.7129 -1.2741  0.7933
13319TIP3   OH261371   5.204   2.701   0.327 -0.2906  0.7616  0.1962
13319TIP3    H161372   5.218   2.795   0.338  0.8236  0.4744  1.6473
13319TIP3    H261373   5.182   2.690   0.235 -2.2159  2.6247  0.3698
13320TIP3   OH261374   3.321   6.335  15.631 -0.2258 -0.2099 -0.5686
13320TIP3    H161375   3.300   6.360  15.541  1.2705  0.2700 -0.8159
13320TIP3    H261376   3.365   6.251  15.623 -0.3038 -0.2823 -0.2518
13321TIP3   OH261377   6.025   2.086  11.383 -0.1445 -0.1817 -0.4400
13321TIP3    H161378   6.118   2.066  11.373 -0.1238 -0.6936  0.7023
13321TIP3    H261379   5.980   2.008  11.352 -0.1473 -0.6131  0.6328
13322TIP3   OH261380   3.674   4.890  11.757  0.3445  0.7004  0.1283
13322TIP3    H161381   3.731   4.837  11.813  0.7685 -0.0422 -0.9726
13322TIP3    H261382   3.732   4.956  11.719  0.4983 -0.0241 -0.9509
13323TIP3   OH261383   2.168   5.515   3.190  0.4044 -0.1272  0.0977
13323TIP3    H161384   2.142   5.507   3.282 -0.3205 -0.9864 -0.1685
13323TIP3    H261385   2.102   5.466   3.142  1.4385 -0.7004 -0.7830
13324TIP3   OH261386   6.787   2.994   1.745  0.3946  0.1511  0.3475
13324TIP3    H161387   6.714   3.028   1.693  0.3916 -1.3116 -0.6387
13324TIP3    H261388   6.759   3.007   1.836  1.2224  4.5767  0.1914
13325TIP3   OH261389   4.855   3.691   0.704  0.1865  0.2772 -0.3285
13325TIP3    H161390   4.826   3.700   0.794  0.6177  0.2187 -0.1822
13325TIP3    H261391   4.812   3.762   0.657  0.3936  0.6395  0.0315
13326TIP3   OH261392   0.365   2.160   5.924 -0.2674  0.0657  0.4215
13326TIP3    H161393   0.441   2.162   5.865  0.1238  1.5341  0.9351
13326TIP3    H261394   0.403   2.165   6.012 -0.8578 -1.8095  0.8431
13327TIP3   OH261395   6.166   5.786   3.268 -0.2004  0.2083 -0.1616
13327TIP3    H161396   6.171   5.691   3.273 -2.0697 -0.2804 -4.1617
13327TIP3    H261397   6.126   5.812   3.351 -1.2595 -2.6847  0.3496
13328TIP3   OH261398   0.679   4.159   1.842  0.0556  0.1786 -0.3499
13328TIP3    H161399   0.669   4.246   1.803 -1.7037 -0.6525 -1.9183
13328TIP3    H261400   0.731   4.174   1.921 -1.4543  2.8917  0.2699
13329TIP3   OH261401   3.545   3.164  16.588  0.6006  0.0942  0.0319
13329TIP3    H161402   3.595   3.135  16.664  0.6580  1.1338  0.4044
13329TIP3    H261403   3.608   3.162  16.516  1.0906  0.9952  0.4165
13330TIP3   OH261404   5.656   3.491   1.850 -0.2636  0.0067 -0.1293
13330TIP3    H161405   5.600   3.564   1.875  0.2251  0.8635 -1.4334
13330TIP3    H261406   5.648   3.486   1.754 -0.1255 -1.5305 -0.0933
13331TIP3   OH261407   3.931   5.642   5.629  0.3197 -0.3244  0.1154
13331TIP3    H161408   3.990   5.691   5.686  1.1565 -0.5869 -0.5166
13331TIP3    H261409   3.945   5.550   5.652  1.0001 -0.4635 -0.8249
13332TIP3   OH261410   6.192   1.886   6.316 -0.1690 -0.5920  0.2175
13332TIP3    H161411   6.257   1.823   6.284 -0.3382 -0.2635 -0.8404
13332TIP3    H261412   6.244   1.960   6.348  0.0045 -0.0250 -1.2808
13333TIP3   OH261413   4.407   1.812  14.368 -0.0544 -0.0658 -0.0602
13333TIP3    H161414   4.492   1.770  14.378 -0.7252 -0.9801  2.3875
13333TIP3    H261415   4.403   1.876  14.439 -1.2052  0.3871 -0.5065
13334TIP3   OH261416   3.003   1.845  15.320 -0.3201 -0.0899 -0.4234
13334TIP3    H161417   2.965   1.833  15.233 -0.7903  1.4671 -0.4737
13334TIP3    H261418   3.095   1.867  15.303  0.0517 -1.5740 -0.4176
13335TIP3   OH261419   5.388   0.343   6.057 -0.5088  0.2979  0.5367
13335TIP3    H161420   5.329   0.366   5.985  1.7940  2.2241 -0.9026
13335TIP3    H261421   5.438   0.268   6.025 -0.1995  0.4968  0.5482
13336TIP3   OH261422   2.026   0.632  11.529  0.3291 -0.1854 -0.0765
13336TIP3    H161423   1.987   0.668  11.609  0.8085  0.5739 -0.1709
13336TIP3    H261424   2.079   0.704  11.494  2.5495 -1.4372  0.5151
13337TIP3   OH261425   1.318   2.041   1.122  0.2331 -0.4599 -0.4942
13337TIP3    H161426   1.283   2.128   1.104 -0.7788 -0.7652 -0.0919
13337TIP3    H261427   1.293   1.989   1.046 -1.0395 -0.9026  0.1856
13338TIP3   OH261428   6.154   3.575  15.710 -0.5510 -0.1307 -0.3045
13338TIP3    H161429   6.181   3.569  15.801  1.1884 -2.0838 -0.8852
13338TIP3    H261430   6.166   3.667  15.688  1.5468 -0.0915  0.7279
13339TIP3   OH261431   5.302   6.683   4.563 -0.2110  0.0861 -0.6516
13339TIP3    H161432   5.302   6.598   4.519 -1.4002 -0.0731 -0.3952
13339TIP3    H261433   5.278   6.746   4.495  2.3578  0.5016 -1.2582
13340TIP3   OH261434   0.358   0.256   2.645 -0.1946 -0.7340 -0.5382
13340TIP3    H161435   0.394   0.169   2.627 -0.3578 -0.5393 -1.8976
13340TIP3    H261436   0.435   0.310   2.666 -0.1699 -1.3690  1.0716
13341TIP3   OH261437   6.429   1.111  12.321  0.2606  0.0380 -0.3005
13341TIP3    H161438   6.414   1.069  12.405 -2.1934 -0.0677 -0.7103
13341TIP3    H261439   6.384   1.195  12.328  1.5301  0.7950 -0.9314
13342TIP3   OH261440   1.110   0.568  15.391 -0.5877 -0.6350  0.0166
13342TIP3    H161441   1.147   0.581  15.303  1.3408  2.1206  1.0880
13342TIP3    H261442   1.037   0.629  15.395 -0.7829 -0.8854  0.2727
13343TIP3   OH261443   6.669   5.261  16.932  0.0361  0.2211  0.2619
13343TIP3    H161444   6.761   5.283  16.916 -0.7285  4.9532  0.7966
13343TIP3    H261445   6.671   5.191  16.997  3.1716 -1.2941 -1.2949
13344TIP3   OH261446   6.598   4.951  16.059  0.7341 -0.1640 -0.4435
13344TIP3    H161447   6.580   4.891  15.986  0.8343  0.1329 -0.7138
13344TIP3    H261448   6.588   4.897  16.137 -0.5290 -0.2071 -0.6128
13345TIP3   OH261449   0.072   3.995   3.655  0.3454 -0.0245 -0.3103
13345TIP3    H161450   0.022   4.014   3.576 -3.1810  1.4090  2.0330
13345TIP3    H261451   0.041   3.909   3.683 -0.5033  0.6329  0.8708
13346TIP3   OH261452   2.300   1.253  11.998 -0.0273 -0.2182  0.5794
13346TIP3    H161453   2.356   1.330  12.002 -0.7034  0.2455  1.4189
13346TIP3    H261454   2.311   1.220  11.908  0.8995  0.3655  0.4696
13347TIP3   OH261455   1.823   0.434   3.770 -0.0902  0.3565  0.2817
13347TIP3    H161456   1.764   0.508   3.756  0.0182  0.5760  0.9753
13347TIP3    H261457   1.833   0.429   3.865  0.1146 -0.3844  0.2232
13348TIP3   OH261458   0.305   2.641  11.791 -0.2486  0.4571  0.9721
13348TIP3    H161459   0.336   2.699  11.721 -0.7088 -1.6998 -1.1779
13348TIP3    H261460   0.278   2.699  11.861 -0.0612  2.7866 -0.7709
13349TIP3   OH261461   2.790   6.512   4.725  0.4058 -0.4749  0.1958
13349TIP3    H161462   2.842   6.578   4.680  0.9148 -0.0769  1.3427
13349TIP3    H261463   2.735   6.562   4.786  0.1723 -1.0487  0.4669
13350TIP3   OH261464   5.074   5.318  12.900  0.2007 -0.4823 -0.7381
13350TIP3    H161465   4.998   5.319  12.959  0.1810 -0.5204 -0.7625
13350TIP3    H261466   5.052   5.252  12.834  0.1313 -0.2869 -0.9106
13351TIP3   OH261467   2.690   6.480  14.175 -0.2328 -0.4651 -0.3151
13351TIP3    H161468   2.689   6.503  14.082  0.0183  0.0846 -0.1878
13351TIP3    H261469   2.771   6.519  14.208 -0.0426 -1.1270  0.0188
13352TIP3   OH261470   2.844   3.719  11.635  0.4238  0.0884  0.0626
13352TIP3    H161471   2.779   3.650  11.650  0.5486  0.2822  1.7519
13352TIP3    H261472   2.811   3.768  11.560 -1.4332  0.2066  0.8978
13353TIP3   OH261473   6.313   0.835   2.176  0.3874  0.4480 -0.2232
13353TIP3    H161474   6.256   0.795   2.110  1.5733 -1.6122 -0.0793
13353TIP3    H261475   6.319   0.927   2.150 -0.6540  0.0926 -1.8973
13354TIP3   OH261476   0.197   5.994   3.159 -0.5632  0.1329 -0.3172
13354TIP3    H161477   0.277   6.017   3.113  0.0354  0.4572  0.8425
13354TIP3    H261478   0.183   5.901   3.140 -0.2997  0.2474 -1.0766
13355TIP3   OH261479   2.524   2.094   3.497  0.1220 -0.0612  0.4639
13355TIP3    H161480   2.467   2.062   3.428 -0.1396 -0.9580  1.0822
13355TIP3    H261481   2.594   2.141   3.450 -0.6445  0.3117 -0.3353
13356TIP3   OH261482   0.090   2.176  16.784 -0.4411  0.1851  0.2751
13356TIP3    H161483   0.141   2.133  16.853  0.1490  0.1018 -0.1990
13356TIP3    H261484   0.050   2.104  16.735 -0.5779  0.2302  0.3221
13357TIP3   OH261485   1.445   0.571  11.427  0.0801  0.1208  0.4275
13357TIP3    H161486   1.385   0.590  11.499  0.6369 -2.8271  1.8180
13357TIP3    H261487   1.532   0.587  11.463  0.2855  1.1168 -0.4702
13358TIP3   OH261488   6.046   5.336   1.025  0.1054 -0.1579  0.3265
13358TIP3    H161489   6.004   5.378   0.950 -0.0407 -1.0170 -0.0888
13358TIP3    H261490   5.986   5.350   1.098 -0.0699  0.1107  0.1289
13359TIP3   OH261491   2.230   4.725   4.533  0.2464 -0.2054 -0.1689
13359TIP3    H161492   2.192   4.759   4.453 -0.5392 -0.9921 -0.1416
13359TIP3    H261493   2.273   4.800   4.573 -3.1561  1.3409  0.9465
13360TIP3   OH261494   2.618   0.755   4.896 -0.3668 -0.2492  0.0469
13360TIP3    H161495   2.583   0.844   4.904 -0.2130 -0.1396 -0.4936
13360TIP3    H261496   2.550   0.707   4.848 -0.2695 -0.3197 -0.0209
13361TIP3   OH261497   0.388   4.835   3.673  0.2081  0.2865  0.4512
13361TIP3    H161498   0.319   4.787   3.719 -0.7496 -0.1675 -1.3452
13361TIP3    H261499   0.428   4.890   3.740 -1.5321  0.1448  1.6699
13362TIP3   OH261500   4.697   5.830  13.789 -0.3837  0.0058  0.1639
13362TIP3    H161501   4.636   5.818  13.717 -1.7850 -0.0796  1.3203
13362TIP3    H261502   4.699   5.745  13.833 -0.0810  0.2525  0.6342
13363TIP3   OH261503   5.034   3.128   3.198 -0.2838  0.5030 -0.3996
13363TIP3    H161504   5.003   3.054   3.250  0.1983  1.7343  1.7800
13363TIP3    H261505   4.957   3.186   3.191 -0.2463  0.5111 -0.7366
13364TIP3   OH261506   1.180   0.621  12.435  0.6833 -0.2774 -0.2674
13364TIP3    H161507   1.150   0.543  12.482 -0.3843 -0.4721 -1.2204
13364TIP3    H261508   1.105   0.647  12.382  0.8488  1.6955  0.3691
13365TIP3   OH261509   0.741   6.430  15.814 -0.2944  0.2099  0.4310
13365TIP3    H161510   0.660   6.381  15.799 -0.7844  1.2533 -0.3855
13365TIP3    H261511   0.726   6.475  15.898 -1.0774  1.3887 -0.3156
13366TIP3   OH261512   3.456   3.407  15.560  0.4031  0.0855  0.1013
13366TIP3    H161513   3.482   3.330  15.508  0.5583 -1.0840  1.8112
13366TIP3    H261514   3.361   3.400  15.569  0.2406  0.8831 -0.9046
13367TIP3   OH261515   5.735   2.004  12.758  0.1130 -0.6520 -0.1397
13367TIP3    H161516   5.739   1.979  12.850  1.3210  0.1483  0.0328
13367TIP3    H261517   5.700   2.093  12.758  1.5674 -0.0582 -0.3290
13368TIP3   OH261518   1.013   6.181   2.292 -0.0839 -0.2489 -0.0151
13368TIP3    H161519   1.062   6.119   2.238  1.4708  0.6805  0.2787
13368TIP3    H261520   0.925   6.143   2.297 -0.1392 -0.6797 -2.6779
13369TIP3   OH261521   6.033   2.899   0.658 -0.2609 -0.0918  0.2159
13369TIP3    H161522   6.128   2.909   0.658 -0.2565  0.0105 -1.3841
13369TIP3    H261523   6.001   2.962   0.594 -1.3007 -1.0581 -0.2544
13370TIP3   OH261524   5.450   1.263  16.539 -0.3454 -0.0264 -0.3143
13370TIP3    H161525   5.481   1.228  16.455  0.6005  2.0292 -0.8838
13370TIP3    H261526   5.451   1.358  16.527 -1.5348  0.2731  1.5807
13371TIP3   OH261527   3.781   4.925  13.879  0.2280  0.2035  0.2477
13371TIP3    H161528   3.772   5.004  13.932  0.4702 -0.1132  0.7675
13371TIP3    H261529   3.722   4.861  13.919 -1.1833  0.5749 -1.1030
13372TIP3   OH261530   1.931   1.496  11.516  0.9188 -0.1306  0.2894
13372TIP3    H161531   1.882   1.464  11.593 -0.0319 -1.2724 -0.7491
13372TIP3    H261532   1.907   1.588  11.510 -2.8223 -1.0237 -1.3016
13373TIP3   OH261533   1.501   3.768  11.376  0.1524 -0.2105  0.2949
13373TIP3    H161534   1.420   3.819  11.370 -0.2724 -0.8118  0.7228
13373TIP3    H261535   1.556   3.802  11.306 -0.5827  0.0095 -0.1893
13374TIP3   OH261536   6.057   5.258  16.213 -0.2893  0.0321 -0.4343
13374TIP3    H161537   6.145   5.291  16.199 -0.1432  0.2943  0.9939
13374TIP3    H261538   6.008   5.334  16.245 -0.8122 -0.3135 -0.3983
13375TIP3   OH261539   6.767   2.103  14.811 -0.0894 -0.2265  0.1881
13375TIP3    H161540   6.725   2.030  14.766 -1.0920 -0.8725  2.0382
13375TIP3    H261541   6.836   2.062  14.864  0.3841  0.3694  0.0371
13376TIP3   OH261542   3.314   2.204   0.354 -0.1861  0.1132 -0.4378
13376TIP3    H161543   3.379   2.147   0.395 -0.2865 -0.3726 -0.9400
13376TIP3    H261544   3.232   2.154   0.358 -0.3506  0.3688 -0.5708
13377TIP3   OH261545   1.520   4.935  12.950 -0.8148 -0.0493 -0.2124
13377TIP3    H161546   1.480   5.001  12.893 -1.4959 -0.2067  0.0806
13377TIP3    H261547   1.497   4.852  12.909  0.0030 -0.1162 -0.5549
13378TIP3   OH261548   1.202   4.209   5.388  0.3420 -0.0399 -0.3772
13378TIP3    H161549   1.117   4.167   5.402  0.1360  0.0587 -1.2961
13378TIP3    H261550   1.195   4.293   5.433  0.8819 -1.0574  1.8008
13379TIP3   OH261551   6.252   1.255  13.031  0.2598  0.1466 -0.2296
13379TIP3    H161552   6.302   1.175  13.019 -1.0936 -0.7141 -0.4364
13379TIP3    H261553   6.199   1.263  12.951  0.2834  1.1896 -0.1628
13380TIP3   OH261554   4.292   3.885  12.138 -0.1432 -0.5257  0.1653
13380TIP3    H161555   4.290   3.795  12.170  1.6950  0.6757  4.3394
13380TIP3    H261556   4.248   3.937  12.206  1.4851  2.0225 -0.5675
13381TIP3   OH261557   0.221   2.916  14.531  0.2988 -0.1765  0.0366
13381TIP3    H161558   0.178   2.910  14.446  0.1403 -0.4088  0.1328
13381TIP3    H261559   0.150   2.904  14.595  0.7923 -2.6516  0.2021
13382TIP3   OH261560   3.939   4.407   0.978  0.1098 -0.2243  0.4955
13382TIP3    H161561   3.916   4.332   0.923 -0.3059  1.1702 -1.3712
13382TIP3    H261562   3.940   4.373   1.067  2.3628 -3.0021 -0.4307
13383TIP3   OH261563   3.491   3.296   1.097 -0.0800  0.5657 -0.3963
13383TIP3    H161564   3.395   3.289   1.100 -0.1916  1.9066  0.2394
13383TIP3    H261565   3.521   3.248   1.174 -0.1133 -1.0369 -1.3291
13384TIP3   OH261566   6.597   1.251  11.064 -0.5340 -0.1233  0.5127
13384TIP3    H161567   6.548   1.169  11.057  0.4035 -0.5956 -0.9868
13384TIP3    H261568   6.538   1.317  11.028 -0.1038 -0.7060 -1.3953
13385TIP3   OH261569   6.464   1.087  14.199  0.4211 -0.6422 -0.1651
13385TIP3    H161570   6.390   1.077  14.259 -0.3615  0.1256 -0.9714
13385TIP3    H261571   6.538   1.110  14.256 -0.7823  2.3555  0.3849
13386TIP3   OH261572   2.501   6.140  16.214 -0.2753  0.2819  0.8593
13386TIP3    H161573   2.427   6.111  16.160 -0.5296  0.4609  1.1094
13386TIP3    H261574   2.579   6.110  16.167 -0.4948  0.4747  0.3702
13387TIP3   OH261575   4.226   2.084   4.477 -0.8191 -0.0631 -0.6668
13387TIP3    H161576   4.303   2.112   4.428  0.5171  3.8942  3.1045
13387TIP3    H261577   4.260   2.025   4.543 -1.0245  1.2250  0.6359
13388TIP3   OH261578   2.674   0.369   0.374 -0.5362  0.5662  0.1335
13388TIP3    H161579   2.676   0.340   0.465 -0.2699 -1.5043 -0.4803
13388TIP3    H261580   2.676   0.464   0.379 -0.0186  0.4885  2.2771
13389TIP3   OH261581   5.019   4.836   4.692  0.0344  0.2426  0.8052
13389TIP3    H161582   4.971   4.918   4.681  1.0001  0.6384 -0.8200
13389TIP3    H261583   4.963   4.770   4.650 -0.6966  0.0591  2.0261
13390TIP3   OH261584   5.410   4.093  14.752  0.6899  0.1954  0.2446
13390TIP3    H161585   5.365   4.080  14.669  0.4532  1.0714  0.2263
13390TIP3    H261586   5.471   4.165  14.735 -0.4969  1.5039  1.2329
13391TIP3   OH261587   6.731   3.381   2.525  0.1106 -0.1183 -0.0843
13391TIP3    H161588   6.789   3.457   2.517  0.6452 -0.4936  0.1740
13391TIP3    H261589   6.751   3.327   2.449  0.6093 -0.5894  0.3755
13392TIP3   OH261590   1.060   2.590  16.582  0.1974 -0.0112 -0.4163
13392TIP3    H161591   1.108   2.531  16.641  0.4045  1.1577  0.6309
13392TIP3    H261592   1.078   2.677  16.617  0.4015  0.7329 -2.3065
13393TIP3   OH261593   0.113   0.482  10.390  0.1445  0.1415  0.3331
13393TIP3    H161594   0.018   0.472  10.400 -0.2773  0.8174 -2.2442
13393TIP3    H261595   0.137   0.421  10.321  0.8708  2.5261 -1.6787
13394TIP3   OH261596   5.499   4.055   6.539 -0.3665 -0.0557  0.0298
13394TIP3    H161597   5.515   4.148   6.527  2.0842 -0.4225 -0.0380
13394TIP3    H261598   5.418   4.038   6.491 -1.1437  2.0947  0.4654
13395TIP3   OH261599   3.060   5.597   0.993 -0.3022 -0.2234  0.1126
13395TIP3    H161600   3.094   5.520   1.039  1.5946 -0.2081 -1.1530
13395TIP3    H261601   3.095   5.589   0.905 -2.4593  0.6235 -0.8894
13396TIP3   OH261602   4.373   3.142   5.235  0.5964 -0.4396  0.4461
13396TIP3    H161603   4.295   3.165   5.285 -0.0189  0.5092 -0.8867
13396TIP3    H261604   4.343   3.135   5.144  1.3380 -3.8018  0.3302
13397TIP3   OH261605   6.481   3.750   4.929  0.0173 -0.7897 -0.1176
13397TIP3    H161606   6.569   3.717   4.915  0.3583  1.0926 -3.4038
13397TIP3    H261607   6.491   3.845   4.938 -1.6085 -0.5994  0.0793
13398TIP3   OH261608   5.924   3.309   0.054  0.1595  0.2959  0.1950
13398TIP3    H161609   5.891   3.295  -0.035 -0.8331  0.9453  0.4462
13398TIP3    H261610   6.007   3.262   0.056 -0.0496 -0.1584 -0.9176
13399TIP3   OH261611   0.938   0.128   2.604 -0.1751 -0.7879  0.4004
13399TIP3    H161612   1.024   0.090   2.587  0.0525  0.5909 -2.0368
13399TIP3    H261613   0.884   0.053   2.630  1.4592 -1.8678  0.8655
13400TIP3   OH261614   6.100   3.854  16.972  0.7680 -0.0317  0.1953
13400TIP3    H161615   6.159   3.879  17.042  0.0008 -0.2766  0.9514
13400TIP3    H261616   6.017   3.837  17.016  0.8711 -2.5184 -0.4225
13401TIP3   OH261617   0.525   3.766   0.754  0.2642  0.4097  0.3346
13401TIP3    H161618   0.558   3.851   0.725  0.4897  0.4438  0.6854
13401TIP3    H261619   0.490   3.726   0.675  1.3978  0.2520 -0.1024
13402TIP3   OH261620   1.518   4.068   4.723 -0.2675  0.3316 -0.0613
13402TIP3    H161621   1.478   4.076   4.636 -2.0521  1.0178  0.7651
13402TIP3    H261622   1.568   4.149   4.734 -1.2804  0.9478  0.1225
13403TIP3   OH261623   2.723   4.693  16.632  0.3471 -0.5970  0.4967
13403TIP3    H161624   2.696   4.681  16.541  1.4507 -0.7417  0.1713
13403TIP3    H261625   2.818   4.681  16.630  0.3106 -1.1598  1.7673
13404TIP3   OH261626   3.534   0.407  12.885  0.3826 -0.1420 -0.0362
13404TIP3    H161627   3.547   0.491  12.928 -0.1210 -0.1276  0.0832
13404TIP3    H261628   3.469   0.424  12.817 -0.5652 -0.6826  0.7261
13405TIP3   OH261629   4.461   3.062  11.006 -0.0178  0.1752 -0.1647
13405TIP3    H161630   4.521   2.996  10.973  0.0948  0.0998  0.1837
13405TIP3    H261631   4.410   3.090  10.930 -1.0838 -1.3693 -0.0538
13406TIP3   OH261632   0.657   3.787  14.085 -0.0419 -0.0748  0.2235
13406TIP3    H161633   0.722   3.839  14.040 -0.6900  0.3534 -0.2316
13406TIP3    H261634   0.657   3.820  14.175 -0.5474  0.8197 -0.0949
13407TIP3   OH261635   5.545   5.215  13.972  0.0371  0.1300 -0.2863
13407TIP3    H161636   5.505   5.296  13.940  1.5514  1.0581  0.0623
13407TIP3    H261637   5.502   5.200  14.057 -0.3800  0.4708 -0.4335
13408TIP3   OH261638   1.740   4.657   0.881  0.1487  0.0022  0.1924
13408TIP3    H161639   1.811   4.689   0.937 -2.3767  1.9386  2.5766
13408TIP3    H261640   1.732   4.724   0.812  2.2371 -1.5917 -1.7498
13409TIP3   OH261641   1.898   3.987  11.032 -0.3374  0.1557  0.2163
13409TIP3    H161642   1.967   4.018  10.973 -1.2452  0.2173 -0.8400
13409TIP3    H261643   1.829   4.053  11.025 -1.0875 -0.6252  0.1752
13410TIP3   OH261644   1.767   5.838  10.915  0.0789 -0.5951  0.0371
13410TIP3    H161645   1.809   5.827  10.830  1.9871  1.2879  0.6604
13410TIP3    H261646   1.733   5.927  10.914 -0.9133 -0.9358  0.8576
13411TIP3   OH261647   1.434   1.082  16.503 -0.0933  0.0475 -0.3723
13411TIP3    H161648   1.521   1.120  16.506 -0.4505  0.8550  0.1560
13411TIP3    H261649   1.420   1.062  16.410  2.3175 -4.1711 -0.0510
13412TIP3   OH261650   4.619   5.657   3.740  0.0753  0.0437  0.1629
13412TIP3    H161651   4.574   5.598   3.800  1.3315 -0.6847  0.4232
13412TIP3    H261652   4.575   5.644   3.656  1.2835 -2.4504 -0.1642
13413TIP3   OH261653   6.290   2.499   4.333 -0.4863 -0.0343 -0.1152
13413TIP3    H161654   6.223   2.432   4.348 -1.3760 -0.0656 -3.4886
13413TIP3    H261655   6.248   2.563   4.276  1.7254  1.0417 -0.6552
13414TIP3   OH261656   0.674   4.141  11.790  0.2273 -0.2125  0.1032
13414TIP3    H161657   0.669   4.223  11.839 -1.4931  0.7180 -1.5248
13414TIP3    H261658   0.754   4.150  11.737  1.8212 -1.0165  2.2211
13415TIP3   OH261659   1.488   0.821   0.443 -0.0841  0.0792 -0.0859
13415TIP3    H161660   1.489   0.801   0.349 -1.1182  0.8887 -0.2758
13415TIP3    H261661   1.415   0.770   0.478 -0.8479  1.1859 -0.0478
13416TIP3   OH261662   3.376   6.517  16.601  0.3240 -0.0362 -0.5820
13416TIP3    H161663   3.383   6.610  16.621  0.2249 -0.4253  1.5175
13416TIP3    H261664   3.315   6.483  16.666  1.0241 -1.7071 -0.7414
13417TIP3   OH261665   1.842   2.122  13.204  0.1450  0.6910  0.1950
13417TIP3    H161666   1.765   2.130  13.148 -1.0700 -3.4507  0.9504
13417TIP3    H261667   1.808   2.092  13.288  2.5050 -3.1780  0.0285
13418TIP3   OH261668   2.953   4.118  13.181 -0.2606 -0.0093 -0.3108
13418TIP3    H161669   2.965   4.081  13.093  2.3666  0.6870 -0.3347
13418TIP3    H261670   2.914   4.047  13.231  0.7698 -1.3961 -1.3821
13419TIP3   OH261671   3.372   3.426   5.588  0.0864  0.1554 -0.2173
13419TIP3    H161672   3.468   3.418   5.590 -0.0837 -3.7259 -0.0198
13419TIP3    H261673   3.345   3.422   5.679 -0.3306  1.2319 -0.2733
13420TIP3   OH261674   0.860   5.038  14.485 -0.8401 -0.2564 -0.5140
13420TIP3    H161675   0.939   4.997  14.450 -0.9808  0.4202 -1.6956
13420TIP3    H261676   0.817   5.075  14.408 -1.3618  0.9801  0.3337
13421TIP3   OH261677   6.427   2.356   2.977  0.3613 -0.4303  0.3746
13421TIP3    H161678   6.369   2.411   2.924  1.6818  2.0861  1.3827
13421TIP3    H261679   6.513   2.399   2.971  1.0400 -1.3184  2.7363
13422TIP3   OH261680   5.250   4.078  13.529  0.4690 -0.4369 -0.3675
13422TIP3    H161681   5.199   3.998  13.533  0.2750 -0.2884  0.2971
13422TIP3    H261682   5.252   4.101  13.436 -1.4553  0.0407 -0.3366
13423TIP3   OH261683   1.694   5.522   3.494 -0.2075 -0.4828  0.1125
13423TIP3    H161684   1.759   5.497   3.560  0.0915  1.6330  0.6733
13423TIP3    H261685   1.613   5.531   3.544 -0.2205  0.0454 -0.0007
13424TIP3   OH261686   2.852   1.413   4.342 -0.3539 -0.1855 -0.0537
13424TIP3    H161687   2.758   1.404   4.355 -0.4066  1.8078  1.1710
13424TIP3    H261688   2.867   1.376   4.255 -2.2605 -0.4910 -0.2951
13425TIP3   OH261689   3.689   3.289   0.567 -0.1802  0.1668  0.0593
13425TIP3    H161690   3.766   3.320   0.519  0.1365  1.6113  1.4079
13425TIP3    H261691   3.714   3.203   0.601  0.9916  0.7604  0.7566
13426TIP3   OH261692   0.246   6.659  14.609 -0.0525 -0.3215  0.3692
13426TIP3    H161693   0.274   6.704  14.528 -0.5951 -0.5616  0.0471
13426TIP3    H261694   0.312   6.684  14.673 -0.2863  0.8724  0.1732
13427TIP3   OH261695   0.209   5.175  16.738  0.1714  0.3958  0.2264
13427TIP3    H161696   0.147   5.131  16.797  0.0386  0.2140 -0.0453
13427TIP3    H261697   0.262   5.230  16.795 -0.4606  0.8074  0.4211
13428TIP3   OH261698   0.586   4.898  16.850  0.1400 -0.1249  0.6764
13428TIP3    H161699   0.492   4.884  16.837  0.2245  0.2286 -0.4716
13428TIP3    H261700   0.627   4.829  16.797  0.5287 -0.2914  1.1904
13429TIP3   OH261701   2.605   5.407   4.792  0.2591  0.0335 -0.5936
13429TIP3    H161702   2.575   5.325   4.832 -1.9293  1.2002  0.3660
13429TIP3    H261703   2.621   5.466   4.866 -1.6355  1.5245 -1.2628
13430TIP3   OH261704   4.302   6.549   2.461 -0.0673  0.3052  0.2241
13430TIP3    H161705   4.341   6.580   2.379  1.0151  0.4235  0.7736
13430TIP3    H261706   4.210   6.573   2.454  0.0937  0.6746 -0.7846
13431TIP3   OH261707   0.532   3.934  13.730  0.2507  0.1723 -0.2704
13431TIP3    H161708   0.468   3.872  13.764 -1.0765  1.2562 -0.6841
13431TIP3    H261709   0.612   3.882  13.718 -0.3034 -1.0417  0.9908
13432TIP3   OH261710   5.530   2.228   1.295  0.0038  0.2893  0.0601
13432TIP3    H161711   5.463   2.160   1.300 -1.0100  1.3586  2.0539
13432TIP3    H261712   5.570   2.229   1.381 -1.4936  3.5700  0.8841
13433TIP3   OH261713   4.493   6.305   4.139  0.0210 -0.0055  0.2625
13433TIP3    H161714   4.587   6.325   4.139 -0.2538  1.4612 -0.9443
13433TIP3    H261715   4.455   6.369   4.079 -2.3826  2.4313  3.9865
13434TIP3   OH261716   4.101   3.603   2.597  0.5159 -0.1798 -0.8164
13434TIP3    H161717   4.046   3.663   2.648  1.5143  0.3542 -0.3469
13434TIP3    H261718   4.062   3.603   2.510 -0.0523  0.4309 -0.5726
13435TIP3   OH261719   4.527   6.584   3.378 -0.0387 -0.0867 -0.2504
13435TIP3    H161720   4.593   6.553   3.317  0.5371  0.8247 -0.1067
13435TIP3    H261721   4.445   6.580   3.329  0.5658  1.6964 -1.5091
13436TIP3   OH261722   0.352   3.860   3.872 -0.3341  0.0649 -0.2920
13436TIP3    H161723   0.335   3.933   3.932 -1.4685 -0.0949 -0.3834
13436TIP3    H261724   0.408   3.800   3.922 -2.3991 -0.7538  1.2032
13437TIP3   OH261725   4.885   0.819   5.801 -0.5525 -0.2473 -0.2494
13437TIP3    H161726   4.966   0.773   5.825  0.8421  1.9326 -0.4552
13437TIP3    H261727   4.846   0.765   5.733  1.5810 -0.5823 -1.2775
13438TIP3   OH261728   1.639   2.326  16.845  0.1986 -0.5371  0.0283
13438TIP3    H161729   1.617   2.338  16.753  2.5794 -1.4691 -0.7689
13438TIP3    H261730   1.732   2.348  16.850 -0.0871  0.4079  2.4379
13439TIP3   OH261731   2.763   1.265  13.391  0.4213 -0.3430  0.0113
13439TIP3    H161732   2.793   1.198  13.452  0.1810 -0.2708  0.2125
13439TIP3    H261733   2.721   1.331  13.446  4.2444  2.1182  0.3359
13440TIP3   OH261734   6.423   6.689  11.860 -0.1942  0.3973  0.3848
13440TIP3    H161735   6.514   6.673  11.887  0.4465  3.3703  0.3649
13440TIP3    H261736   6.409   6.632  11.785  1.1945 -1.0517  1.1600
13441TIP3   OH261737   4.791   3.671   6.711  0.0782  0.3895  0.1171
13441TIP3    H161738   4.745   3.592   6.684  0.1435  0.2360  0.4515
13441TIP3    H261739   4.841   3.644   6.788  0.5306  0.6130 -0.0884
13442TIP3   OH261740   0.971   2.825   0.260  0.4186  0.7405  0.1722
13442TIP3    H161741   0.912   2.862   0.195  1.3074  0.0957 -1.0525
13442TIP3    H261742   0.923   2.831   0.342 -1.3631  0.2297 -0.7613
13443TIP3   OH261743   4.718   3.801  15.874 -0.3073 -0.8160  0.3323
13443TIP3    H161744   4.764   3.867  15.822  1.2343 -0.6390  1.8364
13443TIP3    H261745   4.783   3.731  15.886 -1.1568 -1.5652  0.7027
13444TIP3   OH261746   2.981   4.865   0.726  0.2041 -0.3839 -1.1677
13444TIP3    H161747   3.028   4.783   0.711  0.3438  0.0985 -3.7809
13444TIP3    H261748   2.956   4.894   0.639 -1.1705  1.6026 -0.1679
13445TIP3   OH261749   2.002   2.039   2.190 -0.0310 -0.8427 -0.3812
13445TIP3    H161750   1.968   2.118   2.149  1.8335 -0.2477 -0.8580
13445TIP3    H261751   2.066   2.005   2.128  0.6784 -1.5830  0.7116
13446TIP3   OH261752   6.102   2.769   4.183  0.4174 -0.1391 -0.6377
13446TIP3    H161753   6.122   2.859   4.206  1.1025 -0.1991 -0.9518
13446TIP3    H261754   6.078   2.728   4.266 -0.4304  0.4585 -0.5813
13447TIP3   OH261755   3.635   4.930   6.895  0.0755  0.5951  0.5523
13447TIP3    H161756   3.714   4.882   6.921  0.3493  1.1383  0.7477
13447TIP3    H261757   3.562   4.877   6.927  0.3904  1.0229  2.0493
13448TIP3   OH261758   1.844   6.241   1.433 -0.5183  0.3502 -0.4694
13448TIP3    H161759   1.900   6.180   1.482 -1.2235 -0.4075 -0.5843
13448TIP3    H261760   1.896   6.265   1.356 -1.0851 -1.9395 -1.6592
13449TIP3   OH261761   4.138   0.174  15.017 -0.0522  0.0656 -0.0320
13449TIP3    H161762   4.126   0.079  15.017 -1.4117  0.2162 -0.0781
13449TIP3    H261763   4.172   0.194  14.930 -0.0997 -0.3425 -0.1447
13450TIP3   OH261764   3.691   5.628  13.129  0.2073 -0.2698  0.3740
13450TIP3    H161765   3.606   5.672  13.133  0.9382  1.1853  0.6202
13450TIP3    H261766   3.752   5.696  13.101  1.0422 -1.6947 -1.4319
13451TIP3   OH261767   6.540   4.880  12.133 -0.3607 -0.6134  0.3350
13451TIP3    H161768   6.550   4.902  12.225 -0.2023 -0.3083  0.2468
13451TIP3    H261769   6.629   4.860  12.104 -0.3032  0.0229  0.0644
13452TIP3   OH261770   1.077   2.659   4.069  0.0026 -0.0068 -0.0372
13452TIP3    H161771   1.004   2.720   4.056  0.8203  1.2172  0.8508
13452TIP3    H261772   1.035   2.573   4.078 -1.1415  0.3039 -1.8744
13453TIP3   OH261773   1.681   4.797  12.226  0.1189 -0.1234  0.2402
13453TIP3    H161774   1.636   4.754  12.298  2.2575 -0.0761  1.6767
13453TIP3    H261775   1.772   4.771  12.236  0.4783 -0.2750 -2.6000
13454TIP3   OH261776   4.601   3.816  12.193  0.1060 -0.4057 -0.0341
13454TIP3    H161777   4.566   3.761  12.263 -0.1993  0.4023  0.4628
13454TIP3    H261778   4.646   3.887  12.239 -0.7979  0.5927 -0.6344
13455TIP3   OH261779   1.151   2.984  16.377 -0.0730 -0.0552  0.2830
13455TIP3    H161780   1.114   2.901  16.346 -0.5333 -0.8215  2.6443
13455TIP3    H261781   1.118   3.049  16.315  1.5919 -1.7476 -2.5937
13456TIP3   OH261782   0.205   2.038  14.158 -0.0814 -0.7479 -0.2580
13456TIP3    H161783   0.293   2.075  14.148 -0.2004  0.2729  1.7974
13456TIP3    H261784   0.172   2.078  14.239 -2.3237 -1.3516 -0.8150
13457TIP3   OH261785   6.645   6.183   0.775 -0.0866  0.2671  0.2972
13457TIP3    H161786   6.708   6.117   0.745  0.7036  0.7088  0.9381
13457TIP3    H261787   6.560   6.139   0.768  0.3210 -0.4866 -0.1874
13458TIP3   OH261788   0.886   5.916   4.235 -0.2782 -0.0454 -0.2288
13458TIP3    H161789   0.915   5.837   4.280  1.1220 -0.8967 -2.4878
13458TIP3    H261790   0.804   5.891   4.192 -2.1846  1.0595  2.4517
13459TIP3   OH261791   3.229   4.285   3.014 -0.2322  0.4150 -0.3669
13459TIP3    H161792   3.290   4.322   3.078  0.5805  1.1146 -1.5211
13459TIP3    H261793   3.174   4.226   3.066  1.6492 -0.5499  0.6758
13460TIP3   OH261794   0.743   2.870   0.096  0.4974  0.5670  0.3713
13460TIP3    H161795   0.773   2.779   0.096  0.9019  0.6307 -2.0956
13460TIP3    H261796   0.669   2.871   0.035  0.8880  1.9819 -0.1267
13461TIP3   OH261797   6.224   0.767   5.114 -0.0113 -0.1891 -0.7735
13461TIP3    H161798   6.271   0.753   5.197 -0.9594 -0.2570 -0.2304
13461TIP3    H261799   6.156   0.700   5.114 -1.0190  0.8013 -0.8449
13462TIP3   OH261800   3.946   3.935   0.120  0.1147 -0.2937 -0.3103
13462TIP3    H161801   3.852   3.917   0.124  0.3163 -1.6775 -0.9752
13462TIP3    H261802   3.981   3.896   0.200  0.6498 -3.8708 -2.0851
13463TIP3   OH261803   6.665   4.239  13.640 -0.0880 -0.5335 -0.1498
13463TIP3    H161804   6.735   4.228  13.704  0.4964 -0.1364 -0.7118
13463TIP3    H261805   6.590   4.193  13.678 -0.1528  0.8089  1.4728
13464TIP3   OH261806   5.825   5.010   0.006 -0.5227  0.8570 -0.3988
13464TIP3    H161807   5.815   5.084   0.066  1.4101  0.4132  0.5409
13464TIP3    H261808   5.857   5.049  -0.075  1.0476  1.0326  0.2762
13465TIP3   OH261809   0.619   4.407  12.670  0.2136  0.1071  0.0682
13465TIP3    H161810   0.534   4.403  12.713  0.8051  1.7497  1.5172
13465TIP3    H261811   0.604   4.459  12.592 -0.4268 -1.0541 -0.6121
13466TIP3   OH261812   6.482   1.372   3.674 -0.4679 -0.6033  0.4881
13466TIP3    H161813   6.534   1.361   3.754  1.1607  0.8586 -0.3326
13466TIP3    H261814   6.523   1.444   3.627 -3.9121  1.4729  0.3071
13467TIP3   OH261815   5.828   3.769  14.717  0.3990  0.1770  0.1111
13467TIP3    H161816   5.822   3.848  14.663  0.1913  0.7023  0.8915
13467TIP3    H261817   5.779   3.703  14.668 -0.8617  0.9857  0.2392
13468TIP3   OH261818   6.014   2.163   4.047 -0.1636  0.0655 -0.4114
13468TIP3    H161819   6.076   2.204   4.108 -0.1604  0.4988 -0.7045
13468TIP3    H261820   6.069   2.118   3.983 -0.0555  2.2598 -1.9588
13469TIP3   OH261821   3.685   4.608   3.244 -0.2024  0.2338 -0.0291
13469TIP3    H161822   3.657   4.661   3.170  1.0869  1.5913  0.3996
13469TIP3    H261823   3.711   4.672   3.311  0.6454 -0.9406  0.8128
13470TIP3   OH261824   0.952   0.841   3.180  0.4080  0.0065 -0.2272
13470TIP3    H161825   1.034   0.887   3.162  0.9027  0.2947  2.3262
13470TIP3    H261826   0.978   0.750   3.196  0.2495  0.0774  0.4905
13471TIP3   OH261827   5.526   4.251   1.241  0.0918 -0.1141  0.5739
13471TIP3    H161828   5.496   4.161   1.228  0.9450 -0.5294  1.3815
13471TIP3    H261829   5.480   4.302   1.174 -0.9592 -1.0235  0.5901
13472TIP3   OH261830   5.875   3.052  14.580  0.0624 -0.1877 -0.4217
13472TIP3    H161831   5.810   3.015  14.640  0.9452 -0.1873  0.5582
13472TIP3    H261832   5.909   3.129  14.626  2.7592 -1.7382  0.3872
13473TIP3   OH261833   0.769   0.388   0.679  0.4636 -0.3729 -0.5585
13473TIP3    H161834   0.754   0.443   0.602  0.9503 -0.8516 -0.9984
13473TIP3    H261835   0.790   0.302   0.644  0.8648 -0.5531  0.1023
13474TIP3   OH261836   3.703   2.378   0.514 -0.3501 -0.3152  0.3424
13474TIP3    H161837   3.791   2.379   0.551 -0.3269 -0.1303  0.2821
13474TIP3    H261838   3.678   2.470   0.509  0.2788 -0.2146 -1.6286
13475TIP3   OH261839   6.809   1.290   5.338  0.3800 -0.0881 -0.2040
13475TIP3    H161840   6.838   1.212   5.385  4.6383  0.2527 -1.8007
13475TIP3    H261841   6.798   1.261   5.247  1.2484  0.9576 -0.6700
13476TIP3   OH261842   3.467   3.943   5.746 -0.8466 -0.3582 -0.0358
13476TIP3    H161843   3.409   3.932   5.670  0.7197 -0.0602 -1.3176
13476TIP3    H261844   3.537   3.879   5.732  1.5636  2.2456 -0.9654
13477TIP3   OH261845   4.194   4.952  16.130  0.1874  0.2883 -0.0173
13477TIP3    H161846   4.176   5.045  16.144  1.6912  0.7258 -0.8050
13477TIP3    H261847   4.150   4.930  16.048  1.8998  0.9902 -1.1821
13478TIP3   OH261848   1.962   2.383  15.176 -0.1478  0.4928 -0.7039
13478TIP3    H161849   1.929   2.317  15.115  0.0550  0.1074 -0.3967
13478TIP3    H261850   1.923   2.359  15.260  2.3022 -1.0295  0.0688
13479TIP3   OH261851   1.160   2.437  16.785 -0.2237  0.6186  0.1475
13479TIP3    H161852   1.149   2.351  16.826  1.3823  0.0250 -0.6032
13479TIP3    H261853   1.127   2.499  16.850  0.7113 -0.4160  1.6677
13480TIP3   OH261854   2.856   3.236   1.187 -0.5798  0.5969  0.1875
13480TIP3    H161855   2.894   3.307   1.238 -3.0814  2.3271 -0.1848
13480TIP3    H261856   2.894   3.246   1.100  1.0293 -0.1819  0.7660
13481TIP3   OH261857   1.982   6.527   1.110  0.3635 -0.7144 -0.0760
13481TIP3    H161858   1.905   6.566   1.070 -0.3211 -1.9568 -0.0051
13481TIP3    H261859   2.052   6.540   1.046 -0.1358 -0.4921 -0.5816
13482TIP3   OH261860   5.222   5.456   2.982  0.7877  0.2918  0.3886
13482TIP3    H161861   5.297   5.448   3.041  0.3109 -0.6598  0.8795
13482TIP3    H261862   5.228   5.379   2.925 -0.5151 -0.5019  1.2669
13483TIP3   OH261863   0.229   2.538  12.938 -0.4590  0.2121  0.5739
13483TIP3    H161864   0.286   2.461  12.936  0.8853  1.1657 -1.3770
13483TIP3    H261865   0.246   2.582  12.855 -1.4907  2.4169  1.4525
13484TIP3   OH261866   5.519   1.521   2.998  0.3033 -0.3694  0.3894
13484TIP3    H161867   5.548   1.612   3.009 -0.3286  0.0023 -0.7716
13484TIP3    H261868   5.593   1.477   2.958  0.9064 -0.5843  1.6948
13485TIP3   OH261869   3.972   4.797   5.193  0.3502 -0.0455 -0.0283
13485TIP3    H161870   3.937   4.726   5.246  0.5647 -1.0738 -1.2265
13485TIP3    H261871   3.904   4.815   5.128  0.5988  0.3554 -0.1849
13486TIP3   OH261872   1.295   2.444   3.927  0.6272 -0.4309 -0.1627
13486TIP3    H161873   1.211   2.402   3.949  1.0777 -1.2096  0.1132
13486TIP3    H261874   1.273   2.536   3.915 -0.0390 -0.3681  1.3151
13487TIP3   OH261875   3.619   5.955   5.685  0.0761  0.7174 -0.0852
13487TIP3    H161876   3.610   5.860   5.695 -2.0238  0.6235 -2.1809
13487TIP3    H261877   3.698   5.966   5.631 -0.0888  0.1259 -0.4481
13488TIP3   OH261878   4.106   1.753  10.895  0.1251  0.1302  0.0594
13488TIP3    H161879   4.034   1.694  10.873 -0.9072  0.9488  1.1415
13488TIP3    H261880   4.067   1.840  10.895  1.0224  0.5483  1.0588
13489TIP3   OH261881   0.790   1.065   1.398  0.1168 -0.4000  0.0065
13489TIP3    H161882   0.829   1.139   1.445  0.2444 -0.9031  0.7039
13489TIP3    H261883   0.841   1.058   1.317  1.1360 -0.7042  0.6555
13490TIP3   OH261884   0.817   2.734  11.964 -0.6378  0.5465 -0.1738
13490TIP3    H161885   0.780   2.809  12.011 -0.5625  1.1937 -1.1352
13490TIP3    H261886   0.758   2.721  11.890 -0.3479 -0.0040 -0.3083
13491TIP3   OH261887   3.719   1.558   2.107 -0.4483 -0.1738 -0.2596
13491TIP3    H161888   3.648   1.611   2.143  0.7445  0.6452  1.0145
13491TIP3    H261889   3.773   1.620   2.058  0.1011 -0.5000 -0.0831
13492TIP3   OH261890   4.267   2.808   1.352  0.3899  0.0473 -0.9668
13492TIP3    H161891   4.261   2.877   1.286 -0.3532  0.4741 -0.4700
13492TIP3    H261892   4.187   2.756   1.340 -0.3642  0.8392  0.3530
13493TIP3   OH261893   2.240   5.682  11.387 -0.1486  0.1763 -0.5368
13493TIP3    H161894   2.324   5.727  11.377  0.9209 -1.6273 -0.0076
13493TIP3    H261895   2.200   5.723  11.464  2.1578 -1.6512  1.8199
13494TIP3   OH261896   4.631   4.883   5.608  0.1224  0.3303 -0.0910
13494TIP3    H161897   4.580   4.862   5.687  0.8543 -0.4712  0.1870
13494TIP3    H261898   4.634   4.801   5.559  2.0592  0.0129  0.4425
13495TIP3   OH261899   2.015   1.648   2.305 -0.6058  0.1425 -0.0741
13495TIP3    H161900   2.052   1.638   2.217 -1.8105  2.2877 -0.8927
13495TIP3    H261901   2.056   1.727   2.339 -1.6594  0.4709  0.4713
13496TIP3   OH261902   2.321   0.695  15.387  0.3207  0.0746  0.2498
13496TIP3    H161903   2.256   0.630  15.413 -1.7808  1.4081 -1.3385
13496TIP3    H261904   2.337   0.746  15.467 -1.1975  0.1808  0.5193
13497TIP3   OH261905   4.901   1.727   3.087  0.2817 -0.1486  1.3167
13497TIP3    H161906   4.931   1.757   3.002  0.7992 -3.6956  0.0806
13497TIP3    H261907   4.955   1.776   3.150  1.4845  0.9274 -0.4542
13498TIP3   OH261908   5.754   0.027   0.235  0.1671  0.3539 -0.3371
13498TIP3    H161909   5.663   0.033   0.265 -0.2752 -0.3831 -1.4907
13498TIP3    H261910   5.775   0.115   0.204  1.1194  1.6079  3.2889
13499TIP3   OH261911   6.509   0.775   0.610  0.1873 -0.3141  0.0733
13499TIP3    H161912   6.427   0.801   0.566 -0.9618 -1.8574  1.1831
13499TIP3    H261913   6.480   0.731   0.690  2.1610  0.0987  1.0831
13500TIP3   OH261914   3.508   3.291   4.018  0.9058 -0.1430  0.2803
13500TIP3    H161915   3.453   3.344   3.961  0.5468 -0.5777  0.2090
13500TIP3    H261916   3.513   3.340   4.100 -0.8049 -0.7643  0.7991
13501TIP3   OH261917   0.943   1.035   3.383 -0.2282  0.0913  0.5779
13501TIP3    H161918   0.954   0.953   3.335  1.5174  0.2755  0.5884
13501TIP3    H261919   1.020   1.040   3.439 -0.4273  1.6218  0.7580
13502TIP3   OH261920   2.772   5.763  16.108 -0.1034  0.3937  0.0971
13502TIP3    H161921   2.816   5.691  16.153  0.9748  1.4620  0.8165
13502TIP3    H261922   2.842   5.814  16.068 -0.9130  0.5385 -1.1920
13503TIP3   OH261923   3.585   5.640   4.003 -0.2216  0.0501 -0.0126
13503TIP3    H161924   3.563   5.719   4.054 -3.2744 -0.1852 -0.7628
13503TIP3    H261925   3.600   5.573   4.069  1.6621  1.0267  0.6234
13504TIP3   OH261926   2.892   2.454  15.854  0.0322 -0.4185  0.5576
13504TIP3    H161927   2.935   2.538  15.870  0.2452 -0.4360  0.1023
13504TIP3    H261928   2.853   2.431  15.938 -0.7160  0.5197  0.4853
13505TIP3   OH261929   2.747   2.108   0.150  0.0845 -0.2655 -0.0984
13505TIP3    H161930   2.786   2.039   0.203 -0.9510  0.5029  1.8012
13505TIP3    H261931   2.692   2.061   0.087  3.0299 -1.3005 -2.1034
13506TIP3   OH261932   0.885   0.504  12.803  0.6604 -0.2260 -0.1504
13506TIP3    H161933   0.796   0.534  12.818  0.3135 -0.8351 -0.8856
13506TIP3    H261934   0.897   0.431  12.864  1.4602  1.2494  1.5471
13507TIP3   OH261935   4.202   3.526  11.998 -0.1043 -0.6534 -0.2067
13507TIP3    H161936   4.183   3.438  11.965  1.2161 -1.3660  0.8445
13507TIP3    H261937   4.294   3.540  11.977 -0.3463  0.5744 -0.5234
13508TIP3   OH261938   5.920   1.000  12.093  0.6772 -0.0227  0.1623
13508TIP3    H161939   5.857   1.067  12.069 -0.1131 -0.8096 -0.0243
13508TIP3    H261940   6.004   1.033  12.061 -0.0612 -0.2319 -2.2357
13509TIP3   OH261941   4.976   2.022  16.627  0.1266  0.5899 -0.1570
13509TIP3    H161942   4.957   2.098  16.681  0.0530  0.5361 -0.1059
13509TIP3    H261943   4.894   2.004  16.580 -0.1499 -0.0342  0.5475
13510TIP3   OH261944   6.502   2.154   1.836  0.4195  0.1020 -0.2466
13510TIP3    H161945   6.584   2.112   1.861 -0.5072 -1.2538  0.6451
13510TIP3    H261946   6.440   2.082   1.824 -0.5055  1.0583 -1.4786
13511TIP3   OH261947   2.007   1.830   5.270 -0.3514 -0.9409 -0.0858
13511TIP3    H161948   1.925   1.783   5.287 -0.0400 -1.6642 -0.5607
13511TIP3    H261949   2.061   1.811   5.347 -0.4915 -0.7568  0.0608
13512TIP3   OH261950   3.573   0.707  12.348  0.0638  0.0960  0.2109
13512TIP3    H161951   3.562   0.802  12.341  0.6502  0.0587 -1.6337
13512TIP3    H261952   3.533   0.672  12.269 -0.0586 -1.2126  0.8217
13513TIP3   OH261953   0.546   3.851   6.352 -0.2905  0.0882 -0.1455
13513TIP3    H161954   0.539   3.937   6.394 -0.2662 -0.8506  1.9222
13513TIP3    H261955   0.630   3.816   6.383 -1.5620 -1.7994  1.4384
13514TIP3   OH261956   4.677   1.999  12.704 -0.6949 -0.0337  0.0368
13514TIP3    H161957   4.589   1.998  12.742 -1.6455 -2.6515 -1.9119
13514TIP3    H261958   4.693   1.907  12.680  2.2968  0.5019 -0.3150
13515TIP3   OH261959   3.338   5.883  14.960  0.1128 -0.3889  0.0187
13515TIP3    H161960   3.410   5.904  15.020  0.9919 -2.3487 -0.2710
13515TIP3    H261961   3.335   5.957  14.900  2.2732 -0.4810 -0.2916
13516TIP3   OH261962   4.687   6.368   2.355  0.1582  0.3883  0.3329
13516TIP3    H161963   4.620   6.323   2.406  0.7885  0.4194  1.2080
13516TIP3    H261964   4.770   6.341   2.394  0.8521 -1.6582 -2.2985
13517TIP3   OH261965   6.508   1.589   1.926  0.0757 -0.1627 -0.6010
13517TIP3    H161966   6.554   1.551   2.001 -1.8398  2.7427  2.3254
13517TIP3    H261967   6.423   1.545   1.926 -0.8473  1.4991  0.6227
13518TIP3   OH261968   2.274   2.270  15.424 -0.4487 -0.6212  0.3712
13518TIP3    H161969   2.193   2.258  15.474  0.1597  0.1731  1.6066
13518TIP3    H261970   2.341   2.224  15.474  0.2750  0.6265  0.6063
13519TIP3   OH261971   1.287   4.316  15.367  0.7695 -0.5493 -1.0032
13519TIP3    H161972   1.250   4.401  15.389  2.3875 -0.1530  0.3513
13519TIP3    H261973   1.212   4.257  15.362 -0.2459  0.6896 -0.7099
13520TIP3   OH261974   3.439   2.589   3.463 -0.1655 -0.2319  0.4767
13520TIP3    H161975   3.360   2.584   3.408  0.4241 -0.6217 -0.3479
13520TIP3    H261976   3.502   2.530   3.420  0.4162 -0.2949  1.3957
13521TIP3   OH261977   1.564   3.095   0.597 -0.4576 -0.1608  0.2842
13521TIP3    H161978   1.586   3.182   0.563 -0.1383 -0.6353 -0.7502
13521TIP3    H261979   1.489   3.067   0.546 -0.7503 -0.3717  0.8228
13522TIP3   OH261980   1.942   5.327  15.159 -0.0896 -0.2899  0.0707
13522TIP3    H161981   1.945   5.340  15.064  2.6115  0.9892  0.2496
13522TIP3    H261982   1.856   5.286  15.174 -1.1902  0.6943 -2.7366
13523TIP3   OH261983   6.661   0.997   0.940 -0.3000 -0.1429  0.5810
13523TIP3    H161984   6.613   1.078   0.924 -1.4759 -0.7526  0.8614
13523TIP3    H261985   6.723   0.990   0.868 -0.7874  0.5737  0.0888
13524TIP3   OH261986   4.031   6.379  13.717  0.0177  0.0498  0.1258
13524TIP3    H161987   4.027   6.416  13.629  0.8175 -0.6295 -0.2082
13524TIP3    H261988   4.032   6.455  13.775 -3.7380  0.5684 -0.2126
13525TIP3   OH261989   3.769   1.583  10.236 -0.7878 -0.2474  0.6692
13525TIP3    H161990   3.717   1.660  10.215 -0.9890 -0.6124 -0.2001
13525TIP3    H261991   3.705   1.519  10.268 -0.9622 -0.8604 -0.8492
13526TIP3   OH261992   3.671   0.039   2.977 -0.3142  0.3877 -0.4644
13526TIP3    H161993   3.727  -0.011   3.036 -1.1154  0.6471  0.5358
13526TIP3    H261994   3.593  -0.016   2.966 -0.5129  0.7039 -0.6473
13527TIP3   OH261995   6.056   0.959   6.351 -0.4522 -0.3682 -0.3457
13527TIP3    H161996   6.134   0.920   6.390 -0.7622  0.9642  1.7432
13527TIP3    H261997   6.088   1.036   6.304 -0.4425 -0.0321  0.2006
13528TIP3   OH261998   3.377   3.277  11.853 -0.3778  0.4355  0.2951
13528TIP3    H161999   3.444   3.328  11.807 -1.7185  0.8382 -1.2755
13528TIP3    H262000   3.372   3.316  11.940  1.9477 -0.0966  0.7486
13529TIP3   OH262001   1.333   6.321   5.254 -0.4283  0.5168 -0.0686
13529TIP3    H162002   1.383   6.302   5.333  1.9037  1.4364 -1.2448
13529TIP3    H262003   1.279   6.243   5.240 -0.6663  0.2030  2.1932
13530TIP3   OH262004   6.055   5.006  11.865  0.3464  0.2011  0.2827
13530TIP3    H162005   5.969   5.047  11.874  0.1412  0.1117 -1.1587
13530TIP3    H262006   6.109   5.048  11.932 -0.1297  2.0965 -0.4784
13531TIP3   OH262007   5.991   5.506   5.354 -0.5242  0.1038 -0.4635
13531TIP3    H162008   5.899   5.519   5.331 -0.5659  0.7224  0.0097
13531TIP3    H262009   6.040   5.539   5.278 -0.6825  0.5679 -0.3662
13532TIP3   OH262010   6.484   1.375  17.052  0.4719 -0.4644  0.4967
13532TIP3    H162011   6.533   1.293  17.044  0.8461 -0.1858 -0.1087
13532TIP3    H262012   6.521   1.418  17.129 -0.6632 -1.4817  1.6718
13533TIP3   OH262013   5.324   4.646   3.547  0.0443  0.0844 -0.1241
13533TIP3    H162014   5.233   4.672   3.557 -0.1397 -0.8407  0.7271
13533TIP3    H262015   5.331   4.562   3.591  1.3784  0.2739  0.0920
13534TIP3   OH262016   3.272   2.519   4.246 -0.1914 -0.0803 -0.2960
13534TIP3    H162017   3.326   2.443   4.223  0.7038  0.1717  0.8421
13534TIP3    H262018   3.184   2.483   4.260  0.7087 -1.4769  2.8696
13535TIP3   OH262019   2.486   0.699  15.191  0.0372 -0.2724  0.4516
13535TIP3    H162020   2.577   0.710  15.220 -0.0300  0.4176  0.4071
13535TIP3    H262021   2.434   0.701  15.272  0.1935 -2.4959  0.6789
13536TIP3   OH262022   6.364   1.704   0.273  0.3759  0.1927 -0.4378
13536TIP3    H162023   6.342   1.661   0.190  0.2592 -1.2025  0.3055
13536TIP3    H262024   6.348   1.638   0.340 -2.0599  2.0585  0.9990
13537TIP3   OH262025   6.717   1.943  15.244 -0.0510 -0.7046  0.5335
13537TIP3    H162026   6.797   1.966  15.292 -0.1844 -1.5769  1.2002
13537TIP3    H262027   6.650   2.000  15.281  0.2388  0.0005  0.0017
13538TIP3   OH262028   3.763   3.251   5.184  0.6489  0.0362  0.6217
13538TIP3    H162029   3.817   3.329   5.197  0.4479  0.4552 -0.8972
13538TIP3    H262030   3.724   3.263   5.097 -0.6043 -1.0327  1.0125
13539TIP3   OH262031   1.333   4.480   5.530 -0.2203  0.0747 -0.2380
13539TIP3    H162032   1.364   4.492   5.440  0.1046  1.0246 -0.0096
13539TIP3    H262033   1.321   4.569   5.564  0.2481 -0.2584  0.8612
13540TIP3   OH262034   5.109   0.648  11.099 -0.4875 -0.1677  0.6748
13540TIP3    H162035   5.150   0.690  11.174  0.9565 -1.5020  0.6943
13540TIP3    H262036   5.161   0.677  11.024  0.5805 -1.8815  0.6986
13541TIP3   OH262037   4.020   6.549   1.989 -0.4407 -0.0155  0.4194
13541TIP3    H162038   4.027   6.617   2.055 -0.8503 -0.1599  0.6122
13541TIP3    H262039   3.988   6.472   2.036 -0.2110 -0.2740  0.1580
13542TIP3   OH262040   2.695   3.550  13.407 -0.1682  0.2445  0.4698
13542TIP3    H162041   2.662   3.461  13.414 -0.9673  0.4946 -0.0745
13542TIP3    H262042   2.756   3.547  13.333  1.8189 -0.4311  2.0356
13543TIP3   OH262043   2.995   4.489  12.155 -0.3890  0.7452 -0.3569
13543TIP3    H162044   3.009   4.575  12.116 -0.5480  0.7829 -0.3318
13543TIP3    H262045   3.046   4.491  12.236  0.6224  0.3678 -0.9639
13544TIP3   OH262046   5.843   0.459  16.320 -0.4134  0.3979 -0.1930
13544TIP3    H162047   5.905   0.389  16.298 -0.2150 -0.2133  2.0589
13544TIP3    H262048   5.847   0.519  16.245  1.7477 -0.3972 -0.7943
13545TIP3   OH262049   6.249   1.486   2.256  0.2447  0.1820  0.1886
13545TIP3    H162050   6.306   1.410   2.272  0.1652  0.2230  0.6897
13545TIP3    H262051   6.162   1.456   2.283  0.0885  0.2266 -0.2659
13546TIP3   OH262052   1.734   5.709   1.146 -1.1475  0.2253  0.1637
13546TIP3    H162053   1.731   5.756   1.062 -1.3756 -0.7577 -0.3994
13546TIP3    H262054   1.793   5.762   1.201 -1.3147  1.1002 -0.4742
13547TIP3   OH262055   5.567   1.240   2.622 -0.3944 -0.9957 -0.2298
13547TIP3    H162056   5.560   1.210   2.713 -1.4251 -0.7286 -0.2042
13547TIP3    H262057   5.575   1.159   2.571  0.7668 -1.1224  0.1327
13548TIP3   OH262058   6.203   1.284   0.207  0.2479 -0.0189 -0.1245
13548TIP3    H162059   6.274   1.239   0.161  0.5514  1.0612 -0.7671
13548TIP3    H262060   6.207   1.374   0.174 -1.2743  0.1254 -0.0018
13549TIP3   OH262061   4.753   4.643   4.914 -0.2390  0.0426  0.6829
13549TIP3    H162062   4.693   4.581   4.873  0.0477  0.2320 -0.0310
13549TIP3    H262063   4.732   4.727   4.875  0.4032  0.1306  0.5148
13550TIP3   OH262064   0.758   5.820  11.993  0.0638 -0.3099  0.1924
13550TIP3    H162065   0.800   5.877  11.930  0.7188  0.3128  1.1772
13550TIP3    H262066   0.829   5.770  12.033 -0.2558 -0.1407  0.9924
13551TIP3   OH262067   0.122   1.841  16.091  0.4951  0.6292  0.6145
13551TIP3    H162068   0.099   1.811  16.179 -0.3115 -0.0264  0.1930
13551TIP3    H262069   0.218   1.835  16.088  0.4143 -1.2736  0.7875
13552TIP3   OH262070   2.910   1.618   3.793  0.6907  0.2733  0.9672
13552TIP3    H162071   2.965   1.650   3.722  0.6562 -0.3818  0.6373
13552TIP3    H262072   2.847   1.689   3.809  0.5613  0.3363  0.1921
13553TIP3   OH262073   2.805   2.727  14.969 -0.0689  0.5019 -0.3206
13553TIP3    H162074   2.771   2.812  14.939  0.5486  0.7933 -0.1986
13553TIP3    H262075   2.748   2.704  15.043 -0.1140  0.9037 -0.2266
13554TIP3   OH262076   5.879   4.597  14.397 -0.1011 -0.4722 -0.2804
13554TIP3    H162077   5.818   4.651  14.348 -0.1480  0.1159  0.3970
13554TIP3    H262078   5.965   4.633  14.377 -0.1299 -0.1483  0.1470
13555TIP3   OH262079   6.112   4.309   2.487 -0.1355  0.6678  0.5130
13555TIP3    H162080   6.133   4.218   2.464 -0.0852  1.0273 -0.8986
13555TIP3    H262081   6.172   4.329   2.559  1.4287  0.3013 -0.6366
13556TIP3   OH262082   0.506   5.181   1.413  0.0445 -0.2792 -0.4734
13556TIP3    H162083   0.555   5.232   1.348  0.3825 -0.6331 -0.4916
13556TIP3    H262084   0.436   5.241   1.441 -1.9549 -1.0616 -3.3285
13557TIP3   OH262085   0.214   5.499  15.133 -0.2972  0.2125 -0.2714
13557TIP3    H162086   0.170   5.427  15.178 -1.8044  2.0904  1.4933
13557TIP3    H262087   0.189   5.577  15.183  1.4230  1.9564 -1.9432
13558TIP3   OH262088   5.279   4.105   1.185  0.2486 -0.1617 -0.5014
13558TIP3    H162089   5.245   4.034   1.239 -1.5074  2.4360  2.1143
13558TIP3    H262090   5.207   4.126   1.125  0.0043  0.5798  0.0316
13559TIP3   OH262091   3.886   0.859   4.430 -0.1701  0.3626  0.3048
13559TIP3    H162092   3.869   0.925   4.364 -1.2798 -0.6095 -0.4102
13559TIP3    H262093   3.976   0.831   4.414 -0.9258 -1.0296 -1.9054
13560TIP3   OH262094   1.696   3.832   5.594 -0.2119  0.0461 -0.4472
13560TIP3    H162095   1.621   3.888   5.615  0.0220  0.0510  0.4289
13560TIP3    H262096   1.731   3.806   5.680  1.5778  1.1267 -0.7935
13561TIP3   OH262097   5.871   4.510   6.408 -0.0445 -0.0019 -0.2193
13561TIP3    H162098   5.957   4.470   6.396  0.0522 -0.6566  2.2316
13561TIP3    H262099   5.820   4.444   6.454 -0.2359  2.1710  2.9435
13562TIP3   OH262100   4.890   2.720  11.391 -0.1760 -0.1481  0.8817
13562TIP3    H162101   4.938   2.800  11.368  1.9972 -0.8815  2.5695
13562TIP3    H262102   4.917   2.656  11.325 -1.1560  0.1883  0.1180
13563TIP3   OH262103   2.566   6.586   4.911 -0.3385 -0.2953  0.3561
13563TIP3    H162104   2.574   6.596   5.006  2.3604  0.4550  0.1344
13563TIP3    H262105   2.562   6.676   4.878  0.4134 -0.5050 -0.3234
13564TIP3   OH262106   5.003   0.006   3.331 -0.1772 -0.3896 -0.0005
13564TIP3    H162107   4.959   0.064   3.393  0.6681  0.5693 -0.2759
13564TIP3    H262108   4.982  -0.082   3.362 -0.7138  0.0624  0.9703
13565TIP3   OH262109   1.636   0.751   2.554 -0.3132 -0.1317  0.1168
13565TIP3    H162110   1.648   0.693   2.629 -1.3635 -0.2463  0.2113
13565TIP3    H262111   1.604   0.693   2.485 -3.2052  0.5850  0.7469
13566TIP3   OH262112   4.136   5.377  12.392 -0.5645 -0.2882 -0.3804
13566TIP3    H162113   4.116   5.353  12.483  2.3034  1.2209  0.7893
13566TIP3    H262114   4.060   5.426  12.362 -2.6374 -2.8621  0.2579
13567TIP3   OH262115   0.315   5.717  15.714 -0.3292 -0.2066 -0.8970
13567TIP3    H162116   0.399   5.672  15.717  0.9222  1.8607 -2.2995
13567TIP3    H262117   0.276   5.689  15.631 -0.2224  0.1750 -1.0747
13568TIP3   OH262118   5.736   2.798   3.585  0.4125  0.2775 -0.4650
13568TIP3    H162119   5.775   2.711   3.600 -3.0765 -1.4149 -0.1674
13568TIP3    H262120   5.740   2.809   3.490 -0.7621 -1.1334 -0.7153
13569TIP3   OH262121   6.698   3.123   5.059 -0.0856  0.2504  0.6516
13569TIP3    H162122   6.632   3.060   5.086 -2.0765  2.5149  1.4421
13569TIP3    H262123   6.662   3.162   4.978  1.2265  0.2008  0.0228
13570TIP3   OH262124   3.718   0.821  13.209  0.2194  0.3996  0.2515
13570TIP3    H162125   3.718   0.788  13.119  0.8073 -0.4787  0.5574
13570TIP3    H262126   3.807   0.851  13.223  1.2776 -2.8963  1.6997
13571TIP3   OH262127   2.878   6.680   0.191 -0.2112 -0.0115 -0.0039
13571TIP3    H162128   2.824   6.616   0.237 -0.4899 -1.2726 -1.9380
13571TIP3    H262129   2.861   6.662   0.098  0.5896  2.1433 -0.6245
13572TIP3   OH262130   1.281   5.979   1.829 -0.1217 -0.2011 -0.3383
13572TIP3    H162131   1.320   5.905   1.875 -1.9362 -0.9259  0.0853
13572TIP3    H262132   1.300   6.055   1.884 -1.0882 -0.8544  0.9224
13573TIP3   OH262133   5.895   4.788  16.012  0.3351 -0.3814  0.5551
13573TIP3    H162134   5.877   4.727  16.083 -3.8054 -0.3439 -0.1968
13573TIP3    H262135   5.910   4.872  16.057 -0.8380 -0.6201  1.4391
13574TIP3   OH262136   2.407   1.347  14.952  0.5426  0.0760 -0.3189
13574TIP3    H162137   2.429   1.404  15.026  1.1828  0.5610 -0.8751
13574TIP3    H262138   2.313   1.357  14.942  0.7736  1.8697 -1.0619
13575TIP3   OH262139   1.544   5.608  17.051  0.1017 -0.3434 -0.3963
13575TIP3    H162140   1.636   5.592  17.070  0.0979  1.3699  1.4257
13575TIP3    H262141   1.509   5.523  17.025  2.0793 -1.1159 -0.6419
13576TIP3   OH262142   3.497   4.804   2.098  0.1024 -0.2426 -0.4911
13576TIP3    H162143   3.462   4.718   2.077  0.2000 -0.2301 -0.7061
13576TIP3    H262144   3.529   4.839   2.015 -0.2482  0.1434 -0.4698
13577TIP3   OH262145   4.234   5.835  16.993  0.1435  0.1953  0.6910
13577TIP3    H162146   4.241   5.924  16.959 -1.4619 -0.3111 -1.1446
13577TIP3    H262147   4.156   5.798  16.950  1.8940 -2.7895 -0.2512
13578TIP3   OH262148   2.147   5.248   6.303  0.2122  0.1552 -0.3370
13578TIP3    H162149   2.069   5.207   6.340  0.6184 -0.7539 -0.4490
13578TIP3    H262150   2.115   5.298   6.228 -0.6756  2.3334  1.3898
13579TIP3   OH262151   1.893   2.889   2.035  0.3447 -0.4674  0.0671
13579TIP3    H162152   1.820   2.853   2.085  0.8388 -0.3006  0.9160
13579TIP3    H262153   1.968   2.834   2.056  0.6385 -0.1912 -0.2253
13580TIP3   OH262154   3.484   1.838   5.918 -0.1449  0.4914 -0.0778
13580TIP3    H162155   3.411   1.812   5.974  0.2826  0.7714  0.6300
13580TIP3    H262156   3.547   1.766   5.924 -0.1288  0.4910 -0.2480
13581TIP3   OH262157   3.993   0.677   5.098  0.1964  0.0284 -0.5661
13581TIP3    H162158   3.980   0.583   5.111 -4.3987  0.3877 -0.7486
13581TIP3    H262159   4.030   0.684   5.010 -0.0357 -1.5868 -0.8357
13582TIP3   OH262160   4.357   2.062   2.784 -0.2767  0.1681 -0.5272
13582TIP3    H162161   4.385   2.141   2.831  0.1534  0.4632 -1.2709
13582TIP3    H262162   4.425   1.997   2.805  1.1733  0.9604 -2.5407
13583TIP3   OH262163   2.272   5.101  14.363 -0.0390 -0.3827  0.0688
13583TIP3    H162164   2.205   5.105  14.431 -0.7722  1.3221 -0.7107
13583TIP3    H262165   2.327   5.177  14.378  0.1497 -0.3150 -0.8792
13584TIP3   OH262166   5.781   3.250  16.933 -0.0235  0.4050  0.2881
13584TIP3    H162167   5.764   3.156  16.922  0.9830  0.2217  0.1234
13584TIP3    H262168   5.731   3.292  16.864 -1.1435  0.0658  0.8726
13585TIP3   OH262169   0.129   3.961  15.358 -0.2153 -0.2830 -0.3881
13585TIP3    H162170   0.040   3.934  15.383 -0.2843  1.3057  1.3475
13585TIP3    H262171   0.134   4.053  15.385  1.9359 -0.2980 -0.5696
13586TIP3   OH262172   2.756   5.479  11.532  1.0169 -0.3373 -0.6567
13586TIP3    H162173   2.707   5.455  11.611  1.8685 -0.9037 -0.2832
13586TIP3    H262174   2.724   5.566  11.510  0.7472 -0.1733  0.3083
13587TIP3   OH262175   4.328   3.399  15.104 -0.0025 -0.0092 -0.2552
13587TIP3    H162176   4.300   3.323  15.052  0.3856  0.4323 -1.1223
13587TIP3    H262177   4.420   3.383  15.123  0.4159  0.8111 -1.4870
13588TIP3   OH262178   2.682   2.510   2.355  0.4734  0.4829  0.2218
13588TIP3    H162179   2.680   2.590   2.303 -0.0561  0.5294  0.3022
13588TIP3    H262180   2.678   2.540   2.446 -1.6580  0.3432  0.2282
13589TIP3   OH262181   5.282   2.127  11.919 -0.1973  0.0902 -0.2932
13589TIP3    H162182   5.257   2.177  11.842 -1.3468 -0.4757 -0.3022
13589TIP3    H262183   5.313   2.043  11.884 -1.1557 -0.3404 -0.1215
13590TIP3   OH262184   6.392   4.892   1.243  0.2191 -0.3323  0.1415
13590TIP3    H162185   6.382   4.870   1.335  0.9335 -0.7390  0.1279
13590TIP3    H262186   6.472   4.945   1.239 -0.0569  0.0729 -0.1879
13591TIP3   OH262187   0.641   2.179   4.415  0.1335  0.7716  0.2812
13591TIP3    H162188   0.659   2.093   4.453 -0.3457  0.4905 -0.1108
13591TIP3    H262189   0.726   2.211   4.386  0.0107 -0.7675 -2.0807
13592TIP3   OH262190   1.349   4.169   2.778  0.0304  0.4014  0.1399
13592TIP3    H162191   1.302   4.211   2.706  2.7824  1.1046 -1.3936
13592TIP3    H262192   1.383   4.088   2.739 -0.0412 -0.1709  1.2407
13593TIP3   OH262193   0.995   4.152  11.244 -0.0734 -0.0771 -0.0502
13593TIP3    H162194   0.975   4.228  11.190 -2.1547 -0.7777 -0.3493
13593TIP3    H262195   1.061   4.103  11.194  0.5025  0.9772 -0.3396
13594TIP3   OH262196   0.539   4.222  15.598  0.6009  0.2614  0.1612
13594TIP3    H162197   0.508   4.201  15.686  1.3043  0.5008  0.4726
13594TIP3    H262198   0.544   4.318  15.597 -0.2249  0.3061 -0.4282
13595TIP3   OH262199   0.541   4.528  11.401 -0.0669  0.0105  0.0987
13595TIP3    H162200   0.524   4.459  11.465  1.0211  1.2825  1.8456
13595TIP3    H262201   0.610   4.493  11.345  0.9690 -0.0787  1.4057
13596TIP3   OH262202   2.125   6.456  12.345 -0.1181  0.6962  0.4323
13596TIP3    H162203   2.059   6.446  12.413 -1.0536  0.4497 -0.4914
13596TIP3    H262204   2.171   6.372  12.343  1.3078  1.3711  2.1332
13597TIP3   OH262205   3.321   2.430  15.765  0.2642  0.0319 -0.1797
13597TIP3    H162206   3.354   2.457  15.851 -0.3376 -0.5847  0.2558
13597TIP3    H262207   3.378   2.359  15.738  2.1521  1.9221 -1.5436
13598TIP3   OH262208   0.905   1.184   4.845 -0.1462 -0.0649  0.3941
13598TIP3    H162209   0.969   1.172   4.775  0.1774  1.6166  0.3719
13598TIP3    H262210   0.828   1.222   4.802 -0.5973 -0.6276  0.6827
13599TIP3   OH262211   6.471   5.421   5.539  0.3463  0.1833 -0.2692
13599TIP3    H162212   6.562   5.440   5.516  0.7985 -0.6905  0.7186
13599TIP3    H262213   6.449   5.343   5.487  0.1845  0.3452 -0.4457
13600TIP3   OH262214   2.529   3.771   0.489  0.4287  0.3420  0.5737
13600TIP3    H162215   2.585   3.756   0.413  0.7130  1.1111  0.6245
13600TIP3    H262216   2.538   3.691   0.542 -0.2633 -0.4686 -0.4908
13601TIP3   OH262217   3.374   1.719  14.086  0.5143  0.0451  0.8059
13601TIP3    H162218   3.372   1.652  14.018  0.7044  1.7914 -1.0317
13601TIP3    H262219   3.458   1.763  14.072 -0.3746  1.8029  0.7353
13602TIP3   OH262220   4.112   0.160  14.455 -0.0265 -0.4836 -0.0152
13602TIP3    H162221   4.134   0.182  14.546 -0.3429  0.7625 -0.2175
13602TIP3    H262222   4.032   0.108  14.461 -0.6675  0.5273  0.3731
13603TIP3   OH262223   3.148   6.026  13.998 -0.2526  0.1313  0.3384
13603TIP3    H162224   3.081   5.961  14.018  0.2499 -0.6240 -0.3878
13603TIP3    H262225   3.118   6.068  13.917  1.1700 -1.7570 -1.3019
13604TIP3   OH262226   4.247   5.188  11.988  0.2081 -0.2110  0.4097
13604TIP3    H162227   4.180   5.167  12.054 -0.1340 -3.5125 -0.8033
13604TIP3    H262228   4.264   5.105  11.944  1.6535  1.5109 -2.5678
13605TIP3   OH262229   0.566   5.790  11.310  0.2250  0.1444  0.1424
13605TIP3    H162230   0.624   5.759  11.241  2.9655 -0.6088  2.6001
13605TIP3    H262231   0.505   5.717  11.325  1.2818 -0.7265  0.2632
13606TIP3   OH262232   4.870   1.972  15.692 -0.2361  0.0216 -0.2109
13606TIP3    H162233   4.962   1.951  15.677  0.4481  1.2560  1.8596
13606TIP3    H262234   4.867   2.067  15.699 -1.3198 -0.0784  1.5064
13607TIP3   OH262235   3.992   5.246  14.789  0.2139 -0.1466  0.3047
13607TIP3    H162236   3.964   5.333  14.761 -2.4237  0.0547  2.9963
13607TIP3    H262237   4.067   5.262  14.847  1.3633  0.0111 -1.1559
13608TIP3   OH262238   2.869   0.610  16.290  0.0955 -0.2508 -0.5936
13608TIP3    H162239   2.914   0.650  16.216  0.1961  0.5134 -0.1238
13608TIP3    H262240   2.812   0.679  16.324  0.1629 -0.5480  0.1356
13609TIP3   OH262241   0.920   0.310   1.698 -0.3993 -0.0363 -0.2460
13609TIP3    H162242   0.977   0.261   1.638  3.4294  0.9181  2.2521
13609TIP3    H262243   0.927   0.263   1.781 -0.3832  2.0662  1.0198
13610TIP3   OH262244   1.208   6.541   2.471  0.2535 -0.3323  0.3806
13610TIP3    H162245   1.228   6.449   2.451  0.0552 -0.0326 -1.3464
13610TIP3    H262246   1.261   6.591   2.408 -1.1931  0.6600 -0.0909
13611TIP3   OH262247   1.210   0.393  14.652  0.2164  0.1578  0.3835
13611TIP3    H162248   1.171   0.324  14.706 -0.0191  0.6147  0.8060
13611TIP3    H262249   1.215   0.354  14.564 -1.7913  0.2969  0.1655
13612TIP3   OH262250   0.145   6.601   2.111  0.3865  0.2509  0.4481
13612TIP3    H162251   0.071   6.662   2.108  1.6419  1.8154 -0.6939
13612TIP3    H262252   0.155   6.572   2.020  1.4561  0.4335  0.4994
13613TIP3   OH262253   1.806   3.331   3.354  0.8127 -0.1108 -0.1338
13613TIP3    H162254   1.835   3.419   3.381 -1.9021  0.8808 -0.1174
13613TIP3    H262255   1.784   3.287   3.436  1.1786 -0.4043 -0.1976
13614TIP3   OH262256   4.379   2.845   6.131  0.3002  0.2229 -0.0478
13614TIP3    H162257   4.453   2.832   6.191 -0.4687  0.3934  0.9674
13614TIP3    H262258   4.410   2.911   6.069  1.4273 -0.5967 -0.4050
13615TIP3   OH262259   3.290   1.915  14.867 -0.4232 -0.1860  0.1469
13615TIP3    H162260   3.232   1.853  14.910  1.3785 -1.4216  0.9147
13615TIP3    H262261   3.373   1.868  14.856 -0.1171  0.7729 -2.7895
13616TIP3   OH262262   5.395   3.385  13.286  0.2061 -0.0064  0.1611
13616TIP3    H162263   5.303   3.410  13.283  0.1646 -0.2214 -0.6290
13616TIP3    H262264   5.413   3.371  13.379 -0.3760  0.6820  0.3885
13617TIP3   OH262265   5.058   0.995  11.920 -0.1252  0.2418  0.0697
13617TIP3    H162266   5.017   0.949  11.993  0.9112  1.7862  1.7103
13617TIP3    H262267   5.022   1.083  11.923 -0.8800  0.0383 -2.0089
13618TIP3   OH262268   3.049   2.046  14.374 -0.0669  0.3975 -0.2611
13618TIP3    H162269   2.989   2.070  14.445 -0.5139 -0.2892 -0.4051
13618TIP3    H262270   3.134   2.080  14.403  0.1495 -1.4434  1.4864
13619TIP3   OH262271   4.594   2.449   3.619  0.3623 -0.5210 -0.1214
13619TIP3    H162272   4.574   2.481   3.531  2.0699 -0.0094 -0.3566
13619TIP3    H262273   4.508   2.429   3.657 -0.6488  1.9596 -0.8659
13620TIP3   OH262274   0.660   6.251   2.057 -0.0764  0.0742 -0.3042
13620TIP3    H162275   0.632   6.325   2.002 -0.2474 -0.9700 -1.6602
13620TIP3    H262276   0.615   6.265   2.140 -1.1833  0.7760 -0.9972
13621TIP3   OH262277   6.497   2.929   5.056 -0.5746 -0.3206  0.1881
13621TIP3    H162278   6.422   2.925   5.116  0.6312  2.7131  2.1647
13621TIP3    H262279   6.557   2.861   5.088 -0.7057  0.0820  1.3341
13622TIP3   OH262280   2.273   3.278  15.284 -0.0282 -0.8207 -0.2185
13622TIP3    H162281   2.195   3.246  15.329  0.1035 -0.6249  0.1526
13622TIP3    H262282   2.251   3.272  15.191 -1.9670  2.8109 -0.1345
13623TIP3   OH262283   6.032   0.176   3.339 -0.1637  0.7408 -0.5169
13623TIP3    H162284   6.003   0.095   3.299 -0.6861  1.6771 -2.1207
13623TIP3    H262285   6.114   0.153   3.383 -1.5277 -1.1763  1.1929
13624TIP3   OH262286   1.410   4.326   3.944 -0.3111  0.0443 -0.3334
13624TIP3    H162287   1.484   4.363   3.896  1.1749 -0.5188  1.3754
13624TIP3    H262288   1.334   4.376   3.914  0.6857  0.4449 -2.3855
13625TIP3   OH262289   1.343   0.570  12.785  0.1147  0.0472  0.0026
13625TIP3    H162290   1.266   0.618  12.817  1.1071  1.3091  0.5367
13625TIP3    H262291   1.371   0.619  12.708  0.2736 -0.5417 -0.3196
13626TIP3   OH262292   4.320   0.696   3.971 -0.9149 -0.3762 -0.0937
13626TIP3    H162293   4.391   0.635   3.949 -1.7984 -1.4936  0.0593
13626TIP3    H262294   4.350   0.781   3.938  0.7012 -0.7241  0.3869
13627TIP3   OH262295   0.480   0.508   5.446  0.2218 -0.3491 -0.3576
13627TIP3    H162296   0.541   0.554   5.504 -0.0054 -1.3291  0.6945
13627TIP3    H262297   0.394   0.540   5.472  0.1840  0.0955 -0.9927
13628TIP3   OH262298   3.015   6.367  13.385  0.1930  0.5159 -0.4180
13628TIP3    H162299   2.987   6.454  13.356 -1.1936  0.3384  0.2975
13628TIP3    H262300   3.009   6.370  13.480 -0.9776 -0.6895 -0.4213
13629TIP3   OH262301   2.075   1.103   5.191 -0.7727  0.1317 -0.0968
13629TIP3    H162302   2.100   1.185   5.233  1.0876  0.8011 -2.3161
13629TIP3    H262303   2.045   1.047   5.263  0.4748  1.8162  1.8373
13630TIP3   OH262304   0.675   4.254   2.697 -0.2834 -0.1167  0.5718
13630TIP3    H162305   0.725   4.178   2.726 -2.7861 -1.3564  2.0382
13630TIP3    H262306   0.646   4.296   2.778 -1.3470  0.6805 -0.1840
13631TIP3   OH262307   2.588   5.996   4.076 -0.3295  0.2324  0.0875
13631TIP3    H162308   2.505   5.949   4.072 -0.2062  0.0542 -0.5000
13631TIP3    H262309   2.631   5.976   3.992 -0.0894  1.0476  0.0098
13632TIP3   OH262310   3.746   6.623  10.711 -0.3617  0.1522  0.2103
13632TIP3    H162311   3.665   6.588  10.749 -1.4076  0.4710 -1.5754
13632TIP3    H262312   3.734   6.718  10.714 -0.6276  0.1860 -1.1300
13633TIP3   OH262313   4.007   2.759  13.633 -0.4998  0.3970 -0.1275
13633TIP3    H162314   3.992   2.681  13.580 -1.4269  0.4751  0.0105
13633TIP3    H262315   3.930   2.814  13.618 -0.0045  1.1513  0.0169
13634TIP3   OH262316   1.472   5.982  12.046  0.4191  0.1820  0.4298
13634TIP3    H162317   1.480   5.944  11.958  0.2292 -0.5530  0.7235
13634TIP3    H262318   1.414   5.922  12.093 -0.8499  1.4519  0.5663
13635TIP3   OH262319   2.315   4.952  13.622 -0.7159  0.0894  0.2277
13635TIP3    H162320   2.329   4.965  13.716 -0.3350  2.2468 -0.0703
13635TIP3    H262321   2.361   4.870  13.602  0.7031  0.4875  1.6259
13636TIP3   OH262322   3.110   1.488   2.743 -0.5981 -0.2895  0.5676
13636TIP3    H162323   3.052   1.444   2.681 -0.1996 -2.0939  1.4008
13636TIP3    H262324   3.191   1.438   2.740  0.6654  1.7066  0.0273
13637TIP3   OH262325   5.742   2.552  11.936 -0.2216  0.2616 -0.7733
13637TIP3    H162326   5.653   2.522  11.918 -0.4538  0.2309  0.3539
13637TIP3    H262327   5.744   2.642  11.905 -1.2975  0.9589  1.0264
13638TIP3   OH262328   1.930   3.071   1.220  0.2862  0.2147 -0.1712
13638TIP3    H162329   1.989   3.146   1.210 -0.4200  0.6078 -1.6502
13638TIP3    H262330   1.988   2.997   1.238  1.2239  0.6627 -1.2202
13639TIP3   OH262331   4.691   2.575   1.004  0.7513  0.3901 -0.3193
13639TIP3    H162332   4.778   2.586   0.965  0.5323  0.6077 -0.7454
13639TIP3    H262333   4.669   2.660   1.040  0.4865  0.4773 -0.6831
13640TIP3   OH262334   1.814   2.929  14.350  0.3764  0.4794 -0.0643
13640TIP3    H162335   1.847   2.968  14.269  1.6781  0.0382  0.2205
13640TIP3    H262336   1.742   2.987  14.376 -0.2255  0.4888 -1.6349
13641TIP3   OH262337   2.248   2.020  12.716  0.6218  0.4316 -0.8089
13641TIP3    H162338   2.330   1.973  12.730 -0.3210 -1.1654 -0.4012
13641TIP3    H262339   2.218   1.990  12.630  0.9064  1.7556 -1.4056
13642TIP3   OH262340   3.118   5.367  13.446  0.0203 -0.2438 -0.3162
13642TIP3    H162341   3.194   5.323  13.407  0.8493  0.0039  0.9498
13642TIP3    H262342   3.096   5.313  13.522 -2.3551 -1.4349 -1.7425
13643TIP3   OH262343   4.091   6.049  13.615 -0.3406 -0.3904 -0.0668
13643TIP3    H162344   4.023   6.077  13.677 -0.3482  1.0107 -0.6760
13643TIP3    H262345   4.133   5.975  13.658 -0.3440  0.5444  1.6379
13644TIP3   OH262346   0.101   3.640  14.690  0.2648  0.4199 -0.1224
13644TIP3    H162347   0.078   3.682  14.774  1.4838 -1.1556  1.0671
13644TIP3    H262348   0.161   3.570  14.715  0.4669 -0.2428 -2.3303
13645TIP3   OH262349   3.389   1.198   3.172 -0.5304 -0.0926 -0.2863
13645TIP3    H162350   3.465   1.221   3.225 -0.4806  2.0944 -1.1968
13645TIP3    H262351   3.414   1.222   3.082 -2.8457  2.4444 -0.4049
13646TIP3   OH262352   0.112   6.382  14.007  0.0061 -0.5739  0.3038
13646TIP3    H162353   0.184   6.359  13.947 -0.5328 -1.5501  0.0080
13646TIP3    H262354   0.076   6.463  13.971 -0.0953 -0.9725 -0.5167
13647TIP3   OH262355   0.072   5.165  11.594  0.6504  0.0601  0.0493
13647TIP3    H162356   0.149   5.198  11.640 -0.5026  0.9177  1.4569
13647TIP3    H262357   0.058   5.077  11.629 -0.8631  1.0934  2.3534
13648TIP3   OH262358   2.556   2.195  12.403  0.1536 -0.3264 -0.2640
13648TIP3    H162359   2.545   2.168  12.494  3.4011 -0.2146  0.2982
13648TIP3    H262360   2.507   2.130  12.353 -1.1312 -0.8108  1.5242
13649TIP3   OH262361   6.012   2.644  13.760  0.1800  0.1961  0.1290
13649TIP3    H162362   5.991   2.582  13.830 -0.1512  1.7336  1.4474
13649TIP3    H262363   5.928   2.660  13.716  0.3171 -0.4772 -0.3936
13650TIP3   OH262364   0.463   3.921  13.279 -0.2557  0.3467  0.6951
13650TIP3    H162365   0.507   3.836  13.289  0.3503  0.6671  0.7992
13650TIP3    H262366   0.403   3.925  13.354  1.3815  0.9976  2.0397
13651TIP3   OH262367   0.695   5.726  15.671  0.0148  0.3348  0.1906
13651TIP3    H162368   0.780   5.770  15.674  0.2905 -0.2180  0.7410
13651TIP3    H262369   0.661   5.746  15.584 -0.2413  2.3221  0.6958
13652TIP3   OH262370   5.706   2.034  16.122  0.2127 -0.2697  0.0085
13652TIP3    H162371   5.753   2.011  16.042  1.0812 -0.2997  0.5073
13652TIP3    H262372   5.775   2.066  16.181 -0.5929  1.0368  0.2735
13653TIP3   OH262373   1.207   4.565  15.921  0.4566  0.0298  0.0602
13653TIP3    H162374   1.152   4.605  15.855  1.1923  1.5437  0.3184
13653TIP3    H262375   1.294   4.559  15.880  0.4839 -0.8168  0.2208
13654TIP3   OH262376   5.583   1.717   0.818  0.1959  0.4066 -0.2679
13654TIP3    H162377   5.584   1.811   0.801 -0.1476  0.3914 -0.3673
13654TIP3    H262378   5.496   1.700   0.853 -0.1714 -0.0717 -1.3666
13655TIP3   OH262379   5.870   2.492  14.004 -0.2045  0.4566 -0.9740
13655TIP3    H162380   5.833   2.580  14.007 -0.5205  0.2897  0.5370
13655TIP3    H262381   5.805   2.436  14.047 -0.1133 -0.5799 -2.0997
13656TIP3   OH262382   5.141   2.600  12.221 -0.2075  0.8254 -0.4199
13656TIP3    H162383   5.178   2.671  12.274  1.9235 -0.2800 -0.3297
13656TIP3    H262384   5.216   2.567  12.170 -1.3802 -0.6733 -1.2339
13657TIP3   OH262385   5.653   1.621   4.650  0.6017 -0.2836  0.0344
13657TIP3    H162386   5.623   1.630   4.560  3.5337  0.2727 -0.9868
13657TIP3    H262387   5.690   1.533   4.656 -0.4881 -0.7030  1.0359
13658TIP3   OH262388   2.012   6.342  14.976 -0.3480  0.2167  0.0862
13658TIP3    H162389   1.953   6.405  15.017 -0.9315 -0.3344  0.1168
13658TIP3    H262390   2.008   6.265  15.032 -3.1629 -1.5273 -2.2089
13659TIP3   OH262391   6.671   6.288  15.501  0.1228 -0.0588 -0.4276
13659TIP3    H162392   6.655   6.261  15.592  1.5191 -1.6983 -0.6168
13659TIP3    H262393   6.636   6.216  15.448  1.1362 -0.0940 -1.0806
13660TIP3   OH262394   1.664   2.319   0.423 -0.3025 -0.0605  0.5240
13660TIP3    H162395   1.711   2.272   0.354 -0.1513 -1.3624  1.4757
13660TIP3    H262396   1.587   2.356   0.380  0.0653 -0.4020 -0.4367
13661TIP3   OH262397   1.168   2.309  12.247 -0.1364  0.2360  0.7321
13661TIP3    H162398   1.159   2.214  12.244 -0.3166  0.1420  2.7102
13661TIP3    H262399   1.258   2.323  12.278 -0.0857  0.7238  0.3786
13662TIP3   OH262400   2.204   4.285   4.262  0.3967  0.1545 -0.3073
13662TIP3    H162401   2.290   4.243   4.255  0.4630 -0.2093  2.0148
13662TIP3    H262402   2.215   4.352   4.329 -1.8263 -1.9534  2.3660
13663TIP3   OH262403   0.185   5.611   1.357 -0.7731  0.4113 -0.0810
13663TIP3    H162404   0.234   5.656   1.426 -1.1915  1.4348 -0.4438
13663TIP3    H262405   0.106   5.580   1.401 -0.2452 -0.4762  0.2939
13664TIP3   OH262406   2.612   5.979  15.214  0.3529 -0.4465 -0.2361
13664TIP3    H162407   2.528   5.942  15.190  0.9659 -0.3094 -2.8935
13664TIP3    H262408   2.591   6.047  15.277 -1.2217 -2.1331  1.1820
13665TIP3   OH262409   6.111   0.060  10.371 -0.4210 -0.2249  0.1017
13665TIP3    H162410   6.088   0.139  10.420 -0.5560 -0.5250  0.5279
13665TIP3    H262411   6.200   0.076  10.340 -0.4182  0.0616  0.2486
13666TIP3   OH262412   2.134   0.968  14.877  0.1614  0.5823 -0.3806
13666TIP3    H162413   2.201   1.032  14.852  0.0008  0.1312 -2.0910
13666TIP3    H262414   2.152   0.949  14.969  1.1023  1.9999 -0.2413
13667TIP3   OH262415   5.617   2.713  10.998 -0.1690  0.4120 -0.0690
13667TIP3    H162416   5.642   2.642  10.939  0.5284  0.6672 -0.0906
13667TIP3    H262417   5.588   2.668  11.078 -0.8396  0.0767 -0.4841
13668TIP3   OH262418   3.020   3.962  13.438  0.5994 -0.0393 -0.2678
13668TIP3    H162419   3.016   3.867  13.440 -0.5429 -0.0515 -1.4230
13668TIP3    H262420   3.102   3.983  13.395  0.9440 -0.4849  0.1650
13669TIP3   OH262421   5.342   6.348  16.404 -0.4520 -0.0196 -0.1744
13669TIP3    H162422   5.289   6.422  16.434 -1.8406 -1.0443 -0.0222
13669TIP3    H262423   5.394   6.324  16.481 -0.8383  0.0834  0.1254
13670TIP3   OH262424   1.718   1.403   3.324 -0.5834  0.2107 -0.2963
13670TIP3    H162425   1.693   1.353   3.402  0.3164  0.9576  0.5031
13670TIP3    H262426   1.789   1.353   3.284 -0.8468 -0.0213 -0.4795
13671TIP3   OH262427   2.020   6.665  15.301  0.1485 -0.4721  0.3816
13671TIP3    H162428   2.082   6.737  15.308  0.3645 -0.7385  1.3186
13671TIP3    H262429   2.041   6.624  15.217  1.1578 -0.4737  0.6222
13672TIP3   OH262430   5.910   5.043  10.929 -0.0245  0.1448  0.3992
13672TIP3    H162431   5.834   5.073  10.880  0.1253 -0.1803 -0.0404
13672TIP3    H262432   5.886   5.056  11.021  0.4394  2.6388  0.2511
13673TIP3   OH262433   4.825   0.764  13.273 -0.0462 -0.0404  0.1938
13673TIP3    H162434   4.796   0.847  13.312  0.3493  0.5417 -0.7305
13673TIP3    H262435   4.745   0.722  13.243 -0.0973  0.9009 -1.0519
13674TIP3   OH262436   5.724   2.443  16.283 -0.6562 -0.4539 -0.3941
13674TIP3    H162437   5.807   2.404  16.310 -0.3221  0.0755 -0.6502
13674TIP3    H262438   5.665   2.426  16.357  1.0262  3.6489  2.2698
13675TIP3   OH262439   4.477   4.311  13.445  0.0387  0.0139  0.1784
13675TIP3    H162440   4.383   4.296  13.442  0.0886 -1.3300  2.8008
13675TIP3    H262441   4.487   4.402  13.470 -0.4862  0.6435 -1.7493
13676TIP3   OH262442   5.325   1.893  13.685 -0.2177 -0.3041 -0.0139
13676TIP3    H162443   5.384   1.921  13.756 -0.0701 -1.9444  0.5508
13676TIP3    H262444   5.238   1.917  13.716 -0.1391 -0.8757  0.6801
13677TIP3   OH262445   0.078   1.712   4.640 -0.3398  0.1005  0.9135
13677TIP3    H162446   0.170   1.686   4.640 -0.4149 -0.1675  1.0477
13677TIP3    H262447   0.079   1.804   4.615  0.2542  1.0652  4.0558
13678TIP3   OH262448   4.207   1.870   0.807 -0.2078 -0.5643 -0.3874
13678TIP3    H162449   4.230   1.783   0.841  0.5344 -0.4996 -0.7241
13678TIP3    H262450   4.143   1.903   0.870  0.1374 -1.0122  0.2150
13679TIP3   OH262451   1.115   1.913   5.297  0.2663  0.0428 -0.3747
13679TIP3    H162452   1.179   1.918   5.368  0.0713 -0.2572 -0.1749
13679TIP3    H262453   1.048   1.976   5.321  0.4981  0.3729 -0.5952
13680TIP3   OH262454   6.165   3.251   2.381 -0.2112  0.3828  0.2031
13680TIP3    H162455   6.207   3.320   2.432 -0.4037  0.3960  0.3444
13680TIP3    H262456   6.234   3.217   2.324 -0.4173  1.5192 -0.7485
13681TIP3   OH262457   4.986   6.128   0.229  0.3579  0.2098 -0.1078
13681TIP3    H162458   5.066   6.086   0.199  0.8304  0.7873  0.3415
13681TIP3    H262459   4.993   6.130   0.325 -0.0602  0.5301 -0.0787
13682TIP3   OH262460   2.145   4.490  11.808 -0.2147 -0.6046 -0.0802
13682TIP3    H162461   2.138   4.405  11.763 -0.3475 -0.1730 -0.8963
13682TIP3    H262462   2.106   4.552  11.747  2.3571  0.4890 -0.7084
13683TIP3   OH262463   1.074   3.007  16.960  0.1483  0.3067  0.2126
13683TIP3    H162464   1.151   2.974  17.007  0.2904  0.7228  0.2683
13683TIP3    H262465   1.080   2.967  16.874  0.4281  0.3420  0.2150
13684TIP3   OH262466   2.411   6.653  16.830 -0.4354  0.3942  0.0934
13684TIP3    H162467   2.323   6.664  16.795 -0.3338  1.0601  0.0437
13684TIP3    H262468   2.397   6.630  16.922 -0.6835 -0.6595 -0.1944
13685TIP3   OH262469   0.579   3.115   1.860 -0.1889  0.5229  0.4222
13685TIP3    H162470   0.495   3.099   1.905 -0.3506  3.1375  1.2031
13685TIP3    H262471   0.559   3.183   1.796  0.4606 -1.8852 -2.5269
13686TIP3   OH262472   5.431   0.162   3.977  0.5383 -0.2889 -0.1097
13686TIP3    H162473   5.369   0.146   4.049 -0.2099 -1.5438 -0.9971
13686TIP3    H262474   5.508   0.200   4.020 -0.9392  1.6759  0.9920
13687TIP3   OH262475   3.763   6.270  14.791  0.8848 -0.8780 -0.6244
13687TIP3    H162476   3.699   6.201  14.805  0.7509 -0.8673 -1.1331
13687TIP3    H262477   3.848   6.229  14.805  0.7352 -0.5546  1.4283
13688TIP3   OH262478   5.511   0.846  15.839 -0.3151  0.3948 -0.0724
13688TIP3    H162479   5.448   0.800  15.783  0.9951 -0.5233 -0.8664
13688TIP3    H262480   5.552   0.910  15.781 -0.2790  0.7387  0.3352
13689TIP3   OH262481   4.538   5.558   1.952  0.0101 -0.8753 -0.5707
13689TIP3    H162482   4.611   5.531   2.007  0.2652 -1.2833 -1.0991
13689TIP3    H262483   4.570   5.546   1.862  0.1299  1.1348 -0.8573
13690TIP3   OH262484   5.549   1.111   1.796 -0.1310  0.5981  0.5186
13690TIP3    H162485   5.616   1.043   1.796  1.2248  1.8553  0.9758
13690TIP3    H262486   5.504   1.101   1.713 -0.5097 -1.3371  0.9179
13691TIP3   OH262487   4.674   4.642   5.474  0.6180  0.2298  0.3755
13691TIP3    H162488   4.649   4.653   5.383  0.7256  3.0803  0.6058
13691TIP3    H262489   4.755   4.591   5.470  1.3160  1.3710 -1.2539
13692TIP3   OH262490   4.369   4.585  12.185  0.1236  0.0469 -0.3724
13692TIP3    H162491   4.407   4.508  12.144 -0.4523 -1.3619  1.6023
13692TIP3    H262492   4.285   4.597  12.142 -1.3421 -2.5603  1.5530
13693TIP3   OH262493   0.177   1.178  12.867 -0.1322 -0.3189  0.0956
13693TIP3    H162494   0.186   1.086  12.841 -0.7240  0.0989 -1.7915
13693TIP3    H262495   0.221   1.226  12.797 -0.3387  0.8671  0.7555
13694TIP3   OH262496   3.573   3.333  14.170 -0.1953 -0.0728  0.0622
13694TIP3    H162497   3.659   3.374  14.157 -0.3255  0.4448  0.8122
13694TIP3    H262498   3.575   3.256  14.113  0.9901 -0.3944  0.5011
13695TIP3   OH262499   0.968   0.658   3.885  0.5444  0.4611 -0.0878
13695TIP3    H162500   0.887   0.699   3.854  1.0397  0.6753 -1.1759
13695TIP3    H262501   0.966   0.570   3.847  1.9313  1.2672 -2.2479
13696TIP3   OH262502   0.949   2.926  15.212 -0.5674  0.1181  0.8575
13696TIP3    H162503   0.941   3.021  15.213  0.2780  0.2065  0.2555
13696TIP3    H262504   1.032   2.909  15.168 -1.3607 -0.9529 -0.2773
13697TIP3   OH262505   6.010   6.041  15.897  0.4010 -0.1221  0.3400
13697TIP3    H162506   5.917   6.025  15.883  0.4570 -1.2589  1.1498
13697TIP3    H262507   6.044   6.064  15.810 -0.9729  2.3528  0.3630
13698TIP3   OH262508   0.674   4.714   3.626  0.3543 -0.3705  0.1782
13698TIP3    H162509   0.708   4.802   3.640  1.2185 -0.8161  0.9944
13698TIP3    H262510   0.628   4.719   3.542  0.2942  0.8782  0.2738
13699TIP3   OH262511   6.696   0.139   4.828 -0.7118 -0.4606  0.3119
13699TIP3    H162512   6.653   0.224   4.835  0.3156  0.0701  0.4207
13699TIP3    H262513   6.776   0.158   4.778  0.1977 -1.1057  1.4951
13700TIP3   OH262514   5.278   3.158  15.976  0.1984 -0.0518  0.3582
13700TIP3    H162515   5.363   3.114  15.977  0.4360  0.3958  0.5313
13700TIP3    H262516   5.255   3.162  15.883  1.0618  1.0962  0.1638
13701TIP3   OH262517   3.045   3.424   5.189  0.4930 -0.3946  0.5676
13701TIP3    H162518   3.069   3.414   5.282 -0.0895 -1.6720  0.5959
13701TIP3    H262519   2.960   3.380   5.182 -0.3689  1.3309 -0.1912
13702TIP3   OH262520   6.419   3.485  15.627  0.1940 -0.0603 -0.6210
13702TIP3    H162521   6.434   3.396  15.660  0.4883 -0.4010 -1.6477
13702TIP3    H262522   6.327   3.503  15.646 -0.2115 -1.0800 -1.5292
13703TIP3   OH262523   0.627   3.170  12.420 -0.3813 -0.2202 -0.1734
13703TIP3    H162524   0.563   3.174  12.492 -0.1247 -0.3194  0.0646
13703TIP3    H262525   0.664   3.082  12.427 -0.7926 -0.4528 -0.8137
13704TIP3   OH262526   4.205   5.636   2.475  0.0317  0.0222 -0.9802
13704TIP3    H162527   4.278   5.580   2.503  0.8184  1.4998  0.1030
13704TIP3    H262528   4.147   5.640   2.551  0.1496  0.9095 -0.9248
13705TIP3   OH262529   3.883   1.105  13.810  0.7401 -0.0421  0.4599
13705TIP3    H162530   3.849   1.021  13.782  2.2579 -0.5902  0.1727
13705TIP3    H262531   3.962   1.118  13.758 -0.3549  2.4017 -0.7895
13706TIP3   OH262532   0.306   0.409   2.147 -0.1530  0.0046  0.5873
13706TIP3    H162533   0.260   0.476   2.197  1.1494  0.6098  1.0184
13706TIP3    H262534   0.338   0.347   2.213  0.1599 -0.0809  0.3593
13707TIP3   OH262535   1.624   2.301  12.688  0.3251  0.3951  0.3626
13707TIP3    H162536   1.702   2.246  12.681 -1.1542 -1.6444 -1.1269
13707TIP3    H262537   1.597   2.292  12.779  0.6925 -0.5201  0.3929
13708TIP3   OH262538   3.952   3.234   1.935  0.2355 -0.4136  0.3814
13708TIP3    H162539   3.976   3.253   1.845  0.6217  0.8954  0.7387
13708TIP3    H262540   4.020   3.174   1.966 -0.0261 -1.0485 -0.2507
13709TIP3   OH262541   6.061   4.704   0.096  0.8881  0.5921 -0.0520
13709TIP3    H162542   6.131   4.707   0.030  0.1286  0.4056 -0.8826
13709TIP3    H262543   6.074   4.783   0.148  1.2103  0.9883 -0.7226
13710TIP3   OH262544   3.489   6.454   4.411 -0.2374  0.3681  0.1481
13710TIP3    H162545   3.417   6.413   4.363  0.0495 -0.5202  0.4598
13710TIP3    H262546   3.568   6.428   4.363 -0.0915  1.1179 -0.0367
13711TIP3   OH262547   4.560   2.676   1.622 -0.0250 -0.2815 -0.5407
13711TIP3    H162548   4.598   2.614   1.559  0.6730 -0.4943  0.0845
13711TIP3    H262549   4.635   2.712   1.669 -0.3705  1.3676 -1.1716
13712TIP3   OH262550   1.297   3.941   2.278  0.0524  0.6185  0.1949
13712TIP3    H162551   1.231   3.998   2.318 -0.7496  0.8794 -1.4028
13712TIP3    H262552   1.255   3.910   2.198  1.6179  0.1937 -0.4868
13713TIP3   OH262553   0.499   1.751  14.799 -0.2682 -0.7823 -0.1734
13713TIP3    H162554   0.556   1.674  14.802  0.5799 -0.1791 -0.3970
13713TIP3    H262555   0.485   1.775  14.890 -0.2641 -1.0036 -0.1158
13714TIP3   OH262556   6.522   2.626   2.671 -0.2498 -0.2564  0.3983
13714TIP3    H162557   6.604   2.674   2.657 -0.2127 -0.2587  0.6048
13714TIP3    H262558   6.550   2.540   2.702 -0.2902 -0.6536 -0.6166
13715TIP3   OH262559   3.093   5.221   6.494  0.0152 -0.2661  0.1762
13715TIP3    H162560   3.017   5.184   6.448  0.4533 -1.0729  0.0810
13715TIP3    H262561   3.094   5.175   6.579  1.4143 -1.6072 -0.5042
13716TIP3   OH262562   2.892   4.258   1.796  0.4137 -0.2211 -0.0842
13716TIP3    H162563   2.854   4.236   1.881 -3.2722 -0.5636 -1.6631
13716TIP3    H262564   2.958   4.325   1.816 -0.5665 -0.0435  2.9910
13717TIP3   OH262565   4.145   3.125   2.314  0.5798  0.8807 -0.4865
13717TIP3    H162566   4.157   3.111   2.408  0.7875 -0.4779 -0.6883
13717TIP3    H262567   4.200   3.200   2.293  1.5571  0.3859  0.2414
13718TIP3   OH262568   4.794   2.355   2.334  0.4375  0.5434  0.2496
13718TIP3    H162569   4.765   2.302   2.408 -1.3530 -1.8201 -1.9519
13718TIP3    H262570   4.732   2.428   2.331 -2.0810 -1.4620 -1.0639
13719TIP3   OH262571   2.623   0.342   1.040 -0.2245 -0.3661 -0.0230
13719TIP3    H162572   2.566   0.335   0.964  1.1649 -1.3254 -1.0349
13719TIP3    H262573   2.674   0.261   1.039  0.8696  0.2736  1.0589
13720TIP3   OH262574   2.486   0.571  15.873  0.3348 -0.7665 -0.1858
13720TIP3    H162575   2.479   0.477  15.889 -1.4095 -0.4352  1.3216
13720TIP3    H262576   2.563   0.598  15.924  0.6590 -1.3279 -0.3767
13721TIP3   OH262577   4.313   0.793   3.241  0.0716  0.3158 -0.2519
13721TIP3    H162578   4.328   0.712   3.288 -0.9129  0.7008  0.7794
13721TIP3    H262579   4.294   0.766   3.151  0.8388 -0.5068 -0.1739
13722TIP3   OH262580   4.289   5.464   4.426  0.9950  0.1701 -0.2889
13722TIP3    H162581   4.255   5.413   4.352  0.2465  0.2470 -0.0092
13722TIP3    H262582   4.298   5.553   4.392 -0.1483  0.3909 -0.0782
13723TIP3   OH262583   3.166   0.216  12.772 -0.2862  0.0013  0.6170
13723TIP3    H162584   3.142   0.131  12.809 -0.7242  0.1227  0.6221
13723TIP3    H262585   3.244   0.198  12.719  0.0827 -0.2529  1.2358
13724TIP3   OH262586   4.574   2.901   2.410  0.6245  0.0060 -0.1842
13724TIP3    H162587   4.624   2.949   2.475  2.2433  0.1313 -1.4424
13724TIP3    H262588   4.570   2.959   2.334 -1.0889 -0.1929 -0.2996
13725TIP3   OH262589   6.184   2.117   4.538  1.1501 -0.8548 -0.1932
13725TIP3    H162590   6.093   2.086   4.539  0.4149  1.1860 -0.2008
13725TIP3    H262591   6.226   2.067   4.608 -0.9755  0.8348  2.5200
13726TIP3   OH262592   5.927   0.270   4.435 -0.2235  0.1560  0.3476
13726TIP3    H162593   5.947   0.185   4.397 -1.2108 -1.1346  2.5250
13726TIP3    H262594   5.840   0.291   4.402 -1.1779 -1.0692  1.9509
13727TIP3   OH262595   2.888   5.364   1.234 -0.3278  0.6817 -0.5495
13727TIP3    H162596   2.934   5.310   1.170 -1.5811 -1.4244  0.2415
13727TIP3    H262597   2.842   5.430   1.181 -0.3367 -0.2316 -1.7157
13728TIP3   OH262598   5.579   0.880  16.927 -0.4135  0.1392  0.9718
13728TIP3    H162599   5.665   0.913  16.954 -0.6287 -0.5966  2.6672
13728TIP3    H262600   5.541   0.951  16.876  1.1328  0.5334  0.3100
13729TIP3   OH262601   3.405   0.742   3.331  0.1458  0.6523  0.3630
13729TIP3    H162602   3.336   0.749   3.264  0.1996 -0.0586  0.2226
13729TIP3    H262603   3.397   0.823   3.382 -1.3940  0.1949  0.9081
13730TIP3   OH262604   6.613   3.859  15.860 -0.0129 -0.1536  0.1876
13730TIP3    H162605   6.596   3.952  15.875  0.4848  0.3590 -2.1072
13730TIP3    H262606   6.609   3.849  15.765 -1.9387 -2.8768  0.4549
13731TIP3   OH262607   3.837   2.802  15.777 -0.0427 -0.2219  0.2547
13731TIP3    H162608   3.755   2.849  15.764  0.8615  1.7730  1.2665
13731TIP3    H262609   3.848   2.751  15.697 -1.5970  0.5172 -0.4786
13732TIP3   OH262610   0.468   4.222  16.418  0.2208 -0.2132 -0.7801
13732TIP3    H162611   0.514   4.148  16.457 -1.1161 -0.9176 -0.4972
13732TIP3    H262612   0.459   4.285  16.489  0.5534 -0.1586 -0.7860
13733TIP3   OH262613   0.086   3.959  11.746  0.4254  1.0195  0.6424
13733TIP3    H162614   0.090   3.863  11.746  0.7187  1.0311  0.4507
13733TIP3    H262615   0.119   3.984  11.660  0.2383  1.2877  0.6488
13734TIP3   OH262616   3.728   0.393   1.895 -0.3436  0.1953  0.1628
13734TIP3    H162617   3.651   0.431   1.937 -1.4050 -2.0292  0.3580
13734TIP3    H262618   3.719   0.299   1.908  1.1835 -0.3081 -1.8911
13735TIP3   OH262619   0.241   5.778  13.695  0.9367  0.0961 -0.0515
13735TIP3    H162620   0.256   5.688  13.667  0.3954 -0.1939  0.5745
13735TIP3    H262621   0.317   5.800  13.749  1.9469  0.6299 -1.6135
13736TIP3   OH262622   2.432   1.498  15.178  0.0121  0.3876 -0.2456
13736TIP3    H162623   2.411   1.588  15.153  2.6756  0.8658 -0.9936
13736TIP3    H262624   2.522   1.501  15.209  0.1360 -2.0215 -0.1488
13737TIP3   OH262625   4.319   0.230  13.436  0.0776 -0.4835 -0.2455
13737TIP3    H162626   4.276   0.154  13.475 -1.5314  0.4931 -0.0520
13737TIP3    H262627   4.393   0.248  13.494 -1.6238  0.2579  1.7759
13738TIP3   OH262628   0.674   3.661   1.809 -0.0451  0.6058  0.8367
13738TIP3    H162629   0.595   3.614   1.782  1.2841 -1.3323  0.0714
13738TIP3    H262630   0.663   3.676   1.903 -0.7308 -0.8800  1.0163
13739TIP3   OH262631   1.982   4.545  13.813  0.1322  0.5038 -0.5389
13739TIP3    H162632   1.913   4.546  13.879  0.3310  1.2113 -0.3360
13739TIP3    H262633   2.064   4.551  13.863  0.3540 -0.3392 -0.7755
13740TIP3   OH262634   4.599   0.956  12.652  0.3171  0.3333  0.1213
13740TIP3    H162635   4.677   0.983  12.604 -0.4103 -0.3452 -1.5259
13740TIP3    H262636   4.599   0.860  12.645 -0.7352  0.3299 -0.0590
13741TIP3   OH262637   1.861   4.144  14.513 -0.3843  0.2363  0.1453
13741TIP3    H162638   1.823   4.218  14.466 -0.7290 -1.1012 -1.7682
13741TIP3    H262639   1.941   4.180  14.552 -0.7899  1.7343 -0.3155
13742TIP3   OH262640   3.131   4.277   4.623  0.3912  0.0627 -0.2364
13742TIP3    H162641   3.114   4.200   4.677 -0.4447  0.3006 -0.1441
13742TIP3    H262642   3.167   4.341   4.685 -3.3596  1.4133  0.8330
13743TIP3   OH262643   4.066   4.397   5.260 -0.4563 -0.4270 -0.1757
13743TIP3    H162644   4.026   4.482   5.281  0.4638 -0.2527  0.9416
13743TIP3    H262645   4.028   4.336   5.324 -1.1704 -0.8909 -1.0195
13744TIP3   OH262646   3.662   2.484   3.595  0.2060  0.5063  0.3079
13744TIP3    H162647   3.614   2.535   3.660  1.0440  0.3145  1.1042
13744TIP3    H262648   3.687   2.404   3.642 -1.8055 -1.0723 -1.1530
13745TIP3   OH262649   2.914   4.737  13.939 -0.1084  0.3033 -0.1397
13745TIP3    H162650   2.885   4.653  13.903 -0.4090 -0.0635  0.9175
13745TIP3    H262651   2.961   4.713  14.019  0.9996  1.0545 -0.5391
13746TIP3   OH262652   4.920   2.029  13.545 -0.7091 -1.0728 -0.8184
13746TIP3    H162653   4.840   1.991  13.581 -1.6154  1.8791  0.6532
13746TIP3    H262654   4.891   2.074  13.466 -0.5527  0.0028 -0.2826
13747TIP3   OH262655   2.129   2.251   2.940 -0.3607 -0.0113  0.1455
13747TIP3    H162656   2.116   2.156   2.947  2.4507 -0.4141  0.9317
13747TIP3    H262657   2.201   2.261   2.877  0.2351  1.5229  1.0174
13748TIP3   OH262658   4.027   5.020  13.511  0.3508 -0.2834 -0.9484
13748TIP3    H162659   4.054   5.109  13.490  0.7337 -0.7712 -2.6718
13748TIP3    H262660   4.034   4.972  13.428 -1.5935 -1.4937 -0.4871
13749TIP3   OH262661   3.253   3.024  16.464 -0.4188 -0.2949 -0.7108
13749TIP3    H162662   3.224   3.051  16.377  1.1393  0.1301 -1.1281
13749TIP3    H262663   3.258   3.106  16.514 -0.8671 -0.4798 -0.3598
13750TIP3   OH262664   4.853   2.826  13.194 -0.0946  0.3626 -0.1319
13750TIP3    H162665   4.865   2.916  13.166  2.0674  0.5022  0.9907
13750TIP3    H262666   4.895   2.822  13.280 -0.1817 -1.6950 -0.1311
13751TIP3   OH262667   0.074   2.250   1.717 -0.0911 -0.2908  0.3623
13751TIP3    H162668  -0.019   2.244   1.697 -0.0684 -0.4443  0.2998
13751TIP3    H262669   0.118   2.235   1.633 -0.0334  1.0234  0.1435
13752TIP3   OH262670   0.342   3.653  16.273  0.5480 -0.2668  0.4953
13752TIP3    H162671   0.381   3.645  16.186  1.2330  0.7737  0.6852
13752TIP3    H262672   0.250   3.673  16.257  0.2132 -2.0262  0.0371
13753TIP3   OH262673   0.053   1.555   1.370  0.1325  0.5119 -0.0685
13753TIP3    H162674   0.019   1.593   1.452  0.4323  2.5713 -0.8396
13753TIP3    H262675   0.148   1.568   1.376  0.5490 -2.2258  0.6058
13754TIP3   OH262676   6.267   5.777   2.098  0.1920  0.0048 -0.5884
13754TIP3    H162677   6.272   5.686   2.129 -1.7361 -0.1470 -0.6212
13754TIP3    H262678   6.202   5.775   2.028 -1.2559  1.7146  0.6224
13755TIP3   OH262679   6.425   6.387  12.673  0.0813 -0.9240  0.0897
13755TIP3    H162680   6.462   6.368  12.759  0.3119 -0.6234  0.0617
13755TIP3    H262681   6.489   6.351  12.611  0.7053  0.2354  0.0317
13756TIP3   OH262682   6.018   2.669  10.624 -0.2011  0.7339 -0.1728
13756TIP3    H162683   6.072   2.638  10.696 -0.1768  0.4674 -0.3011
13756TIP3    H262684   6.030   2.603  10.555 -1.6191  0.0121  0.2168
13757TIP3   OH262685   2.639   2.381  16.416  0.0670  0.4228  0.3831
13757TIP3    H162686   2.725   2.356  16.382  0.0111  0.0246  0.5224
13757TIP3    H262687   2.587   2.400  16.338 -0.8026 -2.8510 -0.0019
13758TIP3   OH262688   5.526   4.170   1.786  0.0101 -0.0534 -0.3151
13758TIP3    H162689   5.555   4.192   1.697  0.8094 -0.1269 -0.0842
13758TIP3    H262690   5.608   4.163   1.836 -0.3342 -1.5570  0.0726
13759TIP3   OH262691   0.944   3.695   3.748 -0.0924  0.0155 -0.4049
13759TIP3    H162692   0.879   3.759   3.778 -1.6332 -0.9641 -1.5131
13759TIP3    H262693   1.000   3.681   3.825 -1.2073  0.8529  0.6141
13760TIP3   OH262694   0.199   5.056   0.061 -0.7587 -0.3145  0.1880
13760TIP3    H162695   0.253   5.126   0.024 -0.6449 -1.3974 -1.8291
13760TIP3    H262696   0.260   5.003   0.111  0.0749 -1.2943 -1.7384
13761TIP3   OH262697   2.298   5.207  11.974 -0.0657 -0.0373 -0.0765
13761TIP3    H162698   2.210   5.219  11.939 -0.0018  0.2892 -0.1255
13761TIP3    H262699   2.334   5.295  11.982  0.4278 -0.1937 -0.4819
13762TIP3   OH262700   3.374   6.490  10.664 -0.2686 -0.5756  0.0052
13762TIP3    H162701   3.320   6.415  10.689  0.0198 -0.5701  0.6630
13762TIP3    H262702   3.319   6.540  10.603 -1.0750 -0.4851  0.7872
13763TIP3   OH262703   4.475   2.295   6.661 -0.6455 -0.2464  0.1306
13763TIP3    H162704   4.443   2.213   6.624 -0.4776  0.4293 -1.6015
13763TIP3    H262705   4.408   2.360   6.638 -0.7055  0.1531  1.3487
13764TIP3   OH262706   3.716   1.629  11.466 -0.1897 -0.0133  0.1589
13764TIP3    H162707   3.732   1.701  11.528 -1.3519  0.7350 -0.3869
13764TIP3    H262708   3.718   1.550  11.520  2.2406  0.2654  0.6076
13765TIP3   OH262709   0.275   3.509   1.460  0.0426  0.0332  0.0310
13765TIP3    H162710   0.315   3.595   1.444 -1.0611  0.3425 -1.2142
13765TIP3    H262711   0.220   3.523   1.537 -0.4740  0.5695 -0.4267
13766TIP3   OH262712   2.538   5.080   1.636  0.1720 -0.1821  0.5754
13766TIP3    H162713   2.606   5.112   1.577  0.0119 -1.6815 -0.4880
13766TIP3    H262714   2.501   5.004   1.591 -1.8748  0.2847  1.3470
13767TIP3   OH262715   6.520   4.208  12.673 -0.1438 -0.2701 -0.2935
13767TIP3    H162716   6.428   4.230  12.658 -0.1446  0.5620  0.8211
13767TIP3    H262717   6.568   4.251  12.603 -0.5778 -0.5053 -0.7376
13768TIP3   OH262718   1.725   3.343  15.576 -0.3807  0.0604 -0.9769
13768TIP3    H162719   1.752   3.261  15.619 -1.2829  0.1005 -0.2935
13768TIP3    H262720   1.805   3.396  15.572 -0.3741  0.3208  1.2996
13769TIP3   OH262721   4.113   6.077   0.909 -0.4423  0.1983 -0.0417
13769TIP3    H162722   4.141   6.038   0.826 -1.0937  0.3866 -0.3536
13769TIP3    H262723   4.167   6.156   0.918  2.6001 -1.8615  1.7299
13770TIP3   OH262724   5.491   0.594   0.730 -0.0300  0.4765 -0.1113
13770TIP3    H162725   5.502   0.618   0.637  0.3312 -0.1418 -0.2355
13770TIP3    H262726   5.408   0.634   0.755  0.0385  0.9491 -0.6041
13771TIP3   OH262727   1.647   6.716   1.293 -0.4481 -0.3794  0.1297
13771TIP3    H162728   1.559   6.700   1.261 -0.6392 -0.2222  0.5733
13771TIP3    H262729   1.639   6.793   1.349  0.0632 -0.0541 -0.2273
13772TIP3   OH262730   4.180   0.285  10.832 -0.5567 -0.6384  0.4385
13772TIP3    H162731   4.268   0.321  10.840 -1.1247  0.6271  1.3199
13772TIP3    H262732   4.159   0.253  10.919 -2.6246  3.2052  1.5930
13773TIP3   OH262733   2.704   0.234  10.904  1.0537 -0.3145 -0.3636
13773TIP3    H162734   2.716   0.158  10.959  0.9092 -1.1158 -1.4033
13773TIP3    H262735   2.617   0.267  10.927  2.0172  0.9681  1.7455
13774TIP3   OH262736   4.461   5.882  14.012 -0.3351 -0.7210  1.1440
13774TIP3    H162737   4.458   5.786  14.009 -0.2281 -0.7505  1.8262
13774TIP3    H262738   4.554   5.903  14.017 -0.3606 -0.5812  1.0260
13775TIP3   OH262739   5.208   2.114   6.147  0.0523  0.1703 -0.4509
13775TIP3    H162740   5.261   2.129   6.068 -1.4489 -0.8472 -1.6998
13775TIP3    H262741   5.265   2.142   6.219  1.7600  0.4077 -1.8224
13776TIP3   OH262742   4.470   2.593  14.338 -0.1128  0.6126 -0.3627
13776TIP3    H162743   4.420   2.513  14.353 -1.5614  1.6962  0.8956
13776TIP3    H262744   4.404   2.661  14.326  1.0147  2.0598  1.1057
13777TIP3   OH262745   6.677   5.474   0.259  0.0296 -0.5659  0.1582
13777TIP3    H162746   6.667   5.379   0.264 -0.0410 -0.5937 -0.4025
13777TIP3    H262747   6.680   5.492   0.165 -2.4335  0.2408  0.1897
13778TIP3   OH262748   4.254   2.117  12.347  0.1650  0.0484 -0.1501
13778TIP3    H162749   4.304   2.044  12.382  1.0461  1.4194  1.6095
13778TIP3    H262750   4.198   2.078  12.279  0.2218 -2.3124  1.0727
13779TIP3   OH262751   6.522   0.317   0.406  0.2255  0.2660  0.0452
13779TIP3    H162752   6.530   0.397   0.458  1.4636  0.6493 -0.6788
13779TIP3    H262753   6.507   0.348   0.316  0.3473 -0.3188 -0.1821
13780TIP3   OH262754   2.411   6.332   4.258 -0.1072 -0.3571 -0.0835
13780TIP3    H162755   2.343   6.383   4.302 -0.5826  0.7378 -1.9738
13780TIP3    H262756   2.490   6.384   4.269  0.4197 -1.4448  1.7825
13781TIP3   OH262757   6.026   4.916   1.324 -0.2458  0.8640  0.6458
13781TIP3    H162758   5.997   5.007   1.320  0.7863  1.1698 -1.3717
13781TIP3    H262759   6.063   4.899   1.238  0.6984 -1.1082  1.3732
13782TIP3   OH262760   4.838   5.350  16.953  0.4679 -0.6292  0.6424
13782TIP3    H162761   4.839   5.255  16.950  1.4638 -0.6371  0.7418
13782TIP3    H262762   4.875   5.371  17.039 -0.7369 -0.1580  1.0662
13783TIP3   OH262763   2.436   0.056   0.944 -0.5381  0.0506 -0.3275
13783TIP3    H162764   2.461  -0.006   1.013 -0.6237 -1.5522 -1.6628
13783TIP3    H262765   2.518   0.093   0.914 -0.6468  2.9672  2.4634
13784TIP3   OH262766   5.987   6.761   6.126 -0.3574 -0.5404 -0.0057
13784TIP3    H162767   6.026   6.686   6.082 -0.7053 -1.0878  0.5976
13784TIP3    H262768   5.895   6.760   6.098 -0.0415  0.5859 -1.2138
13785TIP3   OH262769   3.272   4.554   2.138  0.1144 -0.7856  0.7521
13785TIP3    H162770   3.205   4.621   2.152  1.1323 -0.0304  2.2474
13785TIP3    H262771   3.303   4.569   2.049 -0.0939  0.3571  0.8577
13786TIP3   OH262772   3.809   2.019   1.183  0.1163  0.0032  0.6029
13786TIP3    H162773   3.877   1.979   1.237  0.2553  1.8546  1.8996
13786TIP3    H262774   3.766   1.945   1.140  1.1356 -1.4195  1.9225
13787TIP3   OH262775   0.432   3.967   0.383  0.2579  0.1378 -0.4951
13787TIP3    H162776   0.412   4.016   0.303 -0.4330 -0.5165 -0.7339
13787TIP3    H262777   0.430   4.033   0.452 -1.9459  0.2828 -0.6259
13788TIP3   OH262778   2.587   3.996   5.448 -0.5290 -0.0218  0.1916
13788TIP3    H162779   2.534   3.916   5.457  0.5283 -0.6338  1.2261
13788TIP3    H262780   2.667   3.977   5.496 -0.3098  1.7396  0.5877
13789TIP3   OH262781   6.253   4.563   1.098  0.2992 -0.2320  0.2895
13789TIP3    H162782   6.278   4.653   1.079 -0.6257 -0.1512 -0.6189
13789TIP3    H262783   6.336   4.516   1.104  0.7421  0.0294 -2.6441
13790TIP3   OH262784   4.736   4.165  15.252  0.4531  0.0887 -0.2912
13790TIP3    H162785   4.684   4.093  15.217  2.3219 -0.8119 -1.3897
13790TIP3    H262786   4.816   4.164  15.200  0.9143  2.4361  0.2457
13791TIP3   OH262787   1.644   3.759  17.092  0.1560  0.7430 -0.6785
13791TIP3    H162788   1.713   3.816  17.059 -0.5459  2.2716  0.3225
13791TIP3    H262789   1.583   3.819  17.135  0.0860 -0.8955  1.7228
13792TIP3   OH262790   3.815   5.119  12.026  0.0119  0.1766  0.1190
13792TIP3    H162791   3.748   5.148  11.964  0.7312 -1.5543 -1.5971
13792TIP3    H262792   3.880   5.076  11.971  1.0002 -0.9388  2.0596
13793TIP3   OH262793   4.367   1.324   3.839 -0.6204  0.0644  0.4480
13793TIP3    H162794   4.354   1.242   3.887 -1.1234  0.5540  1.1595
13793TIP3    H262795   4.325   1.309   3.754 -1.0788 -0.2637  0.7328
13794TIP3   OH262796   3.779   4.779   4.548 -0.3147 -0.7442  0.2422
13794TIP3    H162797   3.802   4.798   4.639  1.1610 -0.4638 -0.1630
13794TIP3    H262798   3.820   4.695   4.529  1.0967  0.1059 -0.7159
13795TIP3   OH262799   5.486   3.961  16.268 -0.1874  0.6296 -0.1246
13795TIP3    H162800   5.558   3.928  16.214 -1.5314 -0.7709 -1.1673
13795TIP3    H262801   5.448   4.033  16.216  0.6029  1.5625  0.5563
13796TIP3   OH262802   1.886   6.036  15.909  0.0199  0.3727  0.1248
13796TIP3    H162803   1.862   5.969  15.845  0.1843  0.4194  0.0164
13796TIP3    H262804   1.824   6.107  15.894 -0.4317  0.0689  0.5249
13797TIP3   OH262805   5.220   0.786   3.341 -0.0092 -0.2234 -0.2807
13797TIP3    H162806   5.244   0.844   3.269 -1.6663 -0.7435 -1.3164
13797TIP3    H262807   5.137   0.746   3.313 -0.4695 -0.7870  1.7268
13798TIP3   OH262808   1.843   6.483   4.853 -0.1960  0.4068  0.3948
13798TIP3    H162809   1.844   6.531   4.936 -0.1386  0.0672  0.5929
13798TIP3    H262810   1.829   6.550   4.787 -1.0266  0.5843  0.7404
13799TIP3   OH262811   0.763   1.361  12.774  0.1356  0.3252  0.7093
13799TIP3    H162812   0.720   1.436  12.813 -0.3646  0.8706 -0.8070
13799TIP3    H262813   0.829   1.335  12.838 -1.3160  0.4976  2.3648
13800TIP3   OH262814   6.725   4.598  15.268 -0.3543 -0.1809  0.3096
13800TIP3    H162815   6.674   4.581  15.189 -0.1024 -3.3487  0.6665
13800TIP3    H262816   6.809   4.630  15.235 -1.5502  2.5329 -0.3973
13801TIP3   OH262817   6.296   0.511  15.755 -0.4485 -0.1558  0.2444
13801TIP3    H162818   6.298   0.574  15.827  1.4366  2.3926 -1.8482
13801TIP3    H262819   6.203   0.502  15.734 -0.8598  0.8948  1.4937
13802TIP3   OH262820   1.551   3.030   1.268 -0.0146  0.2414 -0.7685
13802TIP3    H162821   1.464   2.991   1.273  0.5232 -0.9147  0.2106
13802TIP3    H262822   1.603   2.966   1.219  1.1516 -0.9274  1.7938
13803TIP3   OH262823   6.421   3.251   0.424  0.2893 -0.6157 -0.1291
13803TIP3    H162824   6.446   3.338   0.394 -1.8174 -0.2559 -0.9838
13803TIP3    H262825   6.429   3.195   0.346 -0.7242 -0.6460 -0.2285
13804TIP3   OH262826   2.095   0.373   3.725  0.0272  0.1897  0.2438
13804TIP3    H162827   2.011   0.417   3.728  0.0054  0.1236  0.6409
13804TIP3    H262828   2.074   0.281   3.710  0.0406  0.2102  0.0990
13805TIP3   OH262829   1.566   6.576  15.328 -0.4427  0.0735  0.0904
13805TIP3    H162830   1.568   6.488  15.290 -0.0576  0.3578 -0.5853
13805TIP3    H262831   1.658   6.598  15.342 -0.3299  1.3492 -2.1624
13806TIP3   OH262832   2.088   3.913  13.358 -0.2515  0.3051 -0.2116
13806TIP3    H162833   2.112   3.943  13.446  2.3514  1.4802 -1.2061
13806TIP3    H262834   2.045   3.989  13.318 -2.1831 -0.4899  0.2342
13807TIP3   OH262835   4.027   2.506  13.537 -0.0238  0.0414  0.3201
13807TIP3    H162836   4.090   2.494  13.466  0.5994  2.6477  0.3060
13807TIP3    H262837   4.028   2.424  13.585 -0.1543 -1.6766 -2.4076
13808TIP3   OH262838   2.046   2.638  16.691 -0.1037 -0.4776 -0.0149
13808TIP3    H162839   2.095   2.638  16.773 -0.0306 -1.4562 -0.0433
13808TIP3    H262840   1.956   2.654  16.717 -0.1056 -0.9522  0.2771
13809TIP3   OH262841   0.707   2.223  13.514  0.3717  0.1084  0.5642
13809TIP3    H162842   0.784   2.218  13.571  0.3846  1.9333  0.7800
13809TIP3    H262843   0.636   2.245  13.574  0.1645  0.8789  0.0412
13810TIP3   OH262844   3.186   5.603  15.845  0.5395 -0.1775 -0.3048
13810TIP3    H162845   3.229   5.525  15.881  0.0069 -0.1428  0.4238
13810TIP3    H262846   3.182   5.664  15.919 -0.8050 -0.1980 -0.3384
13811TIP3   OH262847   3.207   2.791   2.272 -0.1738 -0.0315 -0.3404
13811TIP3    H162848   3.193   2.697   2.256 -0.4482 -0.4770  2.1870
13811TIP3    H262849   3.254   2.821   2.194 -1.4786 -1.8980 -1.9492
13812TIP3   OH262850   6.257   0.936  10.238  0.0031 -0.0560 -0.1511
13812TIP3    H162851   6.352   0.941  10.235  0.1065 -0.8019  1.1896
13812TIP3    H262852   6.236   0.851  10.198 -0.1391  0.2453 -0.7376
13813TIP3   OH262853   3.969   4.399   6.007  0.2749 -0.9100  0.7681
13813TIP3    H162854   4.037   4.336   5.981  1.4075  0.2524  0.8290
13813TIP3    H262855   3.949   4.446   5.926  1.0562  0.1515  1.1792
13814TIP3   OH262856   2.658   6.130  11.159 -0.2952 -0.3932 -0.0749
13814TIP3    H162857   2.572   6.115  11.121  0.0534 -0.2078 -0.9413
13814TIP3    H262858   2.645   6.202  11.221 -1.3278 -2.0928  1.8438
13815TIP3   OH262859   4.984   5.931  16.568 -0.2255  0.4568  0.1629
13815TIP3    H162860   4.967   6.023  16.549  2.3581  1.1188  0.7538
13815TIP3    H262861   5.043   5.901  16.499 -1.9834 -1.1748 -0.7360
13816TIP3   OH262862   4.566   0.539  16.108  0.0915  0.0657 -0.4238
13816TIP3    H162863   4.646   0.537  16.054  0.3655 -0.2214 -0.0177
13816TIP3    H262864   4.578   0.614  16.166 -1.5061  2.1879 -2.6760
13817TIP3   OH262865   3.421   5.210  14.974 -0.0658 -0.3419 -0.0603
13817TIP3    H162866   3.399   5.149  14.904 -2.6232  0.4793 -0.0478
13817TIP3    H262867   3.388   5.295  14.945 -0.6628  0.1406  1.8457
13818TIP3   OH262868   2.992   6.498  12.394 -0.4113 -0.0804 -0.2966
13818TIP3    H162869   2.978   6.535  12.481  0.0042  2.4130 -1.2073
13818TIP3    H262870   3.087   6.500  12.383 -0.3257 -1.9952 -0.2025
13819TIP3   OH262871   1.006   2.203   2.750 -0.0144  0.3821  0.0466
13819TIP3    H162872   1.038   2.259   2.680 -2.2893  2.7044  0.6992
13819TIP3    H262873   0.924   2.244   2.778 -0.9831 -2.4017  1.7244
13820TIP3   OH262874   2.579   4.921   1.258  0.0317 -0.8541 -0.6251
13820TIP3    H162875   2.602   4.881   1.342  0.9238 -0.2109 -0.5432
13820TIP3    H262876   2.567   4.847   1.199  0.4675 -1.2894 -0.1859
13821TIP3   OH262877   2.885   5.105   4.246  0.0042 -0.1348 -0.3921
13821TIP3    H162878   2.794   5.087   4.271 -1.3567  3.9066 -1.4836
13821TIP3    H262879   2.903   5.042   4.176 -1.5434 -1.7591  0.5929
13822TIP3   OH262880   1.024   2.457  17.019  0.1354  0.0021 -0.0907
13822TIP3    H162881   1.099   2.419  17.064 -0.0575 -1.0257 -0.6165
13822TIP3    H262882   0.965   2.383  17.003 -0.8204  0.7347 -0.0133
13823TIP3   OH262883   3.188   3.316   0.669  1.0227 -0.2409  0.1766
13823TIP3    H162884   3.187   3.247   0.602  5.3126 -2.2042  1.7271
13823TIP3    H262885   3.126   3.286   0.735  0.6203 -1.0356 -0.5310
13824TIP3   OH262886   0.278   5.440   5.595  0.2798  0.3881 -0.6232
13824TIP3    H162887   0.282   5.392   5.512  0.6405 -0.3247 -0.2016
13824TIP3    H262888   0.334   5.390   5.654  0.7745  1.3992 -0.2009
13825TIP3   OH262889   5.553   4.391   5.904  0.3199 -0.0838 -0.2230
13825TIP3    H162890   5.559   4.308   5.952 -1.7328 -0.3559 -0.3329
13825TIP3    H262891   5.496   4.370   5.829 -1.5118  1.7545  0.5753
13826TIP3   OH262892   4.969   3.483   1.597  0.0099 -0.0666 -0.4170
13826TIP3    H162893   5.056   3.451   1.570 -0.6772  0.0150 -2.9725
13826TIP3    H262894   4.973   3.485   1.693  2.8916  0.1320 -0.4542
13827TIP3   OH262895   2.437   6.194   5.049 -0.1175  1.1327 -0.4807
13827TIP3    H162896   2.446   6.158   4.961  2.4906  0.5697 -0.0618
13827TIP3    H262897   2.495   6.270   5.050 -1.4077  2.1565  0.2797
13828TIP3   OH262898   5.871   3.512  16.909  0.0755 -0.1613  0.1331
13828TIP3    H162899   5.928   3.490  16.836 -1.9718 -2.3227 -0.9415
13828TIP3    H262900   5.839   3.428  16.941 -0.5783  0.8446  2.3096
13829TIP3   OH262901   5.060   3.561  16.048  0.1713  0.0880 -0.1685
13829TIP3    H162902   5.102   3.631  15.998  0.0994 -0.0817 -0.4679
13829TIP3    H262903   5.128   3.530  16.108  0.8096 -0.8751 -1.3453
13830TIP3   OH262904   0.201   3.373  12.110 -0.5147  0.3164 -0.1989
13830TIP3    H162905   0.129   3.316  12.082 -0.3320 -0.3093  0.5465
13830TIP3    H262906   0.252   3.319  12.171  1.3518  0.2845 -1.6792
13831TIP3   OH262907   3.564   2.896  13.785  0.1899 -0.0795 -0.4143
13831TIP3    H162908   3.473   2.892  13.813  0.0823  0.5770 -0.6623
13831TIP3    H262909   3.564   2.858  13.697  0.1465 -0.0401 -0.4313
13832TIP3   OH262910   2.065   1.813  15.737  0.3720  0.8192 -0.5857
13832TIP3    H162911   2.118   1.821  15.817  0.5084 -0.5871 -0.5119
13832TIP3    H262912   2.124   1.838  15.666  0.2987  1.9204 -0.2750
13833TIP3   OH262913   5.870   4.679  11.959  0.3474  0.1418  0.1492
13833TIP3    H162914   5.965   4.694  11.956  0.5246 -0.9748  0.0674
13833TIP3    H262915   5.859   4.602  12.014 -0.6292  1.0926  1.3497
13834TIP3   OH262916   4.985   5.355   1.624 -0.4571 -0.3494  0.1787
13834TIP3    H162917   4.908   5.343   1.569 -1.8220  2.9256  1.1202
13834TIP3    H262918   5.051   5.390   1.564 -1.7407  2.6045  0.3031
13835TIP3   OH262919   1.363   0.670  14.387  0.1963 -0.6956  0.1445
13835TIP3    H162920   1.407   0.733  14.330 -0.4981  0.6994  1.0887
13835TIP3    H262921   1.272   0.670  14.356  0.6633 -3.2430 -1.5280
13836TIP3   OH262922   0.874   3.194   4.254 -0.3981  0.4419  1.0020
13836TIP3    H162923   0.814   3.222   4.323 -0.3385 -1.1777  1.7592
13836TIP3    H262924   0.903   3.107   4.282  0.4330  0.1902 -0.5573
13837TIP3   OH262925   3.616   0.539  13.854 -0.3777 -0.5643 -0.7586
13837TIP3    H162926   3.683   0.544  13.922  0.2318 -0.0412 -1.3763
13837TIP3    H262927   3.541   0.587  13.889 -0.0493 -0.2555 -0.4780
13838TIP3   OH262928   4.784   4.737  17.080 -0.4223  0.3550 -0.0935
13838TIP3    H162929   4.734   4.812  17.048  0.1332  0.3365 -1.0608
13838TIP3    H262930   4.732   4.702  17.153 -1.2619  0.9772 -0.3782
13839TIP3   OH262931   1.047   0.184   5.498 -0.8375  0.4071 -0.5288
13839TIP3    H162932   1.081   0.244   5.564 -0.9723  1.0894 -1.0662
13839TIP3    H262933   1.115   0.117   5.489 -0.1434  1.1322 -0.7749
13840TIP3   OH262934   4.439   1.131  16.648  0.1676 -0.2869 -0.5216
13840TIP3    H162935   4.469   1.045  16.677 -2.3790 -1.1508 -0.2384
13840TIP3    H262936   4.476   1.192  16.712  0.9025 -1.2979  0.0471
13841TIP3   OH262937   1.048   6.293   2.975  0.6307 -0.2711  0.0730
13841TIP3    H162938   1.118   6.343   3.017 -0.0194  0.8599 -0.1602
13841TIP3    H262939   1.089   6.253   2.899  0.9145  0.8052 -0.3566
13842TIP3   OH262940   5.220   2.282   1.427 -0.6070 -0.2441  0.3217
13842TIP3    H162941   5.201   2.374   1.445  1.5237  0.1192  0.8997
13842TIP3    H262942   5.259   2.249   1.508 -0.4493 -1.4097 -0.2087
13843TIP3   OH262943   2.324   6.571   5.380  0.0230 -0.3357 -0.0239
13843TIP3    H162944   2.337   6.490   5.331  1.5425  0.6545 -1.3789
13843TIP3    H262945   2.283   6.544   5.462 -1.8153 -2.1667 -1.4527
13844TIP3   OH262946   1.209   2.147  12.575  0.4182 -0.3323 -0.2350
13844TIP3    H162947   1.260   2.067  12.589 -0.2281 -0.6818  0.1747
13844TIP3    H262948   1.273   2.211  12.544  1.1549 -0.7036  0.4687
13845TIP3   OH262949   2.709   2.083   4.618  0.1569 -0.0902 -0.6908
13845TIP3    H162950   2.617   2.072   4.644 -0.0745  1.9245 -0.5538
13845TIP3    H262951   2.704   2.111   4.527  0.6577 -0.0176 -0.6964
13846TIP3   OH262952   3.703   0.182  15.159  0.5177 -0.1406  0.0658
13846TIP3    H162953   3.629   0.194  15.100  0.6399 -1.0757 -0.2996
13846TIP3    H262954   3.771   0.241  15.127 -0.5707  1.9105  1.3390
13847TIP3   OH262955   2.124   2.535  12.199  0.1339 -0.7126  0.4968
13847TIP3    H162956   2.200   2.524  12.255 -0.5528  0.8005  1.8109
13847TIP3    H262957   2.099   2.447  12.173  1.2277 -1.3492  1.5481
13848TIP3   OH262958   1.517   0.615  13.396  0.9929 -0.9136  1.0135
13848TIP3    H162959   1.551   0.687  13.448  0.3831  0.6684 -0.6621
13848TIP3    H262960   1.489   0.550  13.460  1.0613  0.5566  2.6184
13849TIP3   OH262961   6.356   4.548  11.840 -0.3340 -0.4729 -0.2803
13849TIP3    H162962   6.360   4.465  11.887 -0.4831 -1.1215 -1.3801
13849TIP3    H262963   6.444   4.585  11.847 -0.6905  0.1398  1.6817
13850TIP3   OH262964   4.279   3.180  11.180 -0.1056 -0.1990  0.3504
13850TIP3    H162965   4.219   3.235  11.130  1.4774  2.3239  1.0050
13850TIP3    H262966   4.322   3.125  11.115 -2.7815 -1.8661 -0.1670
13851TIP3   OH262967   5.535   0.932   6.127  0.0109  0.4074 -0.5193
13851TIP3    H162968   5.622   0.969   6.114 -0.6017  2.3670  0.6344
13851TIP3    H262969   5.477   1.007   6.134 -1.6415 -0.8317 -0.2231
13852TIP3   OH262970   3.038   3.063  16.726  0.1952 -0.5325 -0.2804
13852TIP3    H162971   3.003   3.025  16.646 -0.4501 -0.5563  0.0099
13852TIP3    H262972   3.018   2.998  16.794  1.1998 -0.7575 -0.1760
13853TIP3   OH262973   2.389   4.189   5.505  0.0938 -0.2764 -0.3054
13853TIP3    H162974   2.476   4.150   5.501  0.0631 -0.4668  0.6230
13853TIP3    H262975   2.389   4.239   5.587 -0.4296  0.3093 -0.6513
13854TIP3   OH262976   5.593   6.190   2.327  0.1068  0.1753  0.3100
13854TIP3    H162977   5.613   6.244   2.251 -0.2901  0.4912  0.4255
13854TIP3    H262978   5.548   6.114   2.291 -1.2778  0.9368  0.3206
13855TIP3   OH262979   6.317   5.856   1.819  0.1942 -0.1768  0.0883
13855TIP3    H162980   6.259   5.893   1.752  0.6168  0.1202 -0.1221
13855TIP3    H262981   6.332   5.928   1.880  0.0751 -0.3507  0.3209
13856TIP3   OH262982   0.440   3.651  12.852 -0.3455 -0.0030 -0.0259
13856TIP3    H162983   0.496   3.573  12.847  0.6890  0.6958  0.1749
13856TIP3    H262984   0.408   3.652  12.942  0.5701  0.4076  0.3080
13857TIP3   OH262985   0.404   2.668  14.854  0.4220  0.0659 -0.0774
13857TIP3    H162986   0.418   2.662  14.759 -0.8105 -0.5196 -0.2414
13857TIP3    H262987   0.328   2.613  14.870 -0.9675  2.1225  0.8896
13858TIP3   OH262988   3.157   1.077   4.066  0.0130 -0.1494 -0.0447
13858TIP3    H162989   3.212   1.155   4.058 -0.1631 -0.1376 -1.2329
13858TIP3    H262990   3.117   1.086   4.153  0.6305  0.6555  0.1735
13859TIP3   OH262991   0.952   6.566   2.031  0.1936 -0.4923 -0.9518
13859TIP3    H162992   0.980   6.513   2.105  1.1986  2.0597  0.6151
13859TIP3    H262993   0.858   6.577   2.043  0.3861  0.1015  0.1325
13860TIP3   OH262994   2.943   5.420   2.144  0.0239 -0.9337  0.9393
13860TIP3    H162995   3.014   5.361   2.119  0.3472 -1.6316  3.2428
13860TIP3    H262996   2.877   5.362   2.182 -1.2862 -0.1575 -0.0884
13861TIP3   OH262997   3.744   0.235  12.331 -0.5916  0.1101  0.3840
13861TIP3    H162998   3.762   0.328  12.343 -0.6633  0.5839 -2.4700
13861TIP3    H262999   3.651   0.225  12.352 -1.1873  1.2238 -1.4817
13862TIP3   OH263000   5.690   1.210   4.862  0.4162 -0.3910  0.3333
13862TIP3    H163001   5.652   1.155   4.794  1.8290  0.7599 -1.4619
13862TIP3    H263002   5.615   1.261   4.895 -0.2079 -0.5840 -0.7362
13863TIP3   OH263003   1.885   0.402   0.980 -0.0406 -0.2209  0.0023
13863TIP3    H163004   1.870   0.365   0.893 -0.2449  2.6763 -1.3030
13863TIP3    H263005   1.801   0.439   1.006  0.9409  2.4823 -0.4276
13864TIP3   OH263006   0.625   3.879  14.618  0.2384 -0.0119  0.4493
13864TIP3    H163007   0.623   3.908  14.526 -0.3296 -0.6558  0.2531
13864TIP3    H263008   0.574   3.798  14.619 -0.5149  0.4478  1.4948
13865TIP3   OH263009   4.865   5.348   2.940 -0.2406  0.5676 -0.4491
13865TIP3    H163010   4.903   5.271   2.982  0.7038  0.7386 -0.9746
13865TIP3    H263011   4.920   5.364   2.864  1.1322  3.2015  0.9420
13866TIP3   OH263012   5.112   4.929  14.670 -0.1683 -0.5309 -0.6323
13866TIP3    H163013   5.123   4.921  14.575 -1.9940  0.9228 -1.0260
13866TIP3    H263014   5.118   4.840  14.703 -0.2691 -1.1481 -2.2138
13867TIP3   OH263015   2.576   3.840  16.452 -0.1716  0.0860  0.2132
13867TIP3    H163016   2.530   3.860  16.533  0.3735  0.5864  0.4135
13867TIP3    H263017   2.641   3.910  16.444  0.4698 -0.5303 -0.1122
13868TIP3   OH263018   1.565   0.776   1.847 -0.2934  0.3599 -0.2744
13868TIP3    H163019   1.646   0.759   1.895 -0.7491 -2.4442 -0.3062
13868TIP3    H263020   1.542   0.866   1.869  2.1286  0.7935  0.7586
13869TIP3   OH263021   3.641   0.645   2.308 -0.2423  0.0987 -0.1826
13869TIP3    H163022   3.558   0.655   2.261  0.5921 -2.2185 -2.3741
13869TIP3    H263023   3.618   0.595   2.386 -0.9886 -0.1744 -0.5646
13870TIP3   OH263024   5.158   1.199  15.500 -0.7518 -0.2073 -0.2016
13870TIP3    H163025   5.121   1.255  15.433 -1.0074 -1.0471 -0.7797
13870TIP3    H263026   5.111   1.223  15.581 -2.3645 -1.0125 -0.8442
13871TIP3   OH263027   2.428   3.046  14.323 -0.1584  0.1108 -0.1464
13871TIP3    H163028   2.338   3.017  14.314 -0.3006  0.7943 -1.0420
13871TIP3    H263029   2.423   3.142  14.330  0.4402  0.1012  0.7169
13872TIP3   OH263030   5.321   4.162   2.293 -0.1541 -0.0560 -0.0932
13872TIP3    H163031   5.309   4.137   2.385  0.0525 -0.6481 -0.2231
13872TIP3    H263032   5.349   4.254   2.297 -0.1285 -0.0833  0.4392
13873TIP3   OH263033   3.053   4.095  12.268 -0.4803 -0.9407  0.2222
13873TIP3    H163034   3.038   4.000  12.263  2.6726 -1.5515  0.0977
13873TIP3    H263035   3.006   4.123  12.346 -2.4290 -2.3350 -0.3576
13874TIP3   OH263036   4.682   4.131   1.170  0.3722 -0.2644 -0.0598
13874TIP3    H163037   4.768   4.164   1.143  0.2961  0.0963  0.1361
13874TIP3    H263038   4.620   4.187   1.123  0.2307 -1.4507 -1.3548
13875TIP3   OH263039   3.410   6.523  11.680 -0.6916  0.4758  0.0278
13875TIP3    H163040   3.468   6.484  11.745  0.6304 -0.7215 -1.7840
13875TIP3    H263041   3.326   6.479  11.695 -0.5265  0.4936  1.1406
13876TIP3   OH263042   0.241   4.637   3.876 -0.3827 -0.5773 -0.0679
13876TIP3    H163043   0.179   4.693   3.923 -1.0278 -1.2138 -0.1551
13876TIP3    H263044   0.206   4.549   3.884  0.4068 -0.9262 -0.2940
13877TIP3   OH263045   3.316   5.024   0.741  0.1698  0.4836  0.2043
13877TIP3    H163046   3.245   5.051   0.683  0.0482  0.9634  0.5757
13877TIP3    H263047   3.284   4.945   0.783  0.3020  0.0673 -0.4610
13878TIP3   OH263048   4.888   5.786   5.183  0.1623 -0.4860  0.2381
13878TIP3    H163049   4.974   5.768   5.222  0.4158 -3.1451 -1.3089
13878TIP3    H263050   4.837   5.707   5.200 -2.2122  1.1952  1.5031
13879TIP3   OH263051   2.235   1.030  13.139 -0.3944  0.3202  0.0556
13879TIP3    H163052   2.157   1.085  13.144 -1.5445 -1.0375 -1.8285
13879TIP3    H263053   2.235   0.982  13.222 -1.3189  0.6526  0.2610
13880TIP3   OH263054   3.592   0.164   5.692 -0.4585  0.0579  0.2636
13880TIP3    H163055   3.553   0.114   5.764 -1.8779 -1.1081 -1.2515
13880TIP3    H263056   3.530   0.235   5.676 -2.7521 -2.3387 -2.7819
13881TIP3   OH263057   0.248   6.486   2.508  0.4735  0.4764 -0.2087
13881TIP3    H163058   0.210   6.574   2.509  0.6891  0.5686  0.5444
13881TIP3    H263059   0.291   6.480   2.422  0.8837  1.2925 -0.0713
13882TIP3   OH263060   2.412   6.109  14.930 -0.4856 -0.7031 -0.1363
13882TIP3    H163061   2.503   6.120  14.956 -0.5182 -1.2964  0.2394
13882TIP3    H263062   2.396   6.180  14.867  0.5837 -1.3424 -1.1569
13883TIP3   OH263063   1.203   2.122  14.826 -0.2139 -0.3659 -0.3009
13883TIP3    H163064   1.235   2.205  14.863 -1.0110  0.0191 -0.4600
13883TIP3    H263065   1.174   2.072  14.902 -2.6736  0.7752 -0.3939
13884TIP3   OH263066   0.396   4.409   3.005 -0.6880  0.0291  0.0795
13884TIP3    H163067   0.426   4.453   3.085  0.8218  1.0569 -1.0021
13884TIP3    H263068   0.418   4.317   3.019 -0.4640  0.1889  0.8434
13885TIP3   OH263069   3.747   6.275   0.567  0.2416  0.3764  0.0384
13885TIP3    H163070   3.707   6.316   0.643 -0.2080 -0.4772  0.2782
13885TIP3    H263071   3.765   6.348   0.507 -0.9250  0.8770  0.2684
13886TIP3   OH263072   2.010   4.324  10.630 -0.2169  0.4147  0.1915
13886TIP3    H163073   2.081   4.338  10.693 -0.0177 -0.6077  0.2178
13886TIP3    H263074   2.004   4.406  10.582  0.2121  0.9080  0.9620
13887TIP3   OH263075   6.422   6.236   9.875  0.2119 -0.5451  0.0747
13887TIP3    H163076   6.484   6.175   9.834  1.3133 -0.2715  1.2858
13887TIP3    H263077   6.339   6.218   9.830  1.2412 -0.5755 -1.9568
13888TIP3   OH263078   3.915   4.603  14.769  0.5030  0.3321  0.2093
13888TIP3    H163079   3.869   4.563  14.842  1.1588  1.4898  1.2946
13888TIP3    H263080   3.909   4.539  14.698 -1.4254 -0.1747  0.7895
13889TIP3   OH263081   5.633   6.684  15.240  0.1923  0.2934 -0.4492
13889TIP3    H163082   5.574   6.610  15.226 -1.7943  1.5990  0.4592
13889TIP3    H263083   5.720   6.649  15.225 -0.7937 -1.7174 -2.0352
13890TIP3   OH263084   1.222   5.761   5.418  0.3437  0.2659  0.5980
13890TIP3    H163085   1.228   5.688   5.479  0.8250 -1.2234 -1.1174
13890TIP3    H263086   1.311   5.770   5.382  0.0188  0.8881 -0.0967
13891TIP3   OH263087   1.873   3.310  11.187 -0.9148 -0.5374 -0.3564
13891TIP3    H163088   1.819   3.300  11.108 -2.1063 -1.1223  0.4912
13891TIP3    H263089   1.810   3.334  11.256  0.2198  0.8385  0.2529
13892TIP3   OH263090   3.300   6.051  14.738 -0.2750 -0.1699 -0.2247
13892TIP3    H163091   3.345   6.033  14.656 -1.1187 -0.9960 -0.5300
13892TIP3    H263092   3.207   6.052  14.714 -0.6516 -2.0162  0.9691
13893TIP3   OH263093   3.483   5.646   2.507 -0.3264  0.8787 -0.4604
13893TIP3    H163094   3.443   5.564   2.476  0.1687 -0.8919  3.1060
13893TIP3    H263095   3.410   5.700   2.535 -0.5299  0.4564 -0.1746
13894TIP3   OH263096   2.690   0.943   2.396 -0.1202  0.8001 -0.0366
13894TIP3    H163097   2.607   0.907   2.426  0.1596  0.9525  0.9525
13894TIP3    H263098   2.756   0.886   2.436  0.2751  1.4277  0.2185
13895TIP3   OH263099   3.510   5.687   1.833 -0.2293 -0.1905 -0.3932
13895TIP3    H163100   3.496   5.695   1.927  0.5755  0.3410 -0.3074
13895TIP3    H263101   3.597   5.725   1.818 -0.6304  0.3856 -1.4422
13896TIP3   OH263102   4.830   5.003   2.165  0.4695  0.2272 -0.0315
13896TIP3    H163103   4.840   4.908   2.157  0.8801 -0.0139  2.5975
13896TIP3    H263104   4.893   5.039   2.103  2.2229 -1.2615  0.7882
13897TIP3   OH263105   3.917   6.692  13.609  0.5527  0.3148 -0.7717
13897TIP3    H163106   3.895   6.642  13.688 -1.8708 -0.4725 -1.8434
13897TIP3    H263107   3.887   6.781  13.628 -0.8477 -0.0683 -1.0715
13898TIP3   OH263108   3.487   0.500   1.969 -0.2674  0.4645  0.0131
13898TIP3    H163109   3.399   0.487   2.004  0.5615  0.1282  2.0966
13898TIP3    H263110   3.506   0.593   1.985 -0.1006  0.4497 -0.0903
13899TIP3   OH263111   3.812   6.685  16.212  0.3076  0.0035 -0.0004
13899TIP3    H163112   3.822   6.761  16.155  1.0270  0.6215  0.9080
13899TIP3    H263113   3.769   6.720  16.291  1.1545 -0.3860  0.6587
13900TIP3   OH263114   5.791   3.818  12.761 -0.3239 -0.0649  0.2533
13900TIP3    H163115   5.705   3.859  12.768 -1.0566 -1.5261  0.1941
13900TIP3    H263116   5.773   3.731  12.725  1.3580  0.2156 -1.4446
13901TIP3   OH263117   5.880   1.523  12.017 -0.7657 -0.1030  0.0828
13901TIP3    H163118   5.801   1.564  12.051 -2.0290 -2.2383 -0.0680
13901TIP3    H263119   5.897   1.567  11.934 -0.3247  2.0372  1.2486
13902TIP3   OH263120   2.290   2.293   2.681 -0.1382 -0.3686 -0.1712
13902TIP3    H163121   2.210   2.341   2.658 -0.0663  0.2816  0.8786
13902TIP3    H263122   2.361   2.353   2.662  0.0890 -0.8004 -0.7186
13903TIP3   OH263123   5.198   1.374   4.297  0.6062 -0.1875 -0.2307
13903TIP3    H163124   5.122   1.427   4.273  0.6567  0.6230  1.2979
13903TIP3    H263125   5.257   1.434   4.342  1.3693 -1.2065  0.1772
13904TIP3   OH263126   6.406   3.598  11.990  0.4183  0.1191 -0.3748
13904TIP3    H163127   6.411   3.634  12.078 -0.7333  0.9090 -0.6065
13904TIP3    H263128   6.416   3.673  11.931 -0.1352 -0.2010 -0.8961
13905TIP3   OH263129   1.478   2.160   4.549  0.5609  0.0090 -0.1764
13905TIP3    H163130   1.398   2.179   4.598  1.5617  1.4265  1.0210
13905TIP3    H263131   1.511   2.079   4.587  0.3644  0.1073  0.2096
13906TIP3   OH263132   1.682   2.176   4.891  0.0638 -0.5279  0.3601
13906TIP3    H163133   1.626   2.253   4.879  1.1692 -0.0097 -2.0655
13906TIP3    H263134   1.668   2.150   4.982 -2.8784  0.5235  0.3154
13907TIP3   OH263135   2.161   4.453  13.268 -0.2566  0.2487  0.0424
13907TIP3    H163136   2.075   4.414  13.276 -2.0468  3.8495  0.5462
13907TIP3    H263137   2.222   4.384  13.294 -3.2155 -1.1828  4.2161
13908TIP3   OH263138   4.524   5.189   0.122 -0.0697  0.8485 -0.0869
13908TIP3    H163139   4.508   5.270   0.075 -1.9937  1.3030  1.2266
13908TIP3    H263140   4.438   5.163   0.156  0.7941 -0.7785  1.0238
13909TIP3   OH263141   6.010   6.340   0.345  0.3358  0.4007  0.6337
13909TIP3    H163142   5.961   6.417   0.316  1.2489  0.0196 -2.2751
13909TIP3    H263143   5.998   6.338   0.440 -1.8931  2.5864  0.5023
13910TIP3   OH263144   4.732   0.586  14.087 -0.4964  0.0062  0.4871
13910TIP3    H163145   4.638   0.575  14.077 -0.7294  0.1680  2.2838
13910TIP3    H263146   4.764   0.499  14.111  0.3506 -0.8763 -3.1231
13911TIP3   OH263147   3.460   4.983   2.424 -0.1493 -0.1209  0.3608
13911TIP3    H163148   3.388   4.938   2.379 -0.5703  1.0272 -0.1342
13911TIP3    H263149   3.536   4.967   2.368 -0.5281  0.7065 -0.4165
13912TIP3   OH263150   3.068   2.793  15.091  0.2585  0.2935  0.3672
13912TIP3    H163151   2.974   2.799  15.070  0.0630 -3.3494 -0.4120
13912TIP3    H263152   3.105   2.743  15.019  2.6458  0.7012  1.2361
13913TIP3   OH263153   1.318   1.225  15.440 -0.2416 -0.7201 -0.2443
13913TIP3    H163154   1.294   1.209  15.532 -0.9237  0.3847 -0.2061
13913TIP3    H263155   1.368   1.147  15.414 -2.2793 -2.2969  0.2606
13914TIP3   OH263156   2.446   5.341  16.991  0.5503  0.3235  0.0292
13914TIP3    H163157   2.467   5.276  17.058  0.8057 -1.2550 -1.5332
13914TIP3    H263158   2.360   5.317  16.959  0.4048  1.1061 -0.1983
13915TIP3   OH263159   4.006   6.352  16.704 -0.3164 -0.1294  0.3172
13915TIP3    H163160   3.914   6.357  16.679  0.0467  0.1389 -1.0401
13915TIP3    H263161   4.009   6.392  16.791 -1.6146 -1.0225  0.8146
13916TIP3   OH263162   0.189   4.968   1.574  0.7891  0.4882 -0.8029
13916TIP3    H163163   0.156   4.879   1.581  0.9060  0.4016 -1.3219
13916TIP3    H263164   0.248   4.978   1.649  0.7848  0.1284 -0.7508
13917TIP3   OH263165   5.827   1.425  16.345  0.0891 -0.1513  0.9066
13917TIP3    H163166   5.732   1.428  16.336  0.0997  1.1708  0.9526
13917TIP3    H263167   5.861   1.453  16.260  0.4154 -0.1574  1.0303
13918TIP3   OH263168   6.688   3.974   3.450 -0.3590 -0.3068 -0.9187
13918TIP3    H163169   6.645   4.045   3.402  0.3976 -0.2268 -1.4889
13918TIP3    H263170   6.651   3.894   3.414 -0.8698 -0.2193 -0.6012
13919TIP3   OH263171   0.606   1.230   1.605  0.2661 -0.4014 -0.4953
13919TIP3    H163172   0.543   1.245   1.534  0.9519  0.4084 -0.9402
13919TIP3    H263173   0.665   1.163   1.571  0.1894 -0.5104 -0.4169
13920TIP3   OH263174   4.441   5.069   5.074 -0.2891 -0.0846 -0.1717
13920TIP3    H163175   4.485   5.010   5.013 -0.9114  0.8427 -1.5651
13920TIP3    H263176   4.493   5.150   5.072 -1.0914  0.4376 -0.5578
13921TIP3   OH263177   1.412   1.672  11.216  0.1920  0.8503  0.6152
13921TIP3    H163178   1.366   1.754  11.198  0.2001  0.7902  0.3142
13921TIP3    H263179   1.359   1.605  11.172  1.4895  0.9763 -1.2263
13922TIP3   OH263180   6.608   0.860   5.713  0.2119 -0.1722 -0.5366
13922TIP3    H163181   6.571   0.851   5.801  1.1620 -1.3075 -0.2287
13922TIP3    H263182   6.533   0.878   5.657 -0.2790  1.7773  0.6502
13923TIP3   OH263183   5.129   5.870   5.010  0.4298  0.2037  0.2779
13923TIP3    H163184   5.121   5.775   4.996  0.1853  0.5578 -2.5210
13923TIP3    H263185   5.223   5.885   5.021  0.3989 -0.4107  1.6456
13924TIP3   OH263186   4.398   3.638   3.366 -0.1514  0.4212  0.3509
13924TIP3    H163187   4.476   3.682   3.332  0.5695 -0.1298  1.2320
13924TIP3    H263188   4.338   3.634   3.292  0.0761  2.1548  0.0375
13925TIP3   OH263189   4.287   0.107   2.149 -0.0956 -0.5340  0.6980
13925TIP3    H163190   4.380   0.123   2.129  0.2505 -3.3259 -0.3843
13925TIP3    H263191   4.255   0.192   2.180  2.8291  0.5181  1.2514
13926TIP3   OH263192   4.327   1.293   2.408 -0.2163 -0.4267  0.3997
13926TIP3    H163193   4.284   1.330   2.485 -0.8537 -1.2223  0.4276
13926TIP3    H263194   4.286   1.208   2.395  0.7788 -0.8500 -0.0658
13927TIP3   OH263195   3.707   2.492  14.868  0.0383 -0.2025  0.0083
13927TIP3    H163196   3.701   2.397  14.878 -0.5000 -0.6493 -3.3738
13927TIP3    H263197   3.644   2.526  14.932  0.1673 -2.0773  1.2426
13928TIP3   OH263198   3.128   4.150   1.977  0.5821  0.3471  0.2863
13928TIP3    H163199   3.067   4.193   2.037  0.3815  0.7833 -0.2242
13928TIP3    H263200   3.195   4.216   1.959 -0.2005  0.7718 -1.1889
13929TIP3   OH263201   1.966   3.509  14.484  0.0632  0.3136 -0.2285
13929TIP3    H163202   1.907   3.556  14.543  0.3306  1.4351 -0.8220
13929TIP3    H263203   2.051   3.509  14.529  0.4846  1.9460 -0.9589
13930TIP3   OH263204   2.002   5.610   3.940 -0.2169  0.0640  0.5278
13930TIP3    H163205   2.055   5.531   3.954  0.4331  0.3805 -0.1179
13930TIP3    H263206   2.059   5.669   3.890 -1.4238  0.1313 -0.8216
13931TIP3   OH263207   5.250   1.019  11.656  0.1873 -0.2765  0.3950
13931TIP3    H163208   5.218   0.947  11.710 -2.4401  1.7412  1.7453
13931TIP3    H263209   5.174   1.047  11.606  1.4947  0.7413 -1.1442
13932TIP3   OH263210   5.745   4.543   5.293  0.2110  0.5359  0.6617
13932TIP3    H163211   5.755   4.463   5.344 -0.6596  1.1111  1.7944
13932TIP3    H263212   5.830   4.587   5.301  1.3375 -1.0832 -1.5100
13933TIP3   OH263213   5.369   6.192   1.130  0.0239 -0.0728 -0.1207
13933TIP3    H163214   5.291   6.241   1.156  0.4385  0.4818  0.0986
13933TIP3    H263215   5.358   6.106   1.172  0.3628  0.5859  1.3913
13934TIP3   OH263216   3.194   3.092  14.528  0.3942 -0.4503 -0.0632
13934TIP3    H163217   3.140   3.097  14.607  0.7877 -2.1051  0.3433
13934TIP3    H263218   3.275   3.137  14.553  1.3276 -2.6797  1.2402
13935TIP3   OH263219   2.777   5.881  10.200  0.2777  0.0803 -0.7794
13935TIP3    H163220   2.777   5.963  10.151  0.1852 -0.0859 -1.0617
13935TIP3    H263221   2.859   5.838  10.175  0.7873  0.5072  0.0946
13936TIP3   OH263222   1.869   6.744   1.552 -0.4155 -0.2945  0.1544
13936TIP3    H163223   1.774   6.736   1.553 -0.4234 -0.3915  2.0427
13936TIP3    H263224   1.893   6.752   1.644  1.3697  0.2160 -0.3274
13937TIP3   OH263225   0.958   5.570   4.748 -0.0833  0.2183 -0.2854
13937TIP3    H163226   1.017   5.645   4.757 -1.1247  0.9331  0.9830
13937TIP3    H263227   0.973   5.519   4.827  2.2826 -2.2435 -2.1401
13938TIP3   OH263228   2.258   1.114   3.042  0.3605 -0.2130  0.1131
13938TIP3    H163229   2.325   1.046   3.045 -0.3552 -1.0074 -0.9916
13938TIP3    H263230   2.192   1.080   2.981 -1.5568  0.0786  1.9068
13939TIP3   OH263231   4.636   2.353   2.893  0.1265  0.1870 -0.8449
13939TIP3    H163232   4.587   2.358   2.811  1.3784 -0.2871 -1.6449
13939TIP3    H263233   4.576   2.310   2.954  0.2581 -2.3532 -2.3888
13940TIP3   OH263234   6.537   5.459  15.113  0.3722 -0.0325  0.1835
13940TIP3    H163235   6.604   5.518  15.079 -1.0247  0.8068 -1.2717
13940TIP3    H263236   6.519   5.400  15.040 -0.5301 -0.1854  0.5208
13941TIP3   OH263237   2.175   1.298  11.579 -0.3714 -0.4613  0.0691
13941TIP3    H163238   2.155   1.216  11.534 -0.0621 -0.9019  0.7213
13941TIP3    H263239   2.120   1.363  11.534 -0.7476 -1.0481 -0.3479
13942TIP3   OH263240   5.649   0.385   0.549  0.1969  0.2438  0.1795
13942TIP3    H163241   5.693   0.434   0.480  0.1937  0.0194  0.0174
13942TIP3    H263242   5.690   0.416   0.630 -0.7659  1.5431  0.2114
13943TIP3   OH263243   4.927   1.176   0.216 -0.0468  0.0446 -0.4090
13943TIP3    H163244   4.969   1.101   0.257 -0.2905  0.7564  1.2399
13943TIP3    H263245   4.855   1.139   0.165 -0.0700 -0.8505  0.2536
13944TIP3   OH263246   5.063   6.775   4.627  0.3700  0.1365 -0.4454
13944TIP3    H163247   5.035   6.798   4.715  0.2593 -2.0300  0.1607
13944TIP3    H263248   5.153   6.743   4.638  0.0716 -0.9334 -0.9562
13945TIP3   OH263249   4.093   4.994  14.107  0.2716 -0.2801 -0.1077
13945TIP3    H163250   4.188   4.982  14.105  0.0903 -1.8501 -0.3707
13945TIP3    H263251   4.062   4.926  14.166 -0.7562 -0.2475 -0.5960
13946TIP3   OH263252   4.560   1.441  11.585  0.7994 -0.3145 -0.3567
13946TIP3    H163253   4.488   1.402  11.635  0.2326 -0.3942 -1.2238
13946TIP3    H263254   4.526   1.449  11.496  0.8954  2.1177 -0.2561
13947TIP3   OH263255   5.401   5.112  16.814  0.5263  0.2916  0.2464
13947TIP3    H163256   5.442   5.123  16.900  0.0015 -1.7315  0.8248
13947TIP3    H263257   5.474   5.102  16.754  0.8987  1.3842  0.5009
13948TIP3   OH263258   4.704   2.927   0.787 -0.0435 -0.5680  0.9875
13948TIP3    H163259   4.667   2.984   0.720 -1.6921 -1.5377  1.0379
13948TIP3    H263260   4.680   2.838   0.760  2.2049 -1.2615  1.0763
13949TIP3   OH263261   5.710   4.263   3.492 -0.3206 -0.0969 -0.7309
13949TIP3    H163262   5.661   4.183   3.470 -0.4340  0.0017 -0.8373
13949TIP3    H263263   5.705   4.316   3.413 -1.7767  0.7985 -0.0764
13950TIP3   OH263264   2.892   0.356  11.443  0.2786 -0.3420 -0.1925
13950TIP3    H163265   2.965   0.300  11.469 -0.2373 -1.2133 -0.5512
13950TIP3    H263266   2.828   0.295  11.406 -1.8870 -0.0135  2.6884
13951TIP3   OH263267   0.342   2.133   1.165  0.3546  0.2251 -0.5134
13951TIP3    H163268   0.282   2.059   1.155  2.1574 -1.2156 -1.3951
13951TIP3    H263269   0.336   2.180   1.082 -1.4341  1.6636  0.3589
13952TIP3   OH263270   0.099   2.302   0.894 -0.8095  0.1841 -0.0675
13952TIP3    H163271   0.048   2.309   0.975  0.7824 -0.1431  1.0260
13952TIP3    H263272   0.123   2.209   0.889  1.0115  0.5858  0.3638
13953TIP3   OH263273   4.291   4.785  13.864 -0.1298 -0.5594  0.6629
13953TIP3    H163274   4.221   4.804  13.926 -1.5887  2.7592 -1.6947
13953TIP3    H263275   4.246   4.769  13.781  1.8317 -0.1001 -0.5570
13954TIP3   OH263276   1.822   4.460   0.390  0.5541 -0.2291 -0.3294
13954TIP3    H163277   1.833   4.365   0.396 -1.9697 -0.9015 -3.6918
13954TIP3    H263278   1.743   4.478   0.440  0.6539  0.0490 -0.2694
13955TIP3   OH263279   6.521   3.696   3.262 -0.4254  0.5100  0.4449
13955TIP3    H163280   6.473   3.739   3.333 -1.9528 -1.7216  0.8695
13955TIP3    H263281   6.587   3.643   3.307 -1.5668 -1.1141  0.2570
13956TIP3   OH263282   3.404   0.672   2.519 -0.1690  0.0774  0.0673
13956TIP3    H163283   3.382   0.629   2.602  0.2889  1.4959  0.9740
13956TIP3    H263284   3.332   0.732   2.503 -0.2840 -0.2339 -0.6089
13957TIP3   OH263285   2.892   1.418   5.645 -0.0400 -0.1508  0.3240
13957TIP3    H163286   2.984   1.432   5.668 -0.3178  0.0305  1.3807
13957TIP3    H263287   2.862   1.350   5.705 -1.5354  2.2772  2.5425
13958TIP3   OH263288   1.383   3.034  16.818 -0.3197 -0.1473 -0.0235
13958TIP3    H163289   1.387   2.965  16.752 -1.7854  0.4901 -0.8180
13958TIP3    H263290   1.331   3.104  16.777 -1.0723  0.3671  1.7104
13959TIP3   OH263291   5.679   2.109  13.334 -0.2783  0.3845 -0.2158
13959TIP3    H163292   5.757   2.163  13.322 -0.5000  0.5754 -0.8509
13959TIP3    H263293   5.665   2.107  13.428  1.3225 -0.8456  0.0310
13960TIP3   OH263294   1.526   2.054   1.514  0.5680 -0.3631  0.4209
13960TIP3    H163295   1.576   2.027   1.437  0.4865 -1.2934  0.6834
13960TIP3    H263296   1.585   2.040   1.588  0.6736  0.6006  0.5375
13961TIP3   OH263297   4.020   5.737   2.240  0.7902 -0.1884 -0.2998
13961TIP3    H163298   4.026   5.832   2.251  1.2652 -0.1681 -0.6974
13961TIP3    H263299   4.069   5.701   2.313  1.0315 -0.1186 -0.4274
13962TIP3   OH263300   1.575   0.032  12.980  0.3242  0.5123 -0.2754
13962TIP3    H163301   1.526   0.070  12.907  0.0951  0.2923 -0.2346
13962TIP3    H263302   1.629   0.105  13.012 -0.4678  0.9420  0.1062
13963TIP3   OH263303   1.986   6.220   5.561 -1.0730  0.3796 -0.2385
13963TIP3    H163304   2.078   6.194   5.559 -0.7748  1.3683  0.1057
13963TIP3    H263305   1.961   6.224   5.469  0.2467  3.4702 -0.6001
13964TIP3   OH263306   5.163   5.970   3.588 -0.1767 -0.0402  0.1157
13964TIP3    H163307   5.227   6.038   3.606 -1.0182  0.5060  1.1971
13964TIP3    H263308   5.078   6.013   3.601 -0.7232 -1.4325  1.4952
13965TIP3   OH263309   2.054   3.135  15.405 -0.4276 -0.2846  0.6377
13965TIP3    H163310   1.962   3.161  15.407 -1.0410 -2.2389  0.4766
13965TIP3    H263311   2.052   3.041  15.385  1.6082 -0.3823  0.6348
13966TIP3   OH263312   6.178   6.636   0.180 -0.1718 -0.5597  0.0287
13966TIP3    H163313   6.207   6.725   0.201  0.4571 -0.4516 -1.2011
13966TIP3    H263314   6.247   6.579   0.214 -0.6132 -0.5976  0.8874
13967TIP3   OH263315   2.825   3.663  16.482  0.3270 -0.4561 -0.1965
13967TIP3    H163316   2.779   3.740  16.516  2.0091  0.9222 -0.9133
13967TIP3    H263317   2.917   3.682  16.496  0.7695 -2.8543  0.5888
13968TIP3   OH263318   6.779   4.124   5.936 -0.8940  0.3223  0.2323
13968TIP3    H163319   6.820   4.153   6.018  0.4655  0.5096 -0.4916
13968TIP3    H263320   6.740   4.039   5.958 -0.3542  0.2679  1.0194
13969TIP3   OH263321   0.069   5.622  11.088 -0.3716  0.6321 -0.4052
13969TIP3    H163322   0.086   5.682  11.016  1.5536  2.3527  1.3539
13969TIP3    H263323   0.007   5.668  11.144  1.6066  1.3960  1.2866
13970TIP3   OH263324   2.242   3.804   2.826  0.2052 -0.2332 -0.1260
13970TIP3    H163325   2.182   3.733   2.805 -0.9614  1.1813 -1.7640
13970TIP3    H263326   2.229   3.820   2.919 -3.1269  1.0136 -0.6987
13971TIP3   OH263327   1.442   2.404  14.350  0.6940 -0.1575 -0.6978
13971TIP3    H163328   1.362   2.356  14.329  1.3394 -1.8697  0.4442
13971TIP3    H263329   1.445   2.404  14.446  0.9241  1.9144 -0.6612
13972TIP3   OH263330   1.224   4.968  16.512 -0.1934  0.1121  0.1705
13972TIP3    H163331   1.134   4.944  16.491  0.0416 -1.4230  0.7899
13972TIP3    H263332   1.229   5.061  16.492 -2.0678  0.3558  0.6416
13973TIP3   OH263333   2.162   0.397  17.006  0.2386  1.1066 -0.7544
13973TIP3    H163334   2.195   0.311  16.980  1.6536  1.7266 -1.0510
13973TIP3    H263335   2.223   0.460  16.968  0.3950  2.1789  1.1133
13974TIP3   OH263336   1.788   6.677  15.422  0.6468 -1.1777 -0.3112
13974TIP3    H163337   1.868   6.695  15.373  0.6506  0.0692  0.1218
13974TIP3    H263338   1.741   6.760  15.423  1.1493 -0.8179  2.6821
13975TIP3   OH263339   0.738   0.952  12.442  0.0096  0.3254 -0.2813
13975TIP3    H163340   0.740   0.933  12.536 -0.9892  1.0182 -0.1062
13975TIP3    H263341   0.738   0.866  12.400  2.4675 -0.0255  0.2527
13976TIP3   OH263342   0.324   5.816   5.227 -0.5082 -0.2160 -0.3390
13976TIP3    H163343   0.282   5.731   5.244 -1.7152  0.6121  1.1064
13976TIP3    H263344   0.251   5.878   5.223  0.3576  0.7670 -1.3569
13977TIP3   OH263345   0.326   0.837   3.503  0.0551 -0.2039 -0.3904
13977TIP3    H163346   0.408   0.787   3.493 -0.8487 -1.4810 -1.9422
13977TIP3    H263347   0.332   0.876   3.591  2.4484  0.0088 -0.5800
13978TIP3   OH263348   1.793   2.703  15.107  0.0603  0.0708  0.9412
13978TIP3    H163349   1.854   2.658  15.166  0.1438 -1.1390 -0.0259
13978TIP3    H263350   1.811   2.665  15.021 -0.2060  1.6374  0.1608
13979TIP3   OH263351   2.958   3.392   5.637  0.8104 -0.1051  0.0235
13979TIP3    H163352   3.036   3.339   5.654  0.5519 -0.1178  1.2070
13979TIP3    H263353   2.991   3.466   5.585  1.4990 -0.4295 -0.0134
13980TIP3   OH263354   6.397   1.593   2.620  0.5296  0.2868  0.1521
13980TIP3    H163355   6.364   1.652   2.689  2.8349  0.8930  0.8083
13980TIP3    H263356   6.464   1.644   2.575  0.5151 -0.8519 -1.1964
13981TIP3   OH263357   2.841   2.826  11.986 -0.3744 -0.0245 -0.3726
13981TIP3    H163358   2.868   2.811  11.896 -0.2126 -2.2684 -0.0135
13981TIP3    H263359   2.874   2.750  12.034 -0.7194  0.9636  1.5279
13982TIP3   OH263360   1.372   0.022  15.955  0.5699 -0.1124  0.3720
13982TIP3    H163361   1.427   0.065  15.890  0.3212  0.6677  0.6621
13982TIP3    H263362   1.418  -0.059  15.976  0.4985 -0.5268 -0.9916
13983TIP3   OH263363   3.712   5.308  14.716 -0.0275 -0.2509  0.1898
13983TIP3    H163364   3.739   5.388  14.762  0.3413 -1.4361  2.1200
13983TIP3    H263365   3.767   5.239  14.753  0.2272 -1.3221 -2.0040
13984TIP3   OH263366   2.378   0.505   4.362 -0.3556  0.0940 -0.0266
13984TIP3    H163367   2.421   0.553   4.433 -0.0571  0.4355 -0.4334
13984TIP3    H263368   2.307   0.457   4.405 -0.4970  0.6953  0.4261
13985TIP3   OH263369   5.734   0.703  13.250 -0.0204  0.3933 -0.1328
13985TIP3    H163370   5.821   0.677  13.219  0.2654 -1.3068  1.9106
13985TIP3    H263371   5.677   0.630  13.227 -0.0778 -0.2741  1.9761
13986TIP3   OH263372   4.535   3.060   2.154 -0.0248 -0.2468  0.0956
13986TIP3    H163373   4.611   3.104   2.116 -1.7339  1.4168 -1.5611
13986TIP3    H263374   4.466   3.070   2.089 -1.8850 -1.1084  1.8383
13987TIP3   OH263375   1.097   0.545  16.188  0.1647 -0.3793  0.1920
13987TIP3    H163376   1.131   0.592  16.111 -0.8830 -1.9887 -1.3417
13987TIP3    H263377   1.079   0.614  16.251 -0.5466  1.2306 -1.6456
13988TIP3   OH263378   6.234   1.131  15.325  0.1292 -0.0370 -0.2759
13988TIP3    H163379   6.140   1.116  15.329  0.0174  0.8177  0.9079
13988TIP3    H263380   6.251   1.149  15.233 -1.4621  3.1621 -0.0723
13989TIP3   OH263381   1.381   2.347   6.466  0.1794 -0.0679  0.2481
13989TIP3    H163382   1.427   2.430   6.456  0.2704 -0.2459 -0.9351
13989TIP3    H263383   1.288   2.372   6.469  0.1480  0.0246 -1.0187
13990TIP3   OH263384   4.064   5.141   1.942  1.0211 -0.2120 -0.0609
13990TIP3    H163385   4.131   5.125   1.874  0.1729 -1.7234 -0.5983
13990TIP3    H263386   3.985   5.100   1.907 -0.0136  0.9245  0.8912
13991TIP3   OH263387   3.113   5.399  16.412 -0.1754  0.0783 -0.5017
13991TIP3    H163388   3.055   5.472  16.433  0.9223  0.4197  1.6352
13991TIP3    H263389   3.122   5.401  16.317 -1.5848  1.5949 -0.6370
13992TIP3   OH263390   4.456   1.478  14.344  0.2802 -0.5517 -0.4096
13992TIP3    H163391   4.495   1.395  14.370  0.9677 -0.7644 -1.9996
13992TIP3    H263392   4.524   1.543  14.362 -0.3908 -0.2387  1.1852
13993TIP3   OH263393   0.595   1.745  15.822  0.2644 -0.3059  0.4517
13993TIP3    H163394   0.678   1.777  15.787  0.2888 -0.9631 -0.1130
13993TIP3    H263395   0.537   1.821  15.817  0.3117 -0.3369 -0.9027
13994TIP3   OH263396   5.840   1.265   5.075 -0.8103 -0.3721 -0.2717
13994TIP3    H163397   5.777   1.268   5.003 -0.8448  0.0002 -0.2291
13994TIP3    H263398   5.796   1.309   5.147 -2.2870 -3.9103  1.2113
13995TIP3   OH263399   3.775   0.292  12.890  0.0999  0.0880  0.6133
13995TIP3    H163400   3.760   0.218  12.832  0.9805  0.6028 -0.3051
13995TIP3    H263401   3.688   0.326  12.909 -0.3020 -1.0343  0.8686
13996TIP3   OH263402   5.297   6.386  13.550  0.1659  0.1095 -0.4854
13996TIP3    H163403   5.385   6.409  13.523  0.0209 -0.4891 -1.5177
13996TIP3    H263404   5.276   6.308  13.499 -1.8401  1.5668 -2.0476
13997TIP3   OH263405   6.354   1.656   5.261 -0.3778  0.0813 -0.1963
13997TIP3    H163406   6.398   1.586   5.213 -0.9267 -0.2348 -0.2451
13997TIP3    H263407   6.355   1.627   5.352  0.8578  0.7801  0.0498
13998TIP3   OH263408   6.644   1.714   0.255  0.3314 -0.0143 -0.2498
13998TIP3    H163409   6.549   1.715   0.261  0.3294  0.1210 -0.3026
13998TIP3    H263410   6.675   1.717   0.346  0.2854 -0.0205 -0.2344
13999TIP3   OH263411   1.834   2.040  17.057  0.2761  0.4098 -0.4313
13999TIP3    H163412   1.781   2.068  16.982 -0.1686 -0.9082 -0.6344
13999TIP3    H263413   1.771   2.022  17.126  0.7686  3.4138  0.9791
14000TIP3   OH263414   2.121   1.088   5.956  0.0148 -0.2753 -0.9144
14000TIP3    H163415   2.163   1.153   6.013 -0.8762 -0.3352 -0.1623
14000TIP3    H263416   2.043   1.133   5.922  0.9710  0.0601 -2.8158
14001TIP3   OH263417   1.325   5.337   0.533 -0.0722 -0.0384  0.0116
14001TIP3    H163418   1.260   5.372   0.472  0.8180 -0.1807 -1.0449
14001TIP3    H263419   1.409   5.361   0.495  0.5184 -1.1597  0.5549
14002TIP3   OH263420   4.834   3.580   4.037  0.1641 -0.0432  0.0182
14002TIP3    H163421   4.900   3.533   4.089 -0.2541 -1.5716 -0.7611
14002TIP3    H263422   4.812   3.657   4.089  3.3187  1.1085 -0.1587
14003TIP3   OH263423   0.920   0.688   0.766  0.2060  0.1838 -0.2972
14003TIP3    H163424   0.937   0.624   0.697 -0.3212  1.2107 -1.4133
14003TIP3    H263425   0.972   0.657   0.840  0.5001 -1.1479 -1.0261
14004TIP3   OH263426   4.070   6.241   3.918 -0.2873 -0.3936  0.3547
14004TIP3    H163427   4.137   6.307   3.899 -0.8501 -0.0185 -0.3813
14004TIP3    H263428   4.115   6.177   3.972  0.6824 -0.1666 -0.1544
14005TIP3   OH263429   1.749   5.316   1.431 -0.2652 -0.4802 -0.5933
14005TIP3    H163430   1.817   5.374   1.396 -1.6294  0.7539 -1.3307
14005TIP3    H263431   1.796   5.254   1.486  1.2228  1.6935  0.7264
14006TIP3   OH263432   3.336   1.536  13.898 -0.2211  0.1884  0.0590
14006TIP3    H163433   3.380   1.452  13.910 -2.1269 -0.6947  1.3970
14006TIP3    H263434   3.300   1.532  13.809 -0.5385 -0.5629  0.2100
14007TIP3   OH263435   2.920   1.066  16.577  0.0245  0.6131 -0.1170
14007TIP3    H163436   2.831   1.083  16.607 -0.2385 -1.2799  0.3419
14007TIP3    H263437   2.965   1.149  16.587 -1.3209  1.2548  1.0066
14008TIP3   OH263438   4.014   3.060  12.080  0.6927 -0.2374 -0.0417
14008TIP3    H163439   3.955   3.005  12.029 -0.0416  0.3923  0.1156
14008TIP3    H263440   4.011   3.024  12.169  2.1112 -1.4489 -0.4303
14009TIP3   OH263441   5.736   0.380  11.322 -0.2587  0.5029 -0.0827
14009TIP3    H163442   5.706   0.468  11.344  2.7484  1.9430 -1.0663
14009TIP3    H263443   5.821   0.372  11.367 -0.4792 -1.9743  0.0486
14010TIP3   OH263444   1.785   1.984   1.668  0.2743 -0.2846  0.7816
14010TIP3    H163445   1.763   1.924   1.596 -1.4816  0.3305  0.7503
14010TIP3    H263446   1.855   1.939   1.715  1.4117 -0.7429 -1.2336
14011TIP3   OH263447   4.540   6.452   0.616 -0.7065  0.1733  0.1847
14011TIP3    H163448   4.614   6.485   0.668 -0.1419  1.3476 -1.2980
14011TIP3    H263449   4.570   6.457   0.526 -2.4664  0.2927 -0.4266
14012TIP3   OH263450   3.513   5.350  14.034  0.1251 -0.3178  0.2971
14012TIP3    H163451   3.572   5.328  13.963  3.1785 -0.3277  2.6234
14012TIP3    H263452   3.495   5.444  14.022  0.3584 -0.3816 -0.6102
14013TIP3   OH263453   1.761   6.365  13.380 -0.0817 -0.1639  0.2876
14013TIP3    H163454   1.720   6.440  13.424 -0.7780 -0.1660 -0.3213
14013TIP3    H263455   1.821   6.329  13.444 -1.7833 -0.7646  1.6233
14014TIP3   OH263456   1.967   6.422   1.627 -0.1895 -0.1408 -0.2332
14014TIP3    H163457   1.896   6.386   1.573  0.1033  0.5509 -1.0771
14014TIP3    H263458   2.001   6.495   1.577  0.7910 -0.1458  0.4129
14015TIP3   OH263459   1.143   5.094  14.442 -0.9867  0.0285 -0.5060
14015TIP3    H163460   1.108   5.138  14.364  2.6441  2.4687 -1.0297
14015TIP3    H263461   1.215   5.040  14.409 -1.0260 -0.9492  0.9185
14016TIP3   OH263462   5.049   5.616   0.536  0.1765 -0.2298 -0.4917
14016TIP3    H163463   4.973   5.673   0.526 -1.0434 -1.6480  0.4262
14016TIP3    H263464   5.027   5.558   0.608  2.5657 -0.0172  0.5297
14017TIP3   OH263465   4.096   5.706   1.963  0.1816  0.1583  0.1211
14017TIP3    H163466   4.095   5.665   2.049 -0.2769 -0.7193 -0.2891
14017TIP3    H263467   4.155   5.781   1.973  1.9828 -1.2384  0.6271
14018TIP3   OH263468   0.849   6.611  12.919 -0.3908 -0.3847 -0.2488
14018TIP3    H163469   0.854   6.569  13.005 -1.8357 -0.1073 -0.0164
14018TIP3    H263470   0.838   6.539  12.857  0.4747 -0.5715 -0.1997
14019TIP3   OH263471   0.491   4.784  11.344  0.0580  0.2038 -0.2201
14019TIP3    H163472   0.494   4.689  11.355  0.2467  0.3639  1.4870
14019TIP3    H263473   0.418   4.812  11.399 -0.2787  1.0179 -1.0517
14020TIP3   OH263474   4.074   3.610   1.061 -0.2898 -0.6373  0.1462
14020TIP3    H163475   4.137   3.675   1.030 -2.1092  1.2233  0.1466
14020TIP3    H263476   4.023   3.587   0.983 -0.5318 -1.0495  0.4242
14021TIP3   OH263477   0.986   6.404   1.614 -0.1505  0.2284  0.2277
14021TIP3    H163478   1.019   6.374   1.699 -0.1453 -0.4569 -0.0063
14021TIP3    H263479   0.912   6.461   1.636  0.8844  1.4026  0.7388
14022TIP3   OH263480   3.470   3.984  13.659  0.1206 -0.0575  0.3571
14022TIP3    H163481   3.505   4.071  13.676 -1.0888  0.3111  1.0230
14022TIP3    H263482   3.513   3.928  13.723 -0.7197  0.4526  1.3889
14023TIP3   OH263483   5.124   4.317   5.586 -0.4811  0.3321  0.6470
14023TIP3    H163484   5.075   4.312   5.668 -1.2468  0.9701  0.2331
14023TIP3    H263485   5.085   4.390   5.538  0.4282  0.4254  0.0156
14024TIP3   OH263486   5.676   1.512   0.559 -0.2435 -0.0710  0.2323
14024TIP3    H163487   5.591   1.544   0.588 -1.4265 -1.8923 -0.9723
14024TIP3    H263488   5.733   1.524   0.635 -0.7466  3.7758  0.2233
14025TIP3   OH263489   6.233   5.735  15.937 -0.1685 -0.3515 -0.0921
14025TIP3    H163490   6.215   5.738  15.843 -1.2495  0.3590  0.1286
14025TIP3    H263491   6.153   5.701  15.976  0.5280 -1.3197  0.5225
14026TIP3   OH263492   0.016   4.273   4.293 -0.2563  0.3809  0.1063
14026TIP3    H163493  -0.016   4.351   4.339 -1.0784 -0.9358  1.8722
14026TIP3    H263494  -0.038   4.201   4.327  1.4128 -1.1942 -0.4160
14027TIP3   OH263495   3.157   2.818  12.037  0.6690 -0.2542  0.1540
14027TIP3    H163496   3.182   2.909  12.016  0.8355 -0.3759 -0.1881
14027TIP3    H263497   3.134   2.780  11.952 -2.6961  0.4270  0.6234
14028TIP3   OH263498   1.748   2.183  15.550 -0.7704 -0.4477  0.4236
14028TIP3    H163499   1.751   2.148  15.639 -1.6571 -2.2056 -0.1881
14028TIP3    H263500   1.832   2.157  15.511  0.8833  2.7763  1.5258
14029TIP3   OH263501   6.618   1.667  16.258  0.2434 -0.1853  0.5492
14029TIP3    H163502   6.582   1.670  16.170  1.7192 -0.1806 -0.0841
14029TIP3    H263503   6.542   1.667  16.316 -0.7240  0.4517 -0.7003
14030TIP3   OH263504   3.800   3.422  14.065 -0.5214  0.4215  0.4575
14030TIP3    H163505   3.881   3.378  14.038 -0.7335 -0.2563  0.8804
14030TIP3    H263506   3.806   3.509  14.026  0.4173  0.3868  0.4870
14031TIP3   OH263507   1.503   5.495  11.396 -0.6479 -0.4317  0.2419
14031TIP3    H163508   1.438   5.492  11.326 -2.5212  2.9306  1.5740
14031TIP3    H263509   1.498   5.409  11.437 -1.9532 -1.3284 -1.6612
14032TIP3   OH263510   2.970   6.433  16.609  0.0989 -0.0160  0.7578
14032TIP3    H163511   2.930   6.461  16.527  2.1857  0.5592 -0.1346
14032TIP3    H263512   2.988   6.514  16.656  0.7966 -0.1956  0.8205
14033TIP3   OH263513   3.392   2.643  12.410  0.3747 -0.6692 -0.0014
14033TIP3    H163514   3.323   2.578  12.422  0.9503 -1.2630  0.1261
14033TIP3    H263515   3.413   2.640  12.317  0.7619 -1.0405  0.0960
14034TIP3   OH263516   3.192   2.931  11.181 -0.6928 -0.0326  0.2606
14034TIP3    H163517   3.206   3.023  11.157 -0.6352  0.3889  1.7979
14034TIP3    H263518   3.251   2.882  11.123  0.9894  1.0873  0.9402
14035TIP3   OH263519   5.257   1.031  14.154  0.3599 -0.3137 -0.6176
14035TIP3    H163520   5.166   1.054  14.137  0.3444  0.4333  0.4160
14035TIP3    H263521   5.254   0.968  14.226  0.6567 -0.3112 -0.6013
14036TIP3   OH263522   3.188   6.613  11.324  0.0641  0.2243  0.0755
14036TIP3    H163523   3.266   6.655  11.362  0.7750 -1.9926  1.2066
14036TIP3    H263524   3.171   6.664  11.245  1.7736  1.6823  0.5533
14037TIP3   OH263525   1.218   0.784   1.144  0.0793 -0.0197  0.5717
14037TIP3    H163526   1.199   0.827   1.228 -1.0986 -0.2257  0.4247
14037TIP3    H263527   1.225   0.856   1.081  2.0490  0.2260  1.0019
14038TIP3   OH263528   3.450   0.230  13.089  0.4047 -0.3923  0.1157
14038TIP3    H163529   3.459   0.296  13.020  0.5649 -0.7860 -0.2459
14038TIP3    H263530   3.373   0.257  13.139  0.6917  0.2801  0.2057
14039TIP3   OH263531   0.194   2.525   5.090 -0.2300  0.2982  0.6955
14039TIP3    H163532   0.203   2.590   5.159  0.6822  1.0916 -0.1290
14039TIP3    H263533   0.270   2.467   5.101  0.8628  1.4191 -0.6113
14040TIP3   OH263534   6.216   6.587   4.698 -0.3460 -0.3152 -0.3172
14040TIP3    H163535   6.238   6.597   4.790  1.2522 -0.0496 -0.6932
14040TIP3    H263536   6.241   6.671   4.658 -1.1767 -0.3625 -0.9644
14041TIP3   OH263537   2.283   0.410   2.185 -0.1069 -0.6068 -0.2350
14041TIP3    H163538   2.220   0.415   2.113 -1.1752 -1.9546  0.5722
14041TIP3    H263539   2.231   0.428   2.263  0.7441 -0.6347  0.3451
14042TIP3   OH263540   0.996   0.502   1.891 -0.1596  0.1082  0.1469
14042TIP3    H163541   0.917   0.511   1.945  0.1073  0.4442  0.4840
14042TIP3    H263542   0.965   0.461   1.810 -1.1889  2.7453 -0.8951
14043TIP3   OH263543   0.474   1.164   0.222 -0.3593  0.2013 -0.3592
14043TIP3    H163544   0.395   1.200   0.182 -1.6410 -1.4031  0.6185
14043TIP3    H263545   0.450   1.074   0.246  0.9242  0.4693  2.2619
14044TIP3   OH263546   1.138   4.813  13.490  0.0317  0.1188 -0.4325
14044TIP3    H163547   1.087   4.747  13.536  1.0484 -0.6947 -0.4481
14044TIP3    H263548   1.074   4.857  13.433 -1.1378  0.7449  1.2436
14045TIP3   OH263549   1.680   6.108   0.233 -0.0865 -0.5562 -0.4498
14045TIP3    H163550   1.714   6.188   0.272 -0.0450 -0.9447  0.3495
14045TIP3    H263551   1.629   6.137   0.157 -1.4729  0.3772  0.7711
14046TIP3   OH263552   3.897   1.665  16.192 -0.4145  0.2516 -0.6394
14046TIP3    H163553   3.886   1.598  16.260  0.6108  1.5490  0.8588
14046TIP3    H263554   3.990   1.662  16.170 -0.5810  0.4241 -1.3924
14047TIP3   OH263555   5.431   5.723  14.818  0.1376 -0.0899 -1.0157
14047TIP3    H163556   5.453   5.783  14.889 -0.1529 -1.8051  0.6321
14047TIP3    H263557   5.508   5.723  14.762 -0.2405  2.5033 -1.6456
14048TIP3   OH263558   5.766   5.466   0.440  0.1424  0.0830  0.0901
14048TIP3    H163559   5.851   5.421   0.438  0.8904  1.4346 -2.4418
14048TIP3    H263560   5.781   5.548   0.393 -2.4448  0.6586  0.1144
14049TIP3   OH263561   2.759   5.324  16.057 -0.8976 -0.0766 -0.1854
14049TIP3    H163562   2.776   5.231  16.043 -0.9393 -0.0268 -0.5738
14049TIP3    H263563   2.833   5.369  16.018 -0.6893  0.0440  0.3347
14050TIP3   OH263564   1.676   2.549   4.897  0.6838  0.4661 -0.0867
14050TIP3    H163565   1.670   2.577   4.988  1.3178 -0.8767  0.4003
14050TIP3    H263566   1.760   2.504   4.891  0.8653  0.9368 -1.4606
14051TIP3   OH263567   3.771   0.183  14.115 -0.3911 -0.1153  0.1292
14051TIP3    H163568   3.773   0.209  14.023  0.3081 -0.8729 -0.0852
14051TIP3    H263569   3.843   0.232  14.155  0.5825 -1.2410 -0.1643
14052TIP3   OH263570   2.422   4.142   5.219 -0.3213  0.1237  0.3906
14052TIP3    H163571   2.363   4.080   5.177 -0.5674  0.2082  0.6097
14052TIP3    H263572   2.451   4.097   5.298  0.0488  0.0112  0.1938
14053TIP3   OH263573   2.138   0.993  13.696  0.8117 -0.3680  0.2298
14053TIP3    H163574   2.229   1.009  13.721  1.2450 -2.2426  0.0047
14053TIP3    H263575   2.095   0.969  13.778  1.0168 -1.3979  0.0614
14054TIP3   OH263576   3.803   2.616   3.428  0.4688  0.3602 -0.4550
14054TIP3    H163577   3.753   2.591   3.505 -0.5677  0.1043 -1.2029
14054TIP3    H263578   3.739   2.624   3.358  1.2285  1.7300 -1.0459
14055TIP3   OH263579   1.162   5.830   2.953  0.5641 -0.4794 -0.3108
14055TIP3    H163580   1.176   5.893   2.882  0.6297  0.8447  0.8430
14055TIP3    H263581   1.070   5.842   2.977  0.5698 -0.8506 -0.1056
14056TIP3   OH263582   4.178   6.477  13.480 -0.1421 -0.4167 -0.2629
14056TIP3    H163583   4.224   6.534  13.541 -0.5254  0.6559 -0.9497
14056TIP3    H263584   4.199   6.388  13.509  0.3868  0.0693  0.8841
14057TIP3   OH263585   3.708   3.201   0.055 -0.0460 -0.6100  0.2470
14057TIP3    H163586   3.706   3.280   0.108  1.7420  0.1801 -0.7861
14057TIP3    H263587   3.618   3.191   0.024 -0.6365  0.1102  1.6613
14058TIP3   OH263588   0.827   0.544   2.446 -0.0294 -0.4602 -0.0065
14058TIP3    H163589   0.851   0.545   2.539  0.2617  1.1012 -0.0732
14058TIP3    H263590   0.768   0.619   2.436  2.2275  1.2090 -1.6152
14059TIP3   OH263591   2.040   6.474  12.790 -0.0696  0.3929  0.4259
14059TIP3    H163592   2.013   6.428  12.711  0.6952 -0.0299  0.4007
14059TIP3    H263593   1.959   6.509  12.826 -0.3933  0.8135 -0.6774
14060TIP3   OH263594   5.171   5.686   6.072  0.2688  0.0649  0.5060
14060TIP3    H163595   5.130   5.730   5.997  0.0086 -0.1601  0.5116
14060TIP3    H263596   5.265   5.692   6.056  0.2596  1.2118  0.8452
14061TIP3   OH263597   3.757   5.429   1.892  0.2042  0.3578 -0.4461
14061TIP3    H163598   3.709   5.357   1.932  0.2904 -0.0482 -1.0613
14061TIP3    H263599   3.710   5.447   1.810  0.5276  0.5951 -0.5816
14062TIP3   OH263600   5.448   6.406   4.752  0.1813  0.0177 -0.1885
14062TIP3    H163601   5.477   6.351   4.680 -0.1980 -0.3358 -0.0751
14062TIP3    H263602   5.373   6.360   4.789  1.3772 -0.6607  1.4929
14063TIP3   OH263603   0.562   3.518   5.947 -0.0231  0.3249  0.2352
14063TIP3    H163604   0.579   3.548   6.036  0.8657  0.7816 -0.0757
14063TIP3    H263605   0.467   3.508   5.942  0.0306 -1.5947  1.8351
14064TIP3   OH263606   6.361   5.603   4.712 -0.2027 -0.1858 -0.0733
14064TIP3    H163607   6.418   5.678   4.733 -0.0506 -0.4668  0.5481
14064TIP3    H263608   6.286   5.614   4.771 -0.8171  0.1993 -0.9129
14065TIP3   OH263609   0.497   2.546  12.524 -0.5996  0.4543 -0.5499
14065TIP3    H163610   0.422   2.563  12.467 -2.3175 -2.7476  0.4910
14065TIP3    H263611   0.559   2.499  12.469 -1.6183 -1.3313 -0.2473
14066TIP3   OH263612   0.081   1.858  13.176  0.1029  0.0928  0.0737
14066TIP3    H163613   0.047   1.896  13.095  0.2798 -1.8582 -0.9643
14066TIP3    H263614   0.003   1.834  13.226 -0.0218  0.0735 -0.1274
14067TIP3   OH263615   1.357   6.780  16.352 -0.2399 -0.6523 -0.0839
14067TIP3    H163616   1.424   6.789  16.285  1.7377 -0.9286  1.7343
14067TIP3    H263617   1.274   6.788  16.305  1.0468 -0.1444 -2.4108
14068TIP3   OH263618   3.335   0.271  12.144 -0.6356  0.0800 -0.1195
14068TIP3    H163619   3.393   0.224  12.203 -0.9647 -2.4736 -1.7071
14068TIP3    H263620   3.247   0.242  12.168 -1.1187  1.9267  0.5485
14069TIP3   OH263621   3.576   6.564   6.311 -0.1276 -0.3994  0.4573
14069TIP3    H163622   3.486   6.542   6.289  0.8527 -3.4817 -1.0680
14069TIP3    H263623   3.600   6.502   6.380  1.7323 -1.9235 -1.4330
14070TIP3   OH263624   5.502   2.512   2.383 -0.5134  0.3925 -0.1142
14070TIP3    H163625   5.490   2.419   2.403 -0.3463  0.1654 -1.0183
14070TIP3    H263626   5.512   2.554   2.468 -0.2276 -0.4751  0.2896
14071TIP3   OH263627   5.097   2.437   4.336  0.0277  0.5211  0.1916
14071TIP3    H163628   5.172   2.397   4.293  0.4840  0.5419  0.9549
14071TIP3    H263629   5.097   2.399   4.424 -1.7938 -0.7267 -0.2667
14072TIP3   OH263630   3.881   6.814  13.894  0.5132  0.0172 -0.1157
14072TIP3    H163631   3.868   6.842  13.985  0.0717  2.1027 -0.7644
14072TIP3    H263632   3.805   6.850  13.847  1.4622  0.2003 -1.5498
14073TIP3   OH263633   6.087   0.608  13.745  0.2052  0.1718  0.2867
14073TIP3    H163634   6.124   0.688  13.708  0.6572 -0.2616 -0.2015
14073TIP3    H263635   6.000   0.635  13.777 -1.1825  0.1225 -3.0520
14074TIP3   OH263636   4.763   4.205  17.111 -0.1888  0.3977 -0.1404
14074TIP3    H163637   4.828   4.276  17.116  0.7117 -0.4756  1.6157
14074TIP3    H263638   4.685   4.247  17.074  0.3552  2.2907  0.7022
14075TIP3   OH263639   2.457   0.567   6.197  0.6993  0.2227 -0.0439
14075TIP3    H163640   2.437   0.475   6.215 -1.3963 -0.1064 -3.2398
14075TIP3    H263641   2.441   0.577   6.103  0.1530  4.0085  0.2957
14076TIP3   OH263642   1.263   3.954  12.469 -0.0627 -0.4023  0.5433
14076TIP3    H163643   1.202   3.990  12.534 -0.0511 -2.3198  1.7161
14076TIP3    H263644   1.269   3.861  12.492  1.1577 -0.8233 -1.2884
14077TIP3   OH263645   0.891   3.474   3.479 -0.0703  0.1127  0.2815
14077TIP3    H163646   0.967   3.531   3.483  0.0003  0.0934 -0.6202
14077TIP3    H263647   0.821   3.529   3.443  0.0491 -0.4064 -0.7753
14078TIP3   OH263648   2.419   0.086  14.666  0.2652  0.6946  0.2867
14078TIP3    H163649   2.368   0.167  14.661  1.5390  1.4413 -2.2694
14078TIP3    H263650   2.357   0.017  14.640 -0.5909  0.9143  1.6388
14079TIP3   OH263651   5.884   6.129   3.331 -0.0688  0.2661 -0.5320
14079TIP3    H163652   5.862   6.127   3.238 -0.3498  2.9789 -0.6057
14079TIP3    H263653   5.974   6.161   3.333  0.7386 -1.8552  0.1199
14080TIP3   OH263654   0.114   5.316   2.929  0.1772  0.3163  0.3450
14080TIP3    H163655   0.098   5.387   2.866 -1.2219 -1.0405 -0.8903
14080TIP3    H263656   0.210   5.310   2.934  0.3180  0.9309 -1.1198
14081TIP3   OH263657   2.739   4.503   1.551  0.1597 -0.0323 -0.6893
14081TIP3    H163658   2.794   4.457   1.487  1.1858 -1.2034  0.9609
14081TIP3    H263659   2.667   4.442   1.569 -0.5197  0.5941 -1.2265
14082TIP3   OH263660   3.360   3.365   3.129 -0.3094  0.3108  0.3033
14082TIP3    H163661   3.407   3.411   3.199  0.0595  1.5374 -0.7193
14082TIP3    H263662   3.328   3.434   3.072 -1.8741 -0.5971  0.0212
14083TIP3   OH263663   3.110   2.083   5.239  0.6888 -0.6202  0.2427
14083TIP3    H163664   3.121   2.177   5.228  1.3308 -0.7489 -0.2794
14083TIP3    H263665   3.028   2.062   5.195 -1.1971  0.1626  3.0853
14084TIP3   OH263666   2.560   3.094  13.605 -0.9591  0.2261  0.2759
14084TIP3    H163667   2.574   2.999  13.606 -1.4111  0.1562  1.4432
14084TIP3    H263668   2.627   3.129  13.664 -0.8170  0.6340 -0.1191
14085TIP3   OH263669   2.508   4.510   4.254  0.2199 -0.1609  0.1462
14085TIP3    H163670   2.478   4.554   4.174  2.8625 -0.9233 -1.3939
14085TIP3    H263671   2.433   4.512   4.313 -1.5700  1.1840 -2.0467
14086TIP3   OH263672   6.272   2.130  14.690 -0.0579 -0.3008 -0.0426
14086TIP3    H163673   6.218   2.135  14.611  0.0289  0.3245 -0.0710
14086TIP3    H263674   6.330   2.206  14.684  2.0317 -1.8817 -0.8745
14087TIP3   OH263675   3.497   6.452  13.124 -0.6596  0.6233  0.2793
14087TIP3    H163676   3.586   6.425  13.148 -0.5426  1.8868  1.3623
14087TIP3    H263677   3.443   6.426  13.200 -1.0148  0.9454  0.1394
14088TIP3   OH263678   4.593   3.374  15.108 -0.4681  0.1545 -0.4549
14088TIP3    H163679   4.609   3.363  15.202  2.0255  1.4648 -0.6452
14088TIP3    H263680   4.671   3.418  15.075 -1.1600 -0.4767 -3.2208
14089TIP3   OH263681   1.483   6.664  14.860  0.3135  0.2243 -0.0260
14089TIP3    H163682   1.477   6.751  14.900 -0.7533  0.8976 -1.5619
14089TIP3    H263683   1.392   6.633  14.858  0.4970 -0.2758 -0.8799
14090TIP3   OH263684   4.645   0.016  13.319  0.3327 -0.5496  0.1303
14090TIP3    H163685   4.615  -0.040  13.391  0.4040 -0.6917  0.0493
14090TIP3    H263686   4.646   0.105  13.356  1.1551 -0.7213  0.5596
14091TIP3   OH263687   1.281   1.902   4.610  0.1179 -0.3137 -0.3044
14091TIP3    H163688   1.270   1.966   4.680 -0.7451  0.8247 -1.4312
14091TIP3    H263689   1.273   1.953   4.529  0.8985 -1.6115 -1.2474
14092TIP3   OH263690   2.694   6.722  12.402  0.3128 -0.3426  0.0734
14092TIP3    H163691   2.666   6.754  12.316 -0.6519  1.3166  0.9714
14092TIP3    H263692   2.618   6.675  12.436  0.1362  0.3687  0.6751
14093TIP3   OH263693   1.774   2.675  16.743 -0.0473  0.3147  0.1604
14093TIP3    H163694   1.716   2.603  16.717  0.1367  0.9415 -2.1913
14093TIP3    H263695   1.765   2.679  16.838 -0.6289 -2.3199  0.2981
14094TIP3   OH263696   0.977   5.806   3.645 -0.6556 -0.2325  0.0621
14094TIP3    H163697   0.953   5.715   3.661 -1.8892  0.1085  0.3232
14094TIP3    H263698   1.013   5.806   3.557 -1.2113 -0.8881 -0.1800
14095TIP3   OH263699   5.233   1.199  12.324  0.1331 -0.0111  1.2372
14095TIP3    H163700   5.206   1.152  12.245 -0.7827 -0.2242  1.6502
14095TIP3    H263701   5.314   1.243  12.301 -0.3534  0.2865  0.0432
14096TIP3   OH263702   2.426   4.140   2.463 -0.2903 -0.1449 -0.0202
14096TIP3    H163703   2.460   4.116   2.377 -1.2192  0.4337 -0.5653
14096TIP3    H263704   2.504   4.155   2.516  0.2967 -0.6904 -0.7027
14097TIP3   OH263705   3.903   2.220  11.658  0.3523 -0.0807  0.0768
14097TIP3    H163706   3.973   2.279  11.686 -1.7776  3.0670 -0.7207
14097TIP3    H263707   3.922   2.203  11.565  1.3637 -1.3887  0.4823
14098TIP3   OH263708   3.126   2.594  14.903  0.1751 -0.5535 -0.1331
14098TIP3    H163709   3.055   2.582  14.840 -0.0331 -0.2363  0.0399
14098TIP3    H263710   3.178   2.514  14.896 -0.0943 -0.7075 -0.3933
14099TIP3   OH263711   4.668   6.688   1.051  0.4284 -1.1601 -0.2979
14099TIP3    H163712   4.671   6.595   1.075  0.0559 -1.6704 -2.0750
14099TIP3    H263713   4.606   6.692   0.979  0.9215  0.3892 -0.6710
14100TIP3   OH263714   0.203   6.277   3.187 -0.2659 -0.0576  0.0292
14100TIP3    H163715   0.282   6.275   3.242  1.0882 -1.0398 -1.8184
14100TIP3    H263716   0.182   6.184   3.173 -0.1827  0.1351 -1.5825
14101TIP3   OH263717   3.314   6.062   5.404  0.0579  0.0411  0.7658
14101TIP3    H163718   3.241   6.069   5.342 -0.2489  0.7519  1.1974
14101TIP3    H263719   3.271   6.057   5.490  0.5179  0.2575  1.0073
14102TIP3   OH263720   2.614   6.046   1.003 -0.0746  0.4206 -0.1296
14102TIP3    H163721   2.580   6.065   0.915  0.0263 -0.2782 -0.3253
14102TIP3    H263722   2.631   5.952   1.002  1.1513  0.6206  0.2137
14103TIP3   OH263723   1.705   6.518  11.935 -0.0569  0.2382 -0.6678
14103TIP3    H163724   1.677   6.555  12.018 -0.3352  0.2988 -0.7872
14103TIP3    H263725   1.626   6.479  11.897 -0.3009  1.6322 -1.6570
14104TIP3   OH263726   3.294   6.700   5.377  0.0511 -0.0396 -0.1829
14104TIP3    H163727   3.242   6.723   5.300 -0.7346  1.2528  0.7067
14104TIP3    H263728   3.253   6.619   5.409 -0.4902  0.1764 -0.3191
14105TIP3   OH263729   4.172   6.509   5.161 -0.1621 -0.1742 -0.5281
14105TIP3    H163730   4.238   6.509   5.093 -0.6738  0.6119 -1.0516
14105TIP3    H263731   4.103   6.452   5.128 -1.1005  1.3803 -1.4194
14106TIP3   OH263732   5.417   6.217  12.678  0.3419  0.5624 -0.2737
14106TIP3    H163733   5.348   6.185  12.621 -0.1124 -0.4389  0.7960
14106TIP3    H263734   5.431   6.147  12.741  2.5975  0.6083 -0.6637
14107TIP3   OH263735   0.778   0.007   0.107 -0.2560  0.6256  0.2249
14107TIP3    H163736   0.724   0.060   0.166 -0.9440  0.6593 -0.4201
14107TIP3    H263737   0.868   0.022   0.137 -0.6681 -0.5491  2.2581
14108TIP3   OH263738   6.009   3.741  14.924  0.0946  0.2324  0.2392
14108TIP3    H163739   5.956   3.767  14.849 -0.9180 -0.8746  0.5329
14108TIP3    H263740   5.988   3.806  14.992 -2.6208 -1.3380  1.0623
14109TIP3   OH263741   6.336   5.957   4.648 -0.5400 -0.2252 -0.2579
14109TIP3    H163742   6.256   5.909   4.670  0.8770 -2.2075  0.9025
14109TIP3    H263743   6.361   6.000   4.730 -0.1472 -0.0118 -0.4861
14110TIP3   OH263744   0.449   3.138   1.555 -0.3830 -0.0440  0.3268
14110TIP3    H163745   0.467   3.172   1.467 -0.4846 -1.0114 -0.0842
14110TIP3    H263746   0.401   3.057   1.540 -0.5185 -0.1554  1.2851
14111TIP3   OH263747   4.649   3.838   4.876 -0.1275  0.1352 -0.1726
14111TIP3    H163748   4.735   3.796   4.877  0.4174  0.8075 -3.8056
14111TIP3    H263749   4.587   3.766   4.862  0.1179 -0.1023 -0.0499
14112TIP3   OH263750   4.218   1.439  12.781 -0.0758 -0.1450 -0.1003
14112TIP3    H163751   4.288   1.458  12.843 -1.3208  1.9897  0.7462
14112TIP3    H263752   4.141   1.425  12.836 -0.2596 -3.2145 -0.9692
14113TIP3   OH263753   0.830   1.999  12.186 -0.1215  0.3068  0.3113
14113TIP3    H163754   0.767   1.969  12.121  1.1436  0.4192 -1.0163
14113TIP3    H263755   0.800   1.960  12.268 -0.5580 -1.6306 -0.7018
14114TIP3   OH263756   6.187   2.483   1.404 -0.0832  0.0305 -0.1158
14114TIP3    H163757   6.163   2.567   1.444  0.8810  0.7984 -1.0852
14114TIP3    H263758   6.240   2.439   1.471 -1.4971 -0.3226  0.8239
14115TIP3   OH263759   3.307   0.372   2.147  0.6618  0.2665  0.1647
14115TIP3    H163760   3.359   0.303   2.105  0.2096  0.0854 -0.0990
14115TIP3    H263761   3.312   0.351   2.241  1.7356  0.7188  0.2293
14116TIP3   OH263762   0.416   4.951   1.060  0.1339 -0.4538  0.1733
14116TIP3    H163763   0.385   4.872   1.104  0.5028 -0.7082 -0.0181
14116TIP3    H263764   0.509   4.954   1.079  0.2795 -0.5035 -0.4826
14117TIP3   OH263765   2.116   1.703   0.397  0.0759  0.2111  0.2982
14117TIP3    H163766   2.147   1.614   0.413  0.6915  0.5824  1.2819
14117TIP3    H263767   2.059   1.696   0.320  1.6260 -0.7042 -0.8234
14118TIP3   OH263768   3.958   3.157   5.925  0.4152  0.2886 -0.5943
14118TIP3    H163769   4.003   3.117   5.999 -1.0619 -1.0773 -0.3604
14118TIP3    H263770   3.988   3.107   5.849 -2.1446 -2.0897 -0.1898
14119TIP3   OH263771   4.480   5.775  13.647  0.3906  0.2284 -0.0678
14119TIP3    H163772   4.519   5.809  13.566 -1.0429 -1.1183 -1.3821
14119TIP3    H263773   4.388   5.761  13.625 -0.2907  0.8516  2.1605
14120TIP3   OH263774   3.193   6.245   2.372  0.8409 -0.0121  0.8720
14120TIP3    H163775   3.131   6.174   2.388  2.9676 -3.4383 -3.7651
14120TIP3    H263776   3.250   6.245   2.449  0.6716 -3.3868  1.1439
14121TIP3   OH263777   5.177   0.081   6.300  0.2736  0.4130 -0.0932
14121TIP3    H163778   5.253   0.110   6.350 -1.1873  2.0148  1.3446
14121TIP3    H263779   5.169  -0.013   6.320  0.6263  0.6968  1.4799
14122TIP3   OH263780   4.300   5.964   1.238 -0.1457  0.3414  0.5271
14122TIP3    H163781   4.374   5.912   1.270  1.0057  0.8788 -1.1555
14122TIP3    H263782   4.243   5.900   1.195  0.3880  0.1965  0.0142
14123TIP3   OH263783   1.984   0.574  15.405 -0.2876  0.5481 -0.3030
14123TIP3    H163784   1.991   0.644  15.470 -1.2629  0.5022 -0.1293
14123TIP3    H263785   2.055   0.514  15.426 -1.7144 -0.4933  1.9946
14124TIP3   OH263786   2.490   5.495  10.593  0.3546 -0.6645  0.6596
14124TIP3    H163787   2.442   5.419  10.625 -1.5158  1.4463  3.3291
14124TIP3    H263788   2.580   5.480  10.621 -0.5494 -0.5825  4.0258
14125TIP3   OH263789   5.481   0.206  11.907  0.2215  0.0799  0.2634
14125TIP3    H163790   5.464   0.285  11.856  0.6261 -0.2265 -0.3665
14125TIP3    H263791   5.496   0.138  11.841  0.2930 -0.4276  0.7946
14126TIP3   OH263792   4.305   2.334  12.079  0.1198  0.2091  0.2560
14126TIP3    H163793   4.304   2.429  12.092  1.9855  0.2468  0.3846
14126TIP3    H263794   4.350   2.300  12.156 -0.8432 -0.8349  0.3868
14127TIP3   OH263795   5.829   6.729  16.135 -0.2805 -0.2642 -0.2090
14127TIP3    H163796   5.828   6.801  16.198  0.9125 -0.9150  0.6068
14127TIP3    H263797   5.870   6.765  16.057  1.3815 -0.3218  0.5910
14128TIP3   OH263798   0.445   0.176   4.607  0.2009  0.2640  0.0806
14128TIP3    H163799   0.411   0.239   4.671  2.9881  0.0798  1.9661
14128TIP3    H263800   0.474   0.229   4.533 -0.0454  0.8956  0.4320
14129TIP3   OH263801   2.117   1.176   0.016  0.1735 -0.6315 -0.0682
14129TIP3    H163802   2.027   1.173   0.049 -0.0507 -1.8137 -0.7459
14129TIP3    H263803   2.168   1.128   0.081  0.4716  0.6757  0.7053
14130TIP3   OH263804   1.402   3.256   6.100 -0.1279 -0.5951 -0.7339
14130TIP3    H163805   1.431   3.178   6.148 -1.5673 -0.4614  0.4436
14130TIP3    H263806   1.450   3.328   6.140 -0.2884 -0.6489 -0.4394
14131TIP3   OH263807   0.593   1.291  10.948 -0.1843 -0.4472  0.3159
14131TIP3    H163808   0.545   1.276  10.867 -0.9168 -1.0787  0.8585
14131TIP3    H263809   0.674   1.334  10.920 -0.1277 -1.2543 -0.8117
14132TIP3   OH263810   0.527   1.381  12.307  0.5509 -0.4714  0.1875
14132TIP3    H163811   0.570   1.358  12.390  0.3974  2.0542  1.0372
14132TIP3    H263812   0.436   1.397  12.330 -0.2535 -2.7452 -1.0797
14133TIP3   OH263813   1.925   6.549   1.859 -0.6899 -0.2128 -0.4522
14133TIP3    H163814   1.930   6.494   1.781 -0.2976 -0.7470 -0.0608
14133TIP3    H263815   2.016   6.557   1.888 -0.9668 -1.3084  0.8261
14134TIP3   OH263816   4.844   5.915  15.198 -0.4115  0.8446 -0.1364
14134TIP3    H163817   4.883   5.828  15.195 -0.3605  0.7472  1.7809
14134TIP3    H263818   4.750   5.899  15.206 -0.3414  0.9087  1.0340
14135TIP3   OH263819   1.233   2.940   2.080  0.1137 -0.3849  0.0120
14135TIP3    H163820   1.309   2.980   2.038 -0.3808  0.4763 -0.0931
14135TIP3    H263821   1.269   2.868   2.132  0.8786 -0.6162 -0.8178
14136TIP3   OH263822   3.343   3.349  17.094 -0.5452  0.8198 -0.3964
14136TIP3    H163823   3.253   3.344  17.063 -1.4028 -1.8988  2.1196
14136TIP3    H263824   3.389   3.282  17.044 -0.7895 -0.1949  0.7015
14137TIP3   OH263825   6.486   3.755   6.300 -0.1492 -0.0822 -0.3178
14137TIP3    H163826   6.397   3.762   6.263 -0.3804 -0.5728  0.1320
14137TIP3    H263827   6.512   3.845   6.316  0.8360  0.3839 -3.6896
14138TIP3   OH263828   2.798   1.192  15.613 -0.8082 -0.2354 -0.5229
14138TIP3    H163829   2.766   1.152  15.694  1.1029 -2.4245 -0.7497
14138TIP3    H263830   2.724   1.187  15.552 -1.8696  0.2821  0.6833
14139TIP3   OH263831   0.732   0.713  14.826 -0.3058 -0.4317  0.1824
14139TIP3    H163832   0.741   0.635  14.772  0.0473 -1.3597  1.5379
14139TIP3    H263833   0.749   0.683  14.916 -0.3392  1.1598  0.7590
14140TIP3   OH263834   1.149   3.989  16.452  0.1079  0.0370 -0.2409
14140TIP3    H163835   1.067   3.978  16.405  0.1485 -0.0643 -0.2875
14140TIP3    H263836   1.213   4.009  16.384  0.0365  0.5622 -0.1630
14141TIP3   OH263837   1.298   1.336  13.753  0.3769 -0.3426 -0.0412
14141TIP3    H163838   1.378   1.371  13.713  0.2806 -1.4697 -1.2766
14141TIP3    H263839   1.322   1.321  13.845  1.9354 -1.6723 -0.6213
14142TIP3   OH263840   0.810   2.553   2.625 -0.3853 -0.1390  0.1940
14142TIP3    H163841   0.776   2.641   2.643 -0.2700  0.0247 -0.3669
14142TIP3    H263842   0.897   2.568   2.588  0.3675 -0.5546  1.7118
14143TIP3   OH263843   4.046   3.195  14.969  0.2264  0.2554 -0.4566
14143TIP3    H163844   4.109   3.213  14.899 -1.0755 -2.0796 -2.3867
14143TIP3    H263845   3.975   3.257  14.954  0.2487  0.1969 -0.8186
14144TIP3   OH263846   2.757   3.287   2.789  0.0341  0.6315  0.2024
14144TIP3    H163847   2.674   3.312   2.829 -0.5987 -0.7082 -0.2065
14144TIP3    H263848   2.760   3.191   2.798  1.5992  0.6606  0.3194
14145TIP3   OH263849   0.932   5.865   2.451  0.2864 -0.1267 -0.0306
14145TIP3    H163850   0.956   5.953   2.478  2.9837 -0.5383 -0.7792
14145TIP3    H263851   0.958   5.860   2.359  0.0205 -1.6417 -0.0557
14146TIP3   OH263852   4.401   0.331  17.009 -0.3428 -0.1228 -0.2059
14146TIP3    H163853   4.483   0.294  16.975  0.9142  1.2623  1.1599
14146TIP3    H263854   4.351   0.355  16.931  1.1661  0.2959 -1.0766
14147TIP3   OH263855   1.867   1.241   5.823  0.7239 -0.1406 -0.6559
14147TIP3    H163856   1.895   1.314   5.766 -0.0919  0.1605 -0.6818
14147TIP3    H263857   1.819   1.183   5.764  0.9230 -0.4475 -0.5188
14148TIP3   OH263858   0.738   2.914  14.072 -0.2076 -0.1927  0.2003
14148TIP3    H163859   0.808   2.870  14.026 -0.1938  0.4137 -0.3686
14148TIP3    H263860   0.762   2.907  14.165  0.7341  0.2296 -0.0043
14149TIP3   OH263861   0.285   5.216  11.410  0.1881 -0.0089 -0.1678
14149TIP3    H163862   0.207   5.185  11.456  0.9748  0.2049  1.3952
14149TIP3    H263863   0.271   5.191  11.319 -0.7069 -1.9744  0.4544
14150TIP3   OH263864   0.125   1.534   3.158 -0.0080 -0.2660 -0.4392
14150TIP3    H163865   0.095   1.546   3.068  0.5693 -0.3745 -0.6487
14150TIP3    H263866   0.195   1.469   3.152  0.4897  0.2169 -0.0015
14151TIP3   OH263867   2.989   6.715  12.583  1.0516 -0.1556 -0.4612
14151TIP3    H163868   2.917   6.696  12.642  0.1749 -0.0549 -1.4623
14151TIP3    H263869   2.953   6.779  12.521  1.9841 -0.1343 -1.0062
14152TIP3   OH263870   0.261   5.608  13.160 -0.0752  0.8168 -0.1891
14152TIP3    H163871   0.175   5.645  13.143  0.3989  2.7278  1.2226
14152TIP3    H263872   0.280   5.632  13.251  0.8856 -1.8024  0.4115
14153TIP3   OH263873   0.355   4.407   1.796 -0.2976 -0.0818  0.3338
14153TIP3    H163874   0.400   4.476   1.748 -1.9621  1.0859  0.3695
14153TIP3    H263875   0.312   4.355   1.727 -1.3068  0.5863  0.4494
14154TIP3   OH263876   2.494   4.181   3.698  0.3004 -0.3378  0.4296
14154TIP3    H163877   2.491   4.276   3.713 -0.1035 -0.3525  0.4493
14154TIP3    H263878   2.573   4.168   3.646 -0.7869  0.2914 -1.4892
14155TIP3   OH263879   1.461   3.494  14.496 -0.0630 -0.1746  0.4842
14155TIP3    H163880   1.500   3.442  14.565 -0.7334 -0.3573  0.7321
14155TIP3    H263881   1.376   3.454  14.480 -0.6495  0.9092  0.7723
14156TIP3   OH263882   3.198   5.818   1.334 -0.4489  0.1434  0.3089
14156TIP3    H163883   3.241   5.786   1.413 -2.6647  1.6765  2.3112
14156TIP3    H263884   3.104   5.808   1.352 -1.1110  2.7966 -1.0174
14157TIP3   OH263885   1.175   6.127  10.735  0.1132  0.0649 -0.0102
14157TIP3    H163886   1.222   6.210  10.745  0.2663  0.0090 -0.2497
14157TIP3    H263887   1.235   6.072  10.685  0.0771 -0.2459  0.2855
14158TIP3   OH263888   1.566   4.237  13.764 -0.2326 -0.4159 -0.1444
14158TIP3    H163889   1.603   4.164  13.814  1.7428 -0.7530 -1.9466
14158TIP3    H263890   1.636   4.303  13.764 -0.7860  0.1935 -1.1296
14159TIP3   OH263891   5.403   4.303   0.042  0.1536 -0.3304 -0.0985
14159TIP3    H163892   5.341   4.346   0.101 -0.1839 -1.3900  0.3353
14159TIP3    H263893   5.487   4.347   0.059  0.1185 -0.7746  1.3545
14160TIP3   OH263894   4.317   1.022  14.423 -0.0387 -0.4119  0.1590
14160TIP3    H163895   4.254   1.027  14.495 -0.2126  0.4093 -0.0400
14160TIP3    H263896   4.401   1.006  14.465 -0.3833 -1.6181  0.4205
14161TIP3   OH263897   4.619   5.678  11.316  0.5369  0.3274 -0.1632
14161TIP3    H163898   4.675   5.648  11.245 -0.4438  0.6221 -1.0869
14161TIP3    H263899   4.537   5.704  11.273  0.3965  1.7977  0.9007
14162TIP3   OH263900   4.370   1.599   5.285  0.2493 -0.3130  0.2091
14162TIP3    H163901   4.277   1.577   5.280 -0.2862  1.7263  0.1428
14162TIP3    H263902   4.402   1.588   5.196 -0.0168 -0.6355  0.1488
14163TIP3   OH263903   2.816   4.813   2.335  0.0966  0.5528  0.0624
14163TIP3    H163904   2.784   4.739   2.386  0.4027  0.6531  0.3988
14163TIP3    H263905   2.888   4.849   2.386 -0.1401  1.1752 -0.0289
14164TIP3   OH263906   1.412   2.439   5.495 -0.4790  0.1429 -0.1335
14164TIP3    H163907   1.367   2.457   5.577 -2.5671  2.7371 -1.7091
14164TIP3    H263908   1.486   2.501   5.495  1.1231 -1.6544  0.8438
14165TIP3   OH263909   6.561   6.112   3.108 -0.2040 -0.4011 -0.1430
14165TIP3    H163910   6.501   6.039   3.122 -1.8766  0.5346 -1.8912
14165TIP3    H263911   6.595   6.099   3.020 -1.1032  1.2334 -0.7908
14166TIP3   OH263912   1.506   1.272  15.005  0.6575  0.5117  0.3045
14166TIP3    H163913   1.538   1.360  14.985  2.9024  0.0621  1.5848
14166TIP3    H263914   1.507   1.268  15.101 -1.5324 -0.2293  0.3662
14167TIP3   OH263915   3.411   6.689   1.615  0.8661 -0.0031 -0.0110
14167TIP3    H163916   3.424   6.598   1.642  1.9837 -0.5722 -2.2109
14167TIP3    H263917   3.494   6.732   1.634  1.3896 -0.2209 -1.6049
14168TIP3   OH263918   6.681   1.431  15.886  0.4075 -0.3158 -0.2235
14168TIP3    H163919   6.653   1.340  15.900 -1.0067  0.0957 -0.3020
14168TIP3    H263920   6.750   1.424  15.819  0.5023 -1.3428 -0.0461
14169TIP3   OH263921   0.012   4.080   5.114 -0.1208  0.0375  0.2332
14169TIP3    H163922   0.007   4.102   5.021  1.3053  0.5922  0.2622
14169TIP3    H263923   0.012   3.984   5.116 -0.5741  0.0202 -0.3011
14170TIP3   OH263924   2.376   5.608  15.794  0.1909 -0.4620 -0.2727
14170TIP3    H163925   2.469   5.628  15.788 -0.0991  1.4632  0.8900
14170TIP3    H263926   2.373   5.524  15.840  1.3501 -0.4561 -0.1465
14171TIP3   OH263927   5.162   4.513   0.577 -0.4690  0.0293  0.1011
14171TIP3    H163928   5.212   4.436   0.605 -0.9792 -0.4363 -0.2418
14171TIP3    H263929   5.229   4.580   0.558  0.1009 -0.8563 -1.1984
14172TIP3   OH263930   3.487   5.314   3.557 -0.0773  0.2352 -0.4240
14172TIP3    H163931   3.570   5.283   3.522  0.2838  0.4277  0.2306
14172TIP3    H263932   3.496   5.409   3.560  0.6678  0.1620  1.9207
14173TIP3   OH263933   1.598   2.999  13.277 -0.5016  0.2090  0.3987
14173TIP3    H163934   1.581   3.087  13.311  0.6655  0.8499 -0.5849
14173TIP3    H263935   1.514   2.953  13.285 -1.1684  1.4542  0.7872
14174TIP3   OH263936   2.852   1.464   2.065 -0.5813  0.2058  0.0925
14174TIP3    H163937   2.850   1.442   2.158  0.9870  3.3503  1.0001
14174TIP3    H263938   2.787   1.533   2.055  1.2961  2.0012 -0.4118
14175TIP3   OH263939   2.112   0.422   1.669  0.4018  0.5723  0.0549
14175TIP3    H163940   2.028   0.419   1.623  0.0455 -2.4337  0.6826
14175TIP3    H263941   2.164   0.353   1.628  2.4299  2.0201  0.0511
14176TIP3   OH263942   6.664   5.498  10.136  0.0167  0.0488 -0.3100
14176TIP3    H163943   6.670   5.572  10.196  1.2918 -0.3888  0.1328
14176TIP3    H263944   6.570   5.485  10.123 -0.3009  0.1049  1.6520
14177TIP3   OH263945   1.546   5.891  10.166  0.1293  0.6597  0.2782
14177TIP3    H163946   1.611   5.934  10.222  0.7500  0.2583 -0.1331
14177TIP3    H263947   1.569   5.798  10.168  0.1062  0.6284 -0.5744
14178TIP3   OH263948   5.398   0.867  13.132 -0.2020 -0.3054 -0.1224
14178TIP3    H163949   5.478   0.915  13.113 -0.4957  0.9985  1.6097
14178TIP3    H263950   5.425   0.776  13.141  0.7301 -0.1767 -1.4630
14179TIP3   OH263951   5.572   4.607  16.232  0.5573  0.6967  0.2771
14179TIP3    H163952   5.603   4.689  16.270 -1.7439  1.2172  1.1943
14179TIP3    H263953   5.549   4.630  16.141 -0.4734  1.2233  0.6489
14180TIP3   OH263954   1.208   2.044   4.025  0.1010  0.1825 -0.0113
14180TIP3    H163955   1.176   2.110   4.087 -0.5370 -1.0275  0.9877
14180TIP3    H263956   1.136   2.032   3.963 -0.4290 -0.7000  0.7466
14181TIP3   OH263957   5.774   0.465   3.667  0.0712 -0.1446 -0.1079
14181TIP3    H163958   5.808   0.383   3.629 -0.8079 -2.3023  3.2806
14181TIP3    H263959   5.687   0.475   3.629  0.6284 -0.0876 -1.4225
14182TIP3   OH263960   6.183   5.125   5.591  0.2121  0.1311 -0.1879
14182TIP3    H163961   6.108   5.098   5.538 -1.6773  0.1995  2.2942
14182TIP3    H263962   6.193   5.218   5.572 -0.4927  0.1779 -0.3439
14183TIP3   OH263963   2.563   4.867   3.968  0.2601  0.0479  0.0801
14183TIP3    H163964   2.587   4.841   3.879  0.5878  1.8870 -0.4262
14183TIP3    H263965   2.532   4.787   4.010  2.8195 -1.5081 -0.7579
14184TIP3   OH263966   5.628   1.246  16.027 -0.1578  0.6136  0.1108
14184TIP3    H163967   5.629   1.297  15.946 -1.6946  2.1162  0.9593
14184TIP3    H263968   5.570   1.172  16.007 -1.1308  1.3692  0.0105
14185TIP3   OH263969   6.607   5.117   3.646  1.1529  0.0920  0.1715
14185TIP3    H163970   6.603   5.173   3.569  0.9430  0.1114  0.1948
14185TIP3    H263971   6.620   5.177   3.719 -1.3827  0.3748  0.4836
14186TIP3   OH263972   5.923   3.323  11.205  0.1013  0.2534  0.0231
14186TIP3    H163973   5.938   3.295  11.296  3.2075 -0.4717 -0.5990
14186TIP3    H263974   5.909   3.242  11.157  1.5438  0.3445 -0.5909
14187TIP3   OH263975   0.553   1.852  12.902  0.0415 -0.2994  0.3379
14187TIP3    H163976   0.523   1.937  12.870  3.0623  0.5877 -0.4411
14187TIP3    H263977   0.648   1.857  12.899  0.3586 -3.7435  0.2417
14188TIP3   OH263978   5.383   4.171  13.010 -0.2426  0.1879  0.4197
14188TIP3    H163979   5.382   4.084  12.972  0.1450 -0.0942  1.0401
14188TIP3    H263980   5.321   4.221  12.958 -3.8824 -1.5775  2.6509
14189TIP3   OH263981   5.618   0.515  10.586  0.1131  0.2181 -0.3313
14189TIP3    H163982   5.698   0.565  10.570 -1.0663  1.9660 -1.0913
14189TIP3    H263983   5.632   0.473  10.671  1.0968  2.0518  0.4732
14190TIP3   OH263984   4.290   6.208   4.793  0.3940  0.0755  0.4942
14190TIP3    H163985   4.221   6.147   4.819 -0.9928  1.4591  0.2112
14190TIP3    H263986   4.270   6.227   4.701  0.4831  1.3356  0.7242
14191TIP3   OH263987   0.422   5.445   3.966  0.2026 -0.1927 -0.5023
14191TIP3    H163988   0.403   5.519   3.908  0.8970  0.1944 -0.2474
14191TIP3    H263989   0.444   5.486   4.050 -0.2586 -0.7254 -0.1110
14192TIP3   OH263990   1.456   0.026  13.379  0.3691  0.1124 -0.5647
14192TIP3    H163991   1.543   0.047  13.414  0.3769  1.9312 -1.5193
14192TIP3    H263992   1.396   0.047  13.451  0.6483 -0.0071 -0.2948
14193TIP3   OH263993   3.200   4.501   0.924  0.4183  0.1974 -0.5019
14193TIP3    H163994   3.175   4.440   0.854  0.9093  0.2180 -0.6972
14193TIP3    H263995   3.124   4.558   0.934  0.0662 -0.2660 -0.5158
14194TIP3   OH263996   1.656   6.431  10.496  0.0129  0.1917 -0.6714
14194TIP3    H163997   1.586   6.477  10.542 -0.6885  0.9952 -2.4487
14194TIP3    H263998   1.665   6.347  10.542 -0.4585  1.0338  1.0341
14195TIP3   OH263999   3.300   5.543  12.351 -0.8436  0.1150 -0.9236
14195TIP3    H164000   3.381   5.591  12.372 -1.1740  1.2246 -2.0666
14195TIP3    H264001   3.323   5.452  12.366 -0.2168  0.5913  1.4129
14196TIP3   OH264002   0.121   4.951   2.908  0.1587  0.1556 -0.1261
14196TIP3    H164003   0.201   4.995   2.938  0.1060  1.2557 -1.4930
14196TIP3    H264004   0.061   5.023   2.887 -1.0244 -0.6466  0.3939
14197TIP3   OH264005   4.733   5.534   2.654 -0.2918 -0.3656  0.2929
14197TIP3    H164006   4.669   5.491   2.711  1.3102 -1.3187  1.4408
14197TIP3    H264007   4.720   5.628   2.670  0.1375 -0.6104  2.2743
14198TIP3   OH264008   6.674   0.077   0.679  0.0377 -0.4709  0.1809
14198TIP3    H164009   6.602   0.069   0.617 -0.0375  1.4679 -0.0202
14198TIP3    H264010   6.746   0.028   0.639 -0.6198 -0.9260 -0.4674
14199TIP3   OH264011   4.218   5.638  11.531 -0.2314  0.6105  0.6240
14199TIP3    H164012   4.286   5.700  11.554 -0.6401  0.6990  1.6099
14199TIP3    H264013   4.145   5.692  11.499 -1.1918  0.7952  2.9674
14200TIP3   OH264014   4.489   2.375   5.761 -0.3602 -0.1041 -0.0594
14200TIP3    H164015   4.514   2.453   5.811 -1.9080 -0.1069  0.7735
14200TIP3    H264016   4.543   2.379   5.683  2.4291 -0.2825  1.7203
14201TIP3   OH264017   3.268   4.063  15.732  0.0246 -0.8473 -0.4760
14201TIP3    H164018   3.199   4.089  15.669 -0.4216  1.1781  0.7388
14201TIP3    H264019   3.241   3.976  15.762 -0.4939 -1.2703 -2.0515
14202TIP3   OH264020   3.522   1.297   2.038  0.0492  0.0916 -0.3428
14202TIP3    H164021   3.480   1.361   2.096  2.0717  2.4597 -1.2836
14202TIP3    H264022   3.468   1.297   1.959 -0.7372 -0.4678  0.1783
14203TIP3   OH264023   2.210   1.966   2.037 -0.2267  0.0011 -0.6704
14203TIP3    H164024   2.299   2.001   2.040  0.3423 -1.4061  0.2423
14203TIP3    H264025   2.222   1.874   2.014 -1.6335  0.2584 -2.6328
14204TIP3   OH264026   6.135   3.179   0.531 -0.3822  0.2321  0.1269
14204TIP3    H164027   6.212   3.169   0.476 -0.8913 -1.0691 -0.3851
14204TIP3    H264028   6.170   3.211   0.615  0.7443 -0.5333 -0.0247
14205TIP3   OH264029   1.246   3.334  15.458  0.2348 -0.6751 -0.6022
14205TIP3    H164030   1.335   3.360  15.434 -0.6639  1.3296 -2.1043
14205TIP3    H264031   1.202   3.416  15.479 -1.4897 -1.5220 -0.7220
14206TIP3   OH264032   1.172   1.916   1.424 -0.1993  0.1076  0.0849
14206TIP3    H164033   1.161   1.973   1.348 -2.0686 -1.0733 -0.5982
14206TIP3    H264034   1.228   1.845   1.392  0.0113  0.2396  0.1636
14207TIP3   OH264035   6.791   6.399  16.014 -0.2483 -0.5500 -0.2544
14207TIP3    H164036   6.810   6.431  16.103 -1.9647 -0.2749  0.0494
14207TIP3    H264037   6.857   6.442  15.959 -1.4040  2.2911  0.3801
14208TIP3   OH264038   4.670   2.392  13.509 -0.0447  0.2538  0.0857
14208TIP3    H164039   4.576   2.391  13.526 -0.4379  0.8276 -1.7565
14208TIP3    H264040   4.710   2.356  13.588 -1.9089 -1.5178  0.3082
14209TIP3   OH264041   2.302   4.040   5.989 -0.0439 -0.2095  0.4083
14209TIP3    H164042   2.241   4.070   6.056 -0.5628  1.2752 -0.6853
14209TIP3    H264043   2.389   4.060   6.024 -0.3399  1.5606  0.2038
14210TIP3   OH264044   3.613   1.394   5.742  0.0151  0.3316 -0.4818
14210TIP3    H164045   3.608   1.478   5.788 -0.7894 -0.7602  1.5596
14210TIP3    H264046   3.535   1.347   5.770  0.1495 -0.9115 -2.0438
14211TIP3   OH264047   3.717   5.310   0.854 -0.1511  0.3077  0.1475
14211TIP3    H164048   3.655   5.379   0.880  0.4632  0.6285  0.7807
14211TIP3    H264049   3.769   5.350   0.785  1.4151  1.1556  1.7320
14212TIP3   OH264050   6.603   6.460  10.141  0.2561  0.8957  0.1958
14212TIP3    H164051   6.564   6.511  10.212  0.9250 -0.1423  1.3512
14212TIP3    H264052   6.551   6.380  10.137 -0.4336  1.3846 -1.2219
14213TIP3   OH264053   4.021   3.493   1.304  0.1871  0.2719 -0.5760
14213TIP3    H164054   4.048   3.535   1.222 -0.0816  1.0304 -0.2893
14213TIP3    H264055   4.024   3.399   1.285 -0.8952  0.4488 -1.7805
14214TIP3   OH264056   2.895   5.741   4.898 -0.6520 -0.2732  0.1905
14214TIP3    H164057   2.820   5.731   4.840 -0.3406  1.2783 -0.5354
14214TIP3    H264058   2.953   5.668   4.876 -0.6174  0.1863 -1.3391
14215TIP3   OH264059   5.885   1.004   3.561  0.3738  0.0860  0.0315
14215TIP3    H164060   5.871   0.940   3.631  1.5099  0.9240  1.0436
14215TIP3    H264061   5.858   0.957   3.481 -0.6377 -0.9885  0.9634
14216TIP3   OH264062   1.022   4.791   3.579  0.5740 -0.1608  0.1721
14216TIP3    H164063   1.027   4.887   3.581  2.8944 -0.2114 -0.2475
14216TIP3    H264064   0.966   4.771   3.504  0.0402  0.8485  0.2808
14217TIP3   OH264065   5.532   5.347  12.476  0.2546  0.2197  0.0461
14217TIP3    H164066   5.517   5.430  12.520 -1.6179 -1.2214  2.3818
14217TIP3    H264067   5.446   5.307  12.468  1.1607 -1.8457 -0.2536
14218TIP3   OH264068   3.704   5.201  12.320 -0.8459 -0.0286 -0.0443
14218TIP3    H164069   3.757   5.155  12.255  1.0425  1.9462 -0.0298
14218TIP3    H264070   3.665   5.132  12.373 -0.4205 -1.6360 -1.6977
14219TIP3   OH264071   3.068   5.685   2.015 -0.7876  0.9199 -0.0951
14219TIP3    H164072   3.157   5.716   2.032  0.1328 -0.9542 -1.1985
14219TIP3    H264073   3.031   5.671   2.102  0.4653  0.4865  0.3929
14220TIP3   OH264074   4.945   1.686  14.393  0.2328 -0.4799  0.1525
14220TIP3    H164075   4.929   1.752  14.325 -0.4345  1.1850  1.8348
14220TIP3    H264076   5.013   1.630  14.356  0.8755  1.1871 -1.3546
14221TIP3   OH264077   0.011   2.730  15.392 -0.1672 -0.3300 -0.2714
14221TIP3    H164078   0.060   2.651  15.369 -1.5624 -1.1889 -0.3676
14221TIP3    H264079   0.003   2.725  15.488  2.2722  1.2537  0.1138
14222TIP3   OH264080   0.717   3.195  15.110 -0.6055  0.1338  0.4526
14222TIP3    H164081   0.700   3.274  15.060  1.2528 -0.3457 -1.0349
14222TIP3    H264082   0.705   3.221  15.201  0.5762  2.3054  0.0443
14223TIP3   OH264083   5.327   3.968   0.040 -0.5445  0.3742  0.6901
14223TIP3    H164084   5.358   3.890   0.085 -0.9050 -0.2792 -0.1749
14223TIP3    H264085   5.405   4.004  -0.002  0.2699  2.1712  3.4271
14224TIP3   OH264086   1.821   4.454   2.689  0.1467 -0.0579  0.0966
14224TIP3    H164087   1.850   4.364   2.704  1.0505  0.5652  2.5591
14224TIP3    H264088   1.836   4.498   2.773 -1.5040  2.0691 -0.6427
14225TIP3   OH264089   0.950   1.037  14.219 -0.6916 -0.0420 -0.6128
14225TIP3    H164090   0.927   0.947  14.194  2.9767 -1.0679 -1.0140
14225TIP3    H264091   0.948   1.086  14.137 -1.3036 -0.1087 -0.6411
14226TIP3   OH264092   2.234   4.168   3.535 -0.3329  0.9651  0.9136
14226TIP3    H164093   2.287   4.179   3.456 -0.8124  3.7676  0.8831
14226TIP3    H264094   2.294   4.186   3.607 -0.6917  2.0486  0.9700
14227TIP3   OH264095   5.556   5.366  15.965  0.5091  0.0365  0.6783
14227TIP3    H164096   5.582   5.450  16.003 -1.7987  0.7882  0.7433
14227TIP3    H264097   5.537   5.310  16.040  1.9505 -0.5558  0.6341
14228TIP3   OH264098   1.568   4.702   3.707  0.2433  0.5505 -0.0643
14228TIP3    H164099   1.506   4.775   3.713 -1.0876 -0.6105  1.5440
14228TIP3    H264100   1.541   4.655   3.628 -0.2211  0.6559  0.0289
14229TIP3   OH264101   3.724   6.787  15.641  0.4685  0.5890  0.0696
14229TIP3    H164102   3.795   6.835  15.598  0.8364  0.4308  0.4900
14229TIP3    H264103   3.769   6.720  15.693 -0.0278  0.0539 -0.1967
14230TIP3   OH264104   6.513   4.487   5.713 -0.1833 -0.2290 -0.1755
14230TIP3    H164105   6.494   4.402   5.673 -2.3007  0.5320 -0.8992
14230TIP3    H264106   6.493   4.476   5.805 -1.1125 -0.3607 -0.3820
14231TIP3   OH264107   1.873   1.174  13.752 -0.2291  0.3542  0.0507
14231TIP3    H164108   1.954   1.219  13.777  0.7856 -1.2910 -0.0851
14231TIP3    H264109   1.889   1.144  13.663 -0.8413 -0.3030  0.1494
14232TIP3   OH264110   5.906   6.037  16.827  0.1284 -0.0118  0.1698
14232TIP3    H164111   5.903   6.094  16.751 -0.8456 -0.6459 -0.2971
14232TIP3    H264112   5.994   6.048  16.863  1.0224 -0.5935 -1.7363
14233TIP3   OH264113   1.011   2.824   1.921 -0.3381  0.1619 -0.1245
14233TIP3    H164114   0.959   2.904   1.917 -0.4449  0.2782  2.2328
14233TIP3    H264115   1.092   2.851   1.965 -0.2173 -0.9472  0.3616
14234TIP3   OH264116   4.583   1.545   1.076  0.1899 -0.0091  0.0101
14234TIP3    H164117   4.583   1.461   1.121 -0.8410  0.7821  1.5825
14234TIP3    H264118   4.665   1.546   1.027  0.5151 -1.6573  0.4626
14235TIP3   OH264119   3.798   5.749  12.139  0.0342 -0.0228 -0.1188
14235TIP3    H164120   3.801   5.759  12.044 -2.9476 -0.0333 -0.2949
14235TIP3    H264121   3.819   5.836  12.172  2.6310 -0.3670 -0.6593
14236TIP3   OH264122   4.766   4.647   1.356  0.3038  0.4753  0.3481
14236TIP3    H164123   4.723   4.561   1.353  0.5978  0.3558 -0.5102
14236TIP3    H264124   4.729   4.695   1.282 -1.0776  1.6929  1.7484
14237TIP3   OH264125   1.759   0.722  12.343 -0.7041 -0.4240 -0.1725
14237TIP3    H164126   1.787   0.633  12.325  0.2102 -0.2126  0.1292
14237TIP3    H264127   1.834   0.762  12.388  0.2061  1.4609 -3.0966
14238TIP3   OH264128   5.948   5.422  14.009 -0.0564  0.1573 -0.0409
14238TIP3    H164129   5.997   5.477  14.070 -0.2398  1.1369 -0.7603
14238TIP3    H264130   5.858   5.428  14.039  0.2238 -1.6526  1.2893
14239TIP3   OH264131   3.751   4.889   5.611 -0.2976  0.0135 -0.1609
14239TIP3    H164132   3.754   4.795   5.598  1.1737  0.0677 -0.4689
14239TIP3    H264133   3.662   4.915   5.586 -0.2069 -1.0718 -1.7107
14240TIP3   OH264134   0.962   3.858  16.227  0.2130 -0.5386 -0.7258
14240TIP3    H164135   0.882   3.876  16.177 -0.0436 -0.4798 -0.2992
14240TIP3    H264136   1.033   3.879  16.167 -0.0900 -0.1522 -0.9526
14241TIP3   OH264137   5.907   1.197  11.657  0.0712 -0.4304 -0.5765
14241TIP3    H164138   5.880   1.275  11.706  2.3093 -0.6565  1.2121
14241TIP3    H264139   5.839   1.185  11.591 -1.1972  2.0581  0.1511
14242TIP3   OH264140   5.951   0.573  12.396  0.5693 -0.1004 -0.1189
14242TIP3    H164141   6.024   0.511  12.397 -0.0124 -0.7929  0.6572
14242TIP3    H264142   5.879   0.526  12.439  0.1770  1.1942  0.6708
14243TIP3   OH264143   0.204   2.719   4.891 -0.4175  0.2383 -0.0637
14243TIP3    H164144   0.183   2.631   4.922  0.5350 -0.0154 -0.1080
14243TIP3    H264145   0.248   2.705   4.808 -1.4971  0.8424 -0.7668
14244TIP3   OH264146   5.242   1.891   3.053 -0.2492  0.2349 -0.2890
14244TIP3    H164147   5.334   1.906   3.074 -0.5671 -0.8570  2.1558
14244TIP3    H264148   5.240   1.801   3.021 -0.1863  1.0344 -2.8341
14245TIP3   OH264149   2.653   3.327  12.539 -0.3490  0.6965 -0.5026
14245TIP3    H164150   2.709   3.361  12.469  0.3831 -0.3319 -0.4427
14245TIP3    H264151   2.670   3.233  12.539 -0.9928  0.5700  0.4928
14246TIP3   OH264152   5.624   4.971  13.920 -0.6368  0.2781  0.1092
14246TIP3    H164153   5.583   5.056  13.934  0.3804  0.7867  0.0877
14246TIP3    H264154   5.556   4.907  13.944 -1.6553  1.0772 -0.5696
14247TIP3   OH264155   4.233   2.693   3.819 -0.5387  0.2678 -0.1496
14247TIP3    H164156   4.237   2.770   3.877 -1.6136  1.0713 -1.0864
14247TIP3    H264157   4.205   2.729   3.735 -0.9501 -1.1498 -0.6366
14248TIP3   OH264158   4.414   3.929   5.666 -0.5149 -0.5477  0.6808
14248TIP3    H164159   4.424   3.834   5.671 -0.5885 -0.7038 -1.2831
14248TIP3    H264160   4.501   3.964   5.685  0.4643 -1.2245 -2.0529
14249TIP3   OH264161   6.217   5.856  15.273 -0.6915 -0.5086 -0.1771
14249TIP3    H164162   6.167   5.833  15.194 -2.5478  1.2167  0.3918
14249TIP3    H264163   6.245   5.946  15.258  1.5902 -1.1472 -0.0836
14250TIP3   OH264164   5.434   0.329  10.733  0.0003 -0.4903  0.7195
14250TIP3    H164165   5.443   0.396  10.665  1.4532 -0.3199  1.0494
14250TIP3    H264166   5.397   0.253  10.688  0.3028 -0.1477 -0.1211
14251TIP3   OH264167   2.976   4.141  11.793  0.3071 -0.4042 -0.6628
14251TIP3    H164168   3.004   4.175  11.878  2.7868  0.8367 -1.8714
14251TIP3    H264169   2.961   4.048  11.808  0.0332 -0.0987  1.2451
14252TIP3   OH264170   3.962   3.942   3.113  0.6309  0.2646 -0.2278
14252TIP3    H164171   4.032   3.991   3.155 -0.3550  0.4351  1.3027
14252TIP3    H264172   3.893   4.006   3.098  0.0553 -0.2764  0.0695
14253TIP3   OH264173   4.947   4.268   1.298  0.2592  0.6870  0.2209
14253TIP3    H164174   4.967   4.218   1.219 -1.3310 -0.3630  0.4403
14253TIP3    H264175   5.032   4.294   1.333  1.0131  0.4758 -1.3852
14254TIP3   OH264176   2.778   3.202   0.444 -0.7324 -0.0640 -0.2783
14254TIP3    H164177   2.761   3.292   0.472 -0.5138  0.2323 -1.0984
14254TIP3    H264178   2.874   3.193   0.449 -0.8749 -1.3332  3.0983
14255TIP3   OH264179   1.208   3.634  14.648  0.1388 -0.6639 -0.0661
14255TIP3    H164180   1.218   3.569  14.578 -1.1474 -1.0405  0.0836
14255TIP3    H264181   1.144   3.696  14.615 -0.1967 -0.6348  0.6241
14256TIP3   OH264182   1.816   0.987  16.117 -0.2869  0.0579  0.1278
14256TIP3    H164183   1.901   1.032  16.122 -0.3005  0.0497  0.4562
14256TIP3    H264184   1.811   0.956  16.027  0.8811 -1.5415  0.5561
14257TIP3   OH264185   1.197   0.181   2.837  0.1423  0.5061 -0.2382
14257TIP3    H164186   1.142   0.187   2.759 -0.5248 -1.4003  0.0473
14257TIP3    H264187   1.273   0.129   2.809 -0.3639 -0.6725  0.4776
14258TIP3   OH264188   5.276   5.313  12.467 -0.5398 -0.2843  0.0708
14258TIP3    H164189   5.248   5.224  12.445 -2.2583 -0.2059  1.6781
14258TIP3    H264190   5.220   5.370  12.415 -0.0846 -0.1341 -0.2574
14259TIP3   OH264191   6.458   4.420  12.891  1.2420 -0.2423  0.7284
14259TIP3    H164192   6.407   4.383  12.818 -1.7194 -0.7975  2.9048
14259TIP3    H264193   6.496   4.344  12.935  0.3788 -0.1977  1.5696
14260TIP3   OH264194   4.110   0.693  13.414 -0.3467 -0.2758 -0.2335
14260TIP3    H164195   4.083   0.723  13.328  1.6891  0.3129 -0.7322
14260TIP3    H264196   4.080   0.761  13.474  0.4399  0.6216 -0.8273
14261TIP3   OH264197   5.756   2.234   4.273 -0.1746  0.1768 -0.0327
14261TIP3    H164198   5.763   2.167   4.205  0.4617  0.0879  0.1114
14261TIP3    H264199   5.777   2.316   4.227  0.0970  0.1370  0.0158
14262TIP3   OH264200   2.323   2.799  11.359 -0.2699 -0.6076  0.4752
14262TIP3    H164201   2.277   2.825  11.439 -0.6664 -0.6407  0.2649
14262TIP3    H264202   2.322   2.878  11.304  2.2664  0.2120  1.4921
14263TIP3   OH264203   5.023   2.869   3.287  0.9052  0.1575  0.1157
14263TIP3    H164204   4.948   2.858   3.345  0.4779  1.4259 -0.1524
14263TIP3    H264205   5.056   2.780   3.273 -1.0967 -0.5512 -0.4752
14264TIP3   OH264206   0.955   0.743   5.521  0.2542  0.2043 -0.6500
14264TIP3    H164207   1.020   0.690   5.566 -1.2744 -0.0960  1.3557
14264TIP3    H264208   0.990   0.832   5.525  1.3805 -0.1823 -1.2964
14265TIP3   OH264209   2.685   0.875  10.433  0.4243 -0.3081  0.1574
14265TIP3    H164210   2.714   0.835  10.351 -0.0980  0.3095 -0.3346
14265TIP3    H264211   2.704   0.808  10.499 -0.2808 -1.3312 -0.6234
14266TIP3   OH264212   5.267   4.272  12.757  0.1229  0.0799  0.8232
14266TIP3    H164213   5.182   4.309  12.733  0.4406 -0.9190 -2.2706
14266TIP3    H264214   5.253   4.178  12.756  1.3884 -0.1356 -0.6037
14267TIP3   OH264215   0.520   6.062   5.615  0.1765 -0.3277  0.0481
14267TIP3    H164216   0.426   6.071   5.629  0.2850 -0.4722  0.8814
14267TIP3    H264217   0.561   6.115   5.683  0.6990  0.0662 -0.5639
14268TIP3   OH264218   5.994   5.228   4.722  0.4579 -0.4836 -0.2961
14268TIP3    H164219   6.022   5.264   4.638 -0.1725 -1.1713 -0.8183
14268TIP3    H264220   6.026   5.138   4.722  0.1640 -0.5910  0.0580
14269TIP3   OH264221   0.627   0.034   5.593 -0.0956 -0.0424 -0.1510
14269TIP3    H164222   0.709   0.018   5.547 -1.6095 -0.7669 -2.7914
14269TIP3    H264223   0.596   0.118   5.559 -0.5487  0.1702  0.7413
14270TIP3   OH264224   1.994   0.113  17.061  0.1395  0.5685  0.0544
14270TIP3    H164225   1.957   0.179  17.119 -0.7330 -1.8516  2.4595
14270TIP3    H264226   2.088   0.133  17.058  0.5153  0.0298  3.5985
14271TIP3   OH264227   1.668   4.426   4.338  0.0791  0.2227  0.5966
14271TIP3    H164228   1.734   4.443   4.270 -1.6806  1.8568 -0.7984
14271TIP3    H264229   1.678   4.333   4.359  0.0877 -0.5903 -2.6110
14272TIP3   OH264230   3.004   2.601   1.490  0.3088  0.2620  0.4988
14272TIP3    H164231   3.014   2.618   1.397  0.0344  1.3325  0.6521
14272TIP3    H264232   2.960   2.679   1.524 -0.9339 -0.7415  1.2685
14273TIP3   OH264233   3.715   1.443   1.771  0.1369  0.6628 -0.2677
14273TIP3    H164234   3.755   1.479   1.851 -0.0863 -1.5781  0.9268
14273TIP3    H264235   3.732   1.509   1.704  0.9783  2.2964  1.4533
14274TIP3   OH264236   3.379   0.966  12.644 -0.2336 -0.1235 -0.3626
14274TIP3    H164237   3.374   0.961  12.739 -2.0015  3.2796 -0.1267
14274TIP3    H264238   3.302   0.918  12.613  0.0581 -0.7872 -0.0715
14275TIP3   OH264239   6.798   1.683  14.212 -0.5033  0.2635 -0.0434
14275TIP3    H164240   6.719   1.712  14.168  0.2620  1.2640 -0.8048
14275TIP3    H264241   6.870   1.711  14.155  0.3551 -3.0872 -0.8369
14276TIP3   OH264242   0.679   1.248  14.775  0.4300 -0.6067 -0.5104
14276TIP3    H164243   0.745   1.305  14.736  0.5643 -0.5628 -0.2192
14276TIP3    H264244   0.729   1.186  14.829  0.2751 -0.9174 -0.7198
14277TIP3   OH264245   2.325   3.701  12.968  0.0117 -0.1191  0.9224
14277TIP3    H164246   2.309   3.705  13.063  1.6641  0.5181  1.2258
14277TIP3    H264247   2.394   3.635  12.959 -0.4828 -0.5383  0.0885
14278TIP3   OH264248   3.279   3.982   0.003  0.5129 -0.1929  0.1353
14278TIP3    H164249   3.354   3.931  -0.029 -0.7167 -1.1536 -1.3571
14278TIP3    H264250   3.319   4.057   0.047  2.3708  0.1054 -1.8406
14279TIP3   OH264251   1.579   4.838  11.248 -0.2549  0.6595  0.4354
14279TIP3    H164252   1.626   4.911  11.207 -1.1651  1.9186  1.5384
14279TIP3    H264253   1.513   4.880  11.303 -0.9367 -1.0182  0.9642
14280TIP3   OH264254   5.679   5.870  16.746 -0.7209  0.6242 -0.0933
14280TIP3    H164255   5.631   5.828  16.818  0.6682 -2.3582 -0.7413
14280TIP3    H264256   5.746   5.923  16.790 -0.9337  0.1646  0.8155
14281TIP3   OH264257   5.566   1.813  12.282 -0.2527 -0.5487 -0.2563
14281TIP3    H164258   5.513   1.850  12.352 -0.2166  0.4877 -0.7671
14281TIP3    H264259   5.652   1.855  12.291 -0.9368  1.4918 -2.3929
14282TIP3   OH264260   6.141   2.620  14.803 -0.1225  0.0777 -0.7871
14282TIP3    H164261   6.206   2.554  14.782 -0.0762  0.2703 -1.2562
14282TIP3    H264262   6.189   2.703  14.805  0.0606 -0.0450  1.0394
14283TIP3   OH264263   5.167   2.399  15.748 -0.3754 -0.4151  0.2301
14283TIP3    H164264   5.178   2.461  15.676 -0.8063 -0.5100  0.0764
14283TIP3    H264265   5.197   2.446  15.826  0.3845 -0.4214 -0.0575
14284TIP3   OH264266   5.184   5.425  13.442 -0.2001  0.0339  0.0924
14284TIP3    H164267   5.206   5.378  13.361  0.5198  2.0137 -0.9592
14284TIP3    H264268   5.269   5.439  13.485 -0.5078 -0.4263  0.8460
14285TIP3   OH264269   4.774   1.275   3.256 -0.4785  0.6792 -0.4540
14285TIP3    H164270   4.784   1.358   3.303 -0.1650  1.3881 -1.7201
14285TIP3    H264271   4.738   1.215   3.321 -1.1327  1.9253  0.3769
14286TIP3   OH264272   2.310   1.261  11.130 -0.6655 -0.1713  0.1133
14286TIP3    H164273   2.342   1.281  11.218 -1.2211  4.0899 -0.4785
14286TIP3    H264274   2.376   1.299  11.072  0.1711 -3.6795 -1.5262
14287TIP3   OH264275   0.234   6.059   0.619 -0.1401  0.1577 -0.2485
14287TIP3    H164276   0.214   6.114   0.544  0.6751  1.4076  0.4203
14287TIP3    H264277   0.306   6.003   0.589 -0.2250  0.2286 -0.5855
14288TIP3   OH264278   6.382   2.169  12.014  0.3067  0.0362  0.2594
14288TIP3    H164279   6.332   2.099  12.056 -0.6780  1.5203  1.7057
14288TIP3    H264280   6.456   2.185  12.073  0.0812  0.7276  0.3682
14289TIP3   OH264281   2.531   2.378   1.574  0.3326 -0.3842 -0.0390
14289TIP3    H164282   2.560   2.366   1.665 -1.0299 -1.6938  0.2702
14289TIP3    H264283   2.611   2.381   1.523  1.0949 -0.6453  1.1004
14290TIP3   OH264284   3.233   0.990  13.645 -0.0622 -0.2651  0.2978
14290TIP3    H164285   3.144   1.024  13.632  0.3185  0.8756  0.5152
14290TIP3    H264286   3.239   0.915  13.587 -0.7485  0.4409 -0.7235
14291TIP3   OH264287   0.015   0.687  13.610  0.4240 -0.4635 -0.2046
14291TIP3    H164288   0.078   0.643  13.553  1.6762 -0.6446  1.2436
14291TIP3    H264289   0.067   0.748  13.662 -0.8118  0.3747  0.1042
14292TIP3   OH264290   0.051   2.935   5.383  0.2161  0.0303 -0.1883
14292TIP3    H164291  -0.006   2.861   5.403 -1.1000  0.6091 -1.6210
14292TIP3    H264292  -0.000   3.013   5.407  1.2398  0.5310  0.4780
14293TIP3   OH264293   4.371   4.553  15.605  0.4706 -0.4313  0.9851
14293TIP3    H164294   4.348   4.618  15.538 -1.4230 -1.5687  0.4633
14293TIP3    H264295   4.380   4.604  15.685  0.2133  0.6237  0.3635
14294TIP3   OH264296   4.169   2.503   4.313 -0.4711 -0.1114 -0.2470
14294TIP3    H164297   4.150   2.505   4.219 -0.2024  1.1498 -0.2975
14294TIP3    H264298   4.089   2.536   4.354  0.7742  3.4812 -0.3511
14295TIP3   OH264299   5.146   1.013   5.210  0.7990  0.2803 -0.1481
14295TIP3    H164300   5.093   0.960   5.269  0.4997 -0.8952 -1.4324
14295TIP3    H264301   5.235   0.982   5.223  0.8084  0.3806  0.0389
14296TIP3   OH264302   5.662   4.176   1.523  0.0778  0.4338 -0.3573
14296TIP3    H164303   5.611   4.095   1.517 -2.0792  1.6095  0.7720
14296TIP3    H264304   5.747   4.149   1.558  0.1400 -1.5506 -1.8628
14297TIP3   OH264305   3.745   3.433   4.617  0.0968  0.5343 -0.1691
14297TIP3    H164306   3.838   3.418   4.634 -0.2470 -2.9776 -0.6845
14297TIP3    H264307   3.703   3.424   4.702 -0.1390 -2.5777 -0.5045
14298TIP3   OH264308   1.069   4.011  15.068 -0.5880  0.0112  0.3026
14298TIP3    H164309   1.056   3.932  15.017 -2.4609 -0.1222  0.9021
14298TIP3    H264310   1.031   4.081  15.015 -1.6044  0.0224  0.9913
14299TIP3   OH264311   1.471   4.432  16.018  0.3561  0.0492 -0.4039
14299TIP3    H164312   1.473   4.516  15.972 -0.5625  0.1976 -0.2148
14299TIP3    H264313   1.553   4.429  16.067  0.9086  0.3179 -1.2999
14300TIP3   OH264314   2.470   4.976   2.832  0.7699 -0.5467  0.7958
14300TIP3    H164315   2.464   5.045   2.767  0.8491 -1.7713 -0.5618
14300TIP3    H264316   2.504   4.900   2.784  0.3996 -1.6192  2.1538
14301TIP3   OH264317   3.399   4.544  14.018 -0.3520  0.2608 -0.3719
14301TIP3    H164318   3.458   4.470  14.007 -0.8426 -0.5198  1.8265
14301TIP3    H264319   3.417   4.577  14.106 -3.1086  0.0202  0.3734
14302TIP3   OH264320   0.124   2.054   4.748  0.1019  0.0179  0.1320
14302TIP3    H164321   0.068   2.072   4.823  2.1351  1.0561  1.5191
14302TIP3    H264322   0.213   2.066   4.781  1.0953  1.3440 -2.6334
14303TIP3   OH264323   2.485   0.848  14.949 -0.8328 -0.1626  0.0950
14303TIP3    H164324   2.469   0.787  15.022  0.6604  0.1472  0.7277
14303TIP3    H264325   2.579   0.867  14.954 -1.2113  2.1019 -0.1496
14304TIP3   OH264326   3.918   2.100   5.290 -0.0192  0.0796 -0.1445
14304TIP3    H164327   3.831   2.102   5.251  0.1767  0.1495 -0.5955
14304TIP3    H264328   3.968   2.041   5.233  0.4608  0.7213 -0.4101
14305TIP3   OH264329   4.735   1.133  15.631  0.3107 -0.2545  0.0690
14305TIP3    H164330   4.786   1.109  15.708  2.4722  1.3038 -0.7684
14305TIP3    H264331   4.718   1.226  15.642 -2.1367 -0.6375  0.1153
14306TIP3   OH264332   2.395   6.535  14.548 -0.1862 -0.2667  0.5832
14306TIP3    H164333   2.449   6.569  14.477 -0.1009 -0.1747  0.6904
14306TIP3    H264334   2.324   6.600  14.557 -0.4596 -0.5193  0.2699
14307TIP3   OH264335   1.485   3.418  11.795 -0.0296  0.8272  0.0854
14307TIP3    H164336   1.453   3.424  11.885  0.7730  1.3278  0.3480
14307TIP3    H264337   1.429   3.352  11.754 -1.6272  1.9119  0.4111
14308TIP3   OH264338   5.345   1.275  11.821  0.8020 -0.4706  0.0249
14308TIP3    H164339   5.349   1.255  11.914 -0.3505 -0.5013  0.0780
14308TIP3    H264340   5.415   1.221  11.782  0.8232 -0.9966  0.7683
14309TIP3   OH264341   5.237   0.746  15.150  0.2038 -0.3152  0.0814
14309TIP3    H164342   5.217   0.669  15.098  0.7341 -0.5816  0.2722
14309TIP3    H264343   5.294   0.715  15.220  1.8249  0.5364 -0.8025
14310TIP3   OH264344   5.148   4.297   4.163  0.3693  0.0886  0.1402
14310TIP3    H164345   5.239   4.267   4.156  0.8130  1.5291 -0.5706
14310TIP3    H264346   5.102   4.223   4.202  1.7806 -0.7943  0.2111
14311TIP3   OH264347   5.738   6.059  13.986  0.1455  0.0764  0.0944
14311TIP3    H164348   5.708   6.112  13.913 -0.6429  0.1950  0.4891
14311TIP3    H264349   5.715   5.969  13.961  1.4792 -0.0931 -0.5730
14312TIP3   OH264350   0.177   4.038   4.111  0.1454  0.1840  0.5526
14312TIP3    H164351   0.209   4.066   4.197  1.8133 -0.8896  0.3288
14312TIP3    H264352   0.222   4.094   4.049 -0.1163  0.1427  0.3255
14313TIP3   OH264353   1.942   4.330  14.295 -0.0739 -0.0497 -0.2694
14313TIP3    H164354   2.016   4.296  14.244 -0.3118  0.4863 -0.9876
14313TIP3    H264355   1.874   4.349  14.230  0.2975  2.4779 -0.0142
14314TIP3   OH264356   3.018   5.269  12.639 -0.1104 -0.0060 -0.2740
14314TIP3    H164357   3.033   5.352  12.592 -1.7191 -0.0204 -0.8558
14314TIP3    H264358   2.923   5.262  12.646  0.0259  0.0652  3.1924
14315TIP3   OH264359   0.140   6.798   0.757  0.5483 -0.2773  0.3699
14315TIP3    H164360   0.166   6.878   0.804  0.5390 -0.8057  1.3052
14315TIP3    H264361   0.166   6.814   0.667  0.7722  0.6870  0.5883
14316TIP3   OH264362   1.047   5.127   4.761 -0.2162  0.1295  0.3260
14316TIP3    H164363   1.118   5.063   4.765 -2.1178 -2.3102 -1.4633
14316TIP3    H264364   1.053   5.165   4.674 -0.5997  0.4870  0.4514
14317TIP3   OH264365   2.656   4.282   0.115 -0.1921 -0.1973  0.0140
14317TIP3    H164366   2.624   4.214   0.173 -0.9732 -0.8906 -1.1792
14317TIP3    H264367   2.582   4.342   0.105  0.6183  1.0911  1.3826
14318TIP3   OH264368   4.209   3.610  14.914 -0.4911  0.6171 -0.2862
14318TIP3    H164369   4.123   3.594  14.875  1.1325 -1.7462 -3.3145
14318TIP3    H264370   4.223   3.535  14.973 -0.0572  0.3690 -0.7003
14319TIP3   OH264371   5.872   6.465  15.740  0.1421  0.1424 -0.0839
14319TIP3    H164372   5.809   6.412  15.692  1.0628  0.0977 -1.2860
14319TIP3    H264373   5.920   6.402  15.794  0.1958 -0.0376 -0.3419
14320TIP3   OH264374   3.006   0.058   6.540 -0.3686 -0.1189 -0.1862
14320TIP3    H164375   2.944   0.112   6.589 -0.4128 -1.4113  1.2476
14320TIP3    H264376   2.951   0.005   6.482 -0.4869 -0.1114 -0.0815
14321TIP3   OH264377   2.388   5.598   0.197 -0.2324  0.1504 -0.2441
14321TIP3    H164378   2.430   5.538   0.136  2.4876  1.1918  0.4664
14321TIP3    H264379   2.404   5.685   0.160 -1.3921  0.6142  0.3052
14322TIP3   OH264380   5.864   0.073   4.922 -0.1487 -0.4157 -0.2675
14322TIP3    H164381   5.779   0.035   4.945 -0.3820  0.8147  1.0237
14322TIP3    H264382   5.843   0.142   4.859  0.1018 -1.2749 -1.3214
14323TIP3   OH264383   6.347   4.277   2.719  0.3859  0.2392  0.3209
14323TIP3    H164384   6.394   4.196   2.699 -1.1950 -0.4268 -0.9957
14323TIP3    H264385   6.275   4.250   2.776 -0.4631  0.5703 -0.5440
14324TIP3   OH264386   4.743   1.999  12.076 -0.3527  0.2488 -0.0492
14324TIP3    H164387   4.836   1.994  12.052 -0.7913 -0.9989 -1.5682
14324TIP3    H264388   4.708   2.070  12.022 -0.9712 -1.4679 -2.0186
14325TIP3   OH264389   2.482   2.698   4.230 -0.5307 -0.1542  0.4875
14325TIP3    H164390   2.482   2.731   4.141 -1.6638  0.3668  0.6647
14325TIP3    H264391   2.541   2.756   4.278 -0.7950  0.2579  0.3163
14326TIP3   OH264392   0.248   2.647   5.542 -0.5987  0.6361  0.2834
14326TIP3    H164393   0.291   2.575   5.496 -0.2230  0.8684  0.2644
14326TIP3    H264394   0.207   2.699   5.472 -2.1909 -0.3791  0.3954
14327TIP3   OH264395   2.525   6.722   2.901 -0.4385 -0.5786 -0.1870
14327TIP3    H164396   2.436   6.745   2.928 -0.4225 -0.0456 -0.5685
14327TIP3    H264397   2.524   6.626   2.893 -0.9616 -0.5786 -0.1259
14328TIP3   OH264398   3.716   2.454  16.742 -0.8655  0.0401  0.8229
14328TIP3    H164399   3.700   2.494  16.828 -2.2564 -4.2174  2.8195
14328TIP3    H264400   3.690   2.363  16.753  1.4909 -1.4110 -3.4224
14329TIP3   OH264401   3.790   1.999  12.243 -0.2571  0.9657  1.0349
14329TIP3    H164402   3.731   1.976  12.171  0.1491  3.0853 -0.0268
14329TIP3    H264403   3.877   2.003  12.203  0.4167 -0.4009  2.2319
14330TIP3   OH264404   3.859   0.860  12.382 -0.1362  0.0298 -0.2552
14330TIP3    H164405   3.787   0.798  12.364 -1.1728  1.1225 -0.0142
14330TIP3    H264406   3.891   0.835  12.468  1.0721 -1.6500 -1.1187
14331TIP3   OH264407   6.617   5.670   1.675  0.2119  1.3890 -0.5234
14331TIP3    H164408   6.620   5.766   1.669 -0.0328  1.5313  1.0813
14331TIP3    H264409   6.695   5.640   1.629  2.1515  2.5652  1.7661
14332TIP3   OH264410   6.330   1.491  11.907  0.6825  0.6364 -0.1150
14332TIP3    H164411   6.300   1.569  11.952 -0.0347  0.0111  0.5255
14332TIP3    H264412   6.344   1.427  11.977 -1.0355 -0.5550 -0.7904
14333TIP3   OH264413   5.364   3.678   2.609 -0.4635 -0.3284 -0.0939
14333TIP3    H164414   5.325   3.591   2.602 -1.2357 -0.0596  0.6273
14333TIP3    H264415   5.415   3.675   2.690  0.5695 -0.5051 -0.7477
14334TIP3   OH264416   5.545   0.650   3.829  0.2304  0.0940 -0.0623
14334TIP3    H164417   5.602   0.727   3.834 -0.6906  0.7194  3.1030
14334TIP3    H264418   5.504   0.656   3.743  2.6878  1.2289 -1.2445
14335TIP3   OH264419   6.256   2.306  15.153 -0.2907 -0.0198 -0.3616
14335TIP3    H164420   6.274   2.387  15.202 -1.4157  0.0693 -0.0804
14335TIP3    H264421   6.306   2.316  15.072 -0.5526  1.0440 -0.4114
14336TIP3   OH264422   3.543   4.857   1.815  0.1474 -0.3526  0.5679
14336TIP3    H164423   3.492   4.855   1.734 -0.1558 -0.3638  0.7573
14336TIP3    H264424   3.591   4.940   1.811  0.3205 -0.4637  0.2653
14337TIP3   OH264425   6.459   1.245   2.027  0.1638  0.4284 -0.1360
14337TIP3    H164426   6.513   1.250   1.948 -1.6551 -0.0947 -1.5146
14337TIP3    H264427   6.391   1.311   2.013 -0.9127 -0.5249  0.3676
14338TIP3   OH264428   0.877   1.705   4.768  0.2557 -0.4379 -0.0697
14338TIP3    H164429   0.924   1.650   4.705 -1.0445 -1.1948 -0.4162
14338TIP3    H264430   0.794   1.660   4.782 -0.9257  1.4832 -0.4792
14339TIP3   OH264431   6.729   6.360  16.427 -0.1291  0.5060 -0.3997
14339TIP3    H164432   6.778   6.284  16.461 -0.7159  0.8803  1.3933
14339TIP3    H264433   6.740   6.355  16.332  2.6688  0.0892 -0.1364
14340TIP3   OH264434   0.913   2.366   5.152  0.0434  0.5664 -0.2173
14340TIP3    H164435   0.885   2.278   5.128 -0.2933  0.8586 -0.9450
14340TIP3    H264436   0.903   2.417   5.071 -0.2151  1.3798  0.3127
14341TIP3   OH264437   3.510   3.843  17.050 -0.8022 -0.2247  0.3366
14341TIP3    H164438   3.456   3.773  17.012 -1.5964  0.8858 -0.6347
14341TIP3    H264439   3.573   3.797  17.106  0.9377 -2.0436 -2.8486
14342TIP3   OH264440   4.572   2.749  15.996  0.0118 -0.0521 -0.0128
14342TIP3    H164441   4.579   2.665  16.041  1.3977  0.7013  1.3012
14342TIP3    H264442   4.481   2.753  15.965  0.1127 -2.3248 -0.7938
14343TIP3   OH264443   4.758   2.805   6.746  0.4032 -0.1706 -0.1987
14343TIP3    H164444   4.734   2.897   6.736 -0.4186 -0.2176  1.1016
14343TIP3    H264445   4.853   2.803   6.731  0.2540  0.6763 -1.4192
14344TIP3   OH264446   6.070   1.830  11.664  0.6650 -0.1880  0.5011
14344TIP3    H164447   5.981   1.865  11.655  0.0948 -1.2372  1.7287
14344TIP3    H264448   6.115   1.895  11.718  0.1771 -0.3930  1.1688
14345TIP3   OH264449   3.112   3.671   3.810 -0.3486 -0.0196 -0.1887
14345TIP3    H164450   3.109   3.636   3.899 -0.5737 -1.2360 -0.6570
14345TIP3    H264451   3.196   3.715   3.805 -0.0871 -0.4278  0.4557
14346TIP3   OH264452   0.922   3.877  16.616  0.4535  0.6725  0.3144
14346TIP3    H164453   0.911   3.813  16.687  0.2927 -1.2457 -1.3328
14346TIP3    H264454   1.011   3.864  16.585  0.8950  2.2756  0.8507
14347TIP3   OH264455   6.164   0.621   1.193  0.1650  0.4884 -0.1651
14347TIP3    H164456   6.147   0.606   1.101  1.8069  0.1593 -0.4487
14347TIP3    H264457   6.166   0.716   1.202 -1.4045  0.5388 -0.1632
14348TIP3   OH264458   3.425   4.249  14.759  0.6506 -0.4891  0.6724
14348TIP3    H164459   3.417   4.251  14.855 -0.5937 -0.0918  0.5837
14348TIP3    H264460   3.491   4.183  14.742  1.2376 -0.2348  1.8268
14349TIP3   OH264461   0.756   6.177   6.018 -0.5440 -0.7599 -0.0277
14349TIP3    H164462   0.819   6.105   6.024  0.6169  0.1172 -1.0734
14349TIP3    H264463   0.792   6.235   5.950 -0.4846  1.7221  1.9594
14350TIP3   OH264464   3.236   4.544   3.950 -0.5115 -0.1090  0.1654
14350TIP3    H164465   3.283   4.621   3.983 -0.2808 -0.1127 -0.1426
14350TIP3    H264466   3.224   4.488   4.027 -1.6958  0.7421  0.6211
14351TIP3   OH264467   2.241   6.354   1.380  0.2418 -0.0804 -0.1179
14351TIP3    H164468   2.175   6.405   1.427  0.3155 -1.4507  1.5765
14351TIP3    H264469   2.193   6.313   1.308 -0.4385  0.0209  0.2725
14352TIP3   OH264470   1.179   0.237  14.417 -0.4130 -0.4021  0.0960
14352TIP3    H164471   1.133   0.203  14.340 -0.4088 -0.2826  0.0397
14352TIP3    H264472   1.123   0.212  14.491  0.9563 -2.9480  0.3476
14353TIP3   OH264473   3.045   1.712   4.074  0.5012 -0.8002 -0.4003
14353TIP3    H164474   3.050   1.764   3.993 -0.3037 -0.0552  0.0048
14353TIP3    H264475   2.957   1.731   4.108 -0.5891 -3.8375 -1.1734
14354TIP3   OH264476   4.132   3.494   6.077  0.0197  0.2118 -0.0069
14354TIP3    H164477   4.100   3.404   6.083  0.4865  0.1395  1.9875
14354TIP3    H264478   4.140   3.510   5.983  0.3400 -1.9727 -0.4072
14355TIP3   OH264479   1.573   0.210   1.093 -0.0523 -0.1262 -0.3189
14355TIP3    H164480   1.543   0.170   1.174  0.4492 -1.7864 -0.9221
14355TIP3    H264481   1.511   0.282   1.078 -1.4941 -1.1768  0.3661
14356TIP3   OH264482   1.975   3.743  12.205 -0.3976 -0.2648 -0.0029
14356TIP3    H164483   1.992   3.810  12.139  0.0213  0.4354  0.7967
14356TIP3    H264484   1.880   3.742  12.215 -0.5255 -0.8875 -1.1153
14357TIP3   OH264485   3.564   5.776  11.324 -0.1356 -0.1927  0.0536
14357TIP3    H164486   3.556   5.871  11.320  3.0618  0.1691  0.3899
14357TIP3    H264487   3.641   5.755  11.271  0.2740 -2.4280  1.3822
14358TIP3   OH264488   5.742   1.400   2.876 -0.4854 -0.2826  0.3519
14358TIP3    H164489   5.831   1.386   2.907  0.1487  1.7969 -0.3121
14358TIP3    H264490   5.752   1.458   2.801 -2.4626  1.1413  1.0867
14359TIP3   OH264491   1.133   0.315  16.358  0.0522  0.1755  0.2970
14359TIP3    H164492   1.186   0.371  16.414  0.1779 -1.0042  1.4153
14359TIP3    H264493   1.129   0.360  16.274  1.6603  0.9505  0.6136
14360TIP3   OH264494   0.194   1.051   0.294  0.0832 -0.0203 -0.1210
14360TIP3    H164495   0.265   0.987   0.293 -0.3924 -0.5591  0.3661
14360TIP3    H264496   0.161   1.052   0.204  0.6417  0.1626 -0.3253
14361TIP3   OH264497   3.871   5.409  13.262 -0.0613 -0.3593 -0.4657
14361TIP3    H164498   3.803   5.356  13.303  0.9451 -0.4821  1.1072
14361TIP3    H264499   3.835   5.498  13.263 -0.3435 -0.4739  0.0237
14362TIP3   OH264500   2.581   2.003   0.583  0.2002  0.3331  0.0957
14362TIP3    H164501   2.487   1.984   0.586  0.1443  0.7237  1.3509
14362TIP3    H264502   2.592   2.079   0.640  1.1029  1.1178 -1.0820
14363TIP3   OH264503   2.122   0.869  11.744 -0.9246  0.0152 -0.6397
14363TIP3    H164504   2.104   0.853  11.837  1.5776 -0.0817 -0.1196
14363TIP3    H264505   2.057   0.934  11.719  0.5495  2.8848  2.2116
14364TIP3   OH264506   5.505   0.600  11.689 -0.0319 -0.7910 -0.8419
14364TIP3    H164507   5.481   0.690  11.669  0.2439 -0.5204  0.0269
14364TIP3    H264508   5.446   0.547  11.635 -1.1806 -0.1151 -0.2742
14365TIP3   OH264509   1.727   1.100  12.841 -0.6832 -0.2333  0.3627
14365TIP3    H164510   1.706   1.175  12.898  0.7474  2.8102 -2.7459
14365TIP3    H264511   1.642   1.073  12.806 -1.0376  2.5170 -1.2376
14366TIP3   OH264512   5.793   5.872  12.422  0.6555 -0.6150  0.1842
14366TIP3    H164513   5.858   5.835  12.482  0.5989  0.1861  0.7462
14366TIP3    H264514   5.817   5.964  12.414  0.4732 -0.6458 -0.7855
14367TIP3   OH264515   2.730   4.625   2.882 -0.5077 -0.0592 -0.4356
14367TIP3    H164516   2.664   4.591   2.942 -0.3379 -0.0749 -0.2565
14367TIP3    H264517   2.810   4.577   2.905  0.6655  2.7750  2.1530
14368TIP3   OH264518   2.932   0.318  14.716  0.6761  1.0286 -0.0325
14368TIP3    H164519   2.946   0.411  14.695  2.5334  0.7498 -0.2215
14368TIP3    H264520   2.842   0.314  14.748  0.6095  2.9273  0.1499
14369TIP3   OH264521   1.918   2.254   1.979  0.2055  0.0129  0.4522
14369TIP3    H164522   1.983   2.251   1.909  0.0353  0.7467  0.2524
14369TIP3    H264523   1.858   2.323   1.953 -0.8545 -0.8643  0.4650
14370TIP3   OH264524   0.867   6.288  15.614 -0.3445  0.7791  0.0523
14370TIP3    H164525   0.824   6.335  15.686 -0.3090  0.4842  0.2713
14370TIP3    H264526   0.829   6.200  15.617 -0.0118  0.6312  0.0002
14371TIP3   OH264527   3.115   3.598  16.384  0.2402  0.3091 -0.0685
14371TIP3    H164528   3.119   3.620  16.477  1.3148 -2.7597  0.7254
14371TIP3    H264529   3.061   3.668  16.345  0.4020  2.1047  2.6635
14372TIP3   OH264530   0.924   3.552   5.402  0.2655  0.5704 -0.4185
14372TIP3    H164531   0.915   3.513   5.488  0.6624 -0.7636 -0.9508
14372TIP3    H264532   1.019   3.560   5.389  0.2829 -0.6296 -1.2892
14373TIP3   OH264533   3.442   4.525  12.979 -0.0980  0.1967  0.2836
14373TIP3    H164534   3.355   4.488  12.966  0.0000  0.4526 -1.2604
14373TIP3    H264535   3.500   4.448  12.982 -0.2594  0.0737  0.2639
14374TIP3   OH264536   2.768   4.091   3.601 -0.3555 -0.8677 -0.5591
14374TIP3    H164537   2.841   4.041   3.637 -0.4682 -2.7603 -2.7445
14374TIP3    H264538   2.810   4.165   3.556  0.1091 -1.1118 -0.5331
14375TIP3   OH264539   1.547   2.627   2.318 -0.0130 -0.5042 -0.4702
14375TIP3    H164540   1.574   2.552   2.264  1.0515 -0.6669  0.2541
14375TIP3    H264541   1.620   2.641   2.377 -0.4927  0.6953 -0.1391
14376TIP3   OH264542   0.170   1.212  16.841 -0.4835  0.0957 -0.1081
14376TIP3    H164543   0.168   1.217  16.746 -0.6510  1.2933 -0.0565
14376TIP3    H264544   0.227   1.284  16.868  1.0162 -1.2933  0.6453
14377TIP3   OH264545   4.756   5.177  16.092 -0.5992  0.2694 -0.1739
14377TIP3    H164546   4.669   5.181  16.132 -0.2902  1.0888  0.4387
14377TIP3    H264547   4.751   5.103  16.032 -1.0052 -1.1789  1.5581
14378TIP3   OH264548   0.391   4.610   3.198  0.1735  0.7378 -0.5562
14378TIP3    H164549   0.418   4.682   3.142  0.8552  1.3664  0.5518
14378TIP3    H264550   0.394   4.645   3.287  0.4001 -0.6174 -0.0001
14379TIP3   OH264551   1.318   2.986   2.511  0.0799 -0.4701 -0.5405
14379TIP3    H164552   1.350   3.036   2.436  0.7621 -1.1354 -0.7051
14379TIP3    H264553   1.225   2.976   2.495  0.5127 -2.2388 -2.3021
14380TIP3   OH264554   2.040   0.235  13.622  0.0626  0.3161  0.2226
14380TIP3    H164555   2.041   0.330  13.620  1.5317  0.3239  0.3749
14380TIP3    H264556   2.003   0.210  13.537 -0.3247  1.0209  0.1784
14381TIP3   OH264557   5.748   2.502  16.023  0.3279  1.0154  0.1467
14381TIP3    H164558   5.841   2.488  16.006  0.6318  1.4382  1.3493
14381TIP3    H264559   5.737   2.484  16.116 -0.7029  1.4600  0.1363
14382TIP3   OH264560   4.062   0.833  15.724  0.1384 -0.3354 -0.6474
14382TIP3    H164561   3.970   0.806  15.720  0.0044  0.2412 -2.3735
14382TIP3    H264562   4.072   0.869  15.812 -1.0984 -1.0258 -0.1927
14383TIP3   OH264563   0.972   3.658  15.275 -0.0345  0.0354 -0.0526
14383TIP3    H164564   0.924   3.641  15.356 -0.8616  0.9038 -0.3456
14383TIP3    H264565   0.966   3.753  15.263 -1.1386 -0.2132 -1.8622
14384TIP3   OH264566   0.014   1.665  12.609 -0.0967 -0.0110 -0.3300
14384TIP3    H164567  -0.003   1.743  12.663 -1.3024 -1.1282  0.9929
14384TIP3    H264568   0.065   1.698  12.535 -0.6003  2.0444  0.1638
14385TIP3   OH264569   5.510   1.440  15.000 -0.1304 -0.0750  0.2006
14385TIP3    H164570   5.426   1.393  15.000 -0.1731 -0.0037  0.8307
14385TIP3    H264571   5.514   1.482  15.086 -0.8084  2.3414 -0.8764
14386TIP3   OH264572   0.127   4.766   5.186  0.2048 -0.3931  0.7009
14386TIP3    H164573   0.208   4.774   5.237  0.4693  0.4750  0.1703
14386TIP3    H264574   0.057   4.783   5.249  0.5763  2.1963  0.5508
14387TIP3   OH264575   1.381   4.449   2.961 -0.3650  0.3627  0.0767
14387TIP3    H164576   1.391   4.380   2.896  1.4213 -0.2538  0.9273
14387TIP3    H264577   1.297   4.490   2.941 -0.3781 -0.5332 -1.8931
14388TIP3   OH264578   5.218   0.179   4.136 -0.8516 -0.1145 -0.0836
14388TIP3    H164579   5.204   0.264   4.094 -0.5969  1.1358  2.1766
14388TIP3    H264580   5.137   0.130   4.119 -0.2085 -0.3170 -3.1817
14389TIP3   OH264581   5.335   3.972   1.884  0.4661 -0.1488  0.7115
14389TIP3    H164582   5.253   4.019   1.899  0.1638 -0.2693 -0.4459
14389TIP3    H264583   5.399   4.041   1.867 -0.1510 -0.0976 -1.8199
14390TIP3   OH264584   5.166   0.794  12.825 -0.3855 -0.7116  0.4118
14390TIP3    H164585   5.087   0.749  12.856 -0.1566  0.0509  2.2373
14390TIP3    H264586   5.238   0.738  12.853 -0.2056 -0.5008  0.3713
14391TIP3   OH264587   2.432   0.481   3.421  0.2744 -0.0183 -0.1140
14391TIP3    H164588   2.417   0.549   3.355  1.2843 -0.5723 -0.9336
14391TIP3    H264589   2.526   0.469   3.422  0.0651 -1.9181 -0.5053
14392TIP3   OH264590   0.667   6.487  15.149  0.1688  0.4028  0.5211
14392TIP3    H164591   0.739   6.432  15.118 -2.0893 -1.6739 -1.4699
14392TIP3    H264592   0.653   6.459  15.239  0.9767 -0.1143  0.5004
14393TIP3   OH264593   2.045   4.836  15.447 -0.0510 -0.5753  0.0863
14393TIP3    H164594   1.980   4.862  15.382  0.6326  2.5546  0.5201
14393TIP3    H264595   2.115   4.795  15.396 -1.3058 -1.9527 -0.6141
14394TIP3   OH264596   2.961   1.828  12.232 -0.3403  0.0349  0.5262
14394TIP3    H164597   2.905   1.840  12.155  0.8872  0.9797 -0.2508
14394TIP3    H264598   2.970   1.916  12.269 -0.2039 -0.2747  1.2436
14395TIP3   OH264599   2.009   6.110  15.171 -0.3422  0.0701 -0.3097
14395TIP3    H164600   1.956   6.053  15.226 -0.6077 -0.3031 -0.9360
14395TIP3    H264601   2.057   6.166  15.232 -0.6120 -0.3512  0.2904
14396TIP3   OH264602   5.129   3.543  13.564  0.2346  0.0372  0.5144
14396TIP3    H164603   5.101   3.598  13.637 -0.3895  1.9554 -1.0895
14396TIP3    H264604   5.169   3.603  13.502 -0.1908 -1.3632 -1.2047
14397TIP3   OH264605   3.088   4.475   1.917  0.9178 -0.9722  0.6656
14397TIP3    H164606   3.030   4.550   1.903  1.0930 -1.0533 -0.5979
14397TIP3    H264607   3.136   4.497   1.997 -0.4509 -0.6605  1.4190
14398TIP3   OH264608   3.168   0.629  16.394  0.3702 -0.4363  0.1508
14398TIP3    H164609   3.215   0.604  16.315 -0.5457  0.8164 -0.8265
14398TIP3    H264610   3.076   0.628  16.369  0.1812  2.1243  0.5464
14399TIP3   OH264611   2.972   0.913  14.480  0.1000  0.0482 -0.2273
14399TIP3    H164612   2.994   0.833  14.431 -1.0900 -0.8989  0.7114
14399TIP3    H264613   3.053   0.938  14.523  1.0564  0.6436 -2.2848
14400TIP3   OH264614   4.630   2.953  16.560 -0.3635  0.6916 -0.4005
14400TIP3    H164615   4.586   2.882  16.513 -3.3449  0.7528  2.0022
14400TIP3    H264616   4.717   2.919  16.579 -0.9295 -1.4058 -1.2992
14401TIP3   OH264617   6.453   4.558   3.743  0.2937  0.0004  0.2417
14401TIP3    H164618   6.545   4.547   3.719 -0.3384 -3.0115 -1.2007
14401TIP3    H264619   6.450   4.534   3.836  0.8866 -0.4123  0.1592
14402TIP3   OH264620   1.952   3.022   0.616  0.1162 -0.1294  0.0888
14402TIP3    H164621   1.874   3.057   0.572  0.6460 -0.4462 -1.1533
14402TIP3    H264622   2.013   3.004   0.544  1.1133 -0.4295  0.9986
14403TIP3   OH264623   4.987   0.719   1.620 -0.8702 -0.5123 -0.4487
14403TIP3    H164624   4.891   0.718   1.612 -0.8035  0.2627 -1.5648
14403TIP3    H264625   5.005   0.790   1.682 -0.9644  0.7881 -1.8348
14404TIP3   OH264626   5.122   2.370  14.458  0.1885 -0.0836  0.0095
14404TIP3    H164627   5.171   2.293  14.430  0.1703 -0.1237  0.0866
14404TIP3    H264628   5.101   2.417  14.377 -1.0845 -0.9242 -0.1872
14405TIP3   OH264629   3.929   1.296  12.161  0.0517  0.0845 -0.1674
14405TIP3    H164630   3.940   1.203  12.182 -1.5165 -0.0245  0.3296
14405TIP3    H264631   3.904   1.296  12.068  1.9912  0.1825 -0.7182
14406TIP3   OH264632   5.047   3.317  13.399  0.0984  0.4920 -0.2450
14406TIP3    H164633   5.019   3.380  13.465 -0.6346  0.2466 -0.3208
14406TIP3    H264634   5.080   3.371  13.326  1.7511  0.7639  0.6505
14407TIP3   OH264635   1.569   5.272  10.455  1.1245  0.8268  0.1906
14407TIP3    H164636   1.639   5.338  10.449 -0.7110  2.9691  0.6930
14407TIP3    H264637   1.526   5.292  10.538 -0.0200 -0.4846 -0.0644
14408TIP3   OH264638   2.397   4.132  10.747 -0.4399 -0.1299  0.2652
14408TIP3    H164639   2.375   4.223  10.764  0.6549  0.4004 -1.0108
14408TIP3    H264640   2.469   4.135  10.684  1.1791 -1.8320  1.8793
14409TIP3   OH264641   3.494   1.146   6.053 -0.4277  0.0114  0.3568
14409TIP3    H164642   3.515   1.134   6.145  0.8230 -1.4814 -0.0848
14409TIP3    H264643   3.400   1.164   6.052 -0.1922  1.5606  2.0050
14410TIP3   OH264644   1.389   3.920  11.791 -0.0512 -0.4236  0.8259
14410TIP3    H164645   1.327   3.957  11.728  0.3272 -0.8520  0.1906
14410TIP3    H264646   1.382   3.825  11.779  0.8623 -0.4736  0.6053
14411TIP3   OH264647   0.055   2.822  16.704 -0.0622  0.0493 -0.3237
14411TIP3    H164648   0.057   2.815  16.608 -5.1910 -0.2897 -0.6753
14411TIP3    H264649   0.025   2.912  16.721 -0.2390 -0.2171  0.8742
14412TIP3   OH264650   1.871   6.502   5.954 -0.2155 -0.0571 -0.0185
14412TIP3    H164651   1.874   6.468   5.865  2.0537 -1.0788  0.3567
14412TIP3    H264652   1.939   6.452   6.000 -1.0811  0.6999  2.1872
14413TIP3   OH264653   0.525   4.294  16.021  0.1056 -0.4291  0.1830
14413TIP3    H164654   0.490   4.240  15.951  0.4696  1.1633 -1.2969
14413TIP3    H264655   0.594   4.240  16.060  0.7779 -0.8989 -1.5359
14414TIP3   OH264656   1.210   5.531  15.130 -0.0125 -0.3819 -0.5821
14414TIP3    H164657   1.139   5.589  15.156 -0.6304 -0.8158 -1.2646
14414TIP3    H264658   1.289   5.586  15.136 -0.2880 -0.1179  0.8897
14415TIP3   OH264659   4.974   4.508   4.743 -0.1066 -0.3280 -0.0408
14415TIP3    H164660   4.913   4.479   4.675 -1.1674 -0.1125  0.8078
14415TIP3    H264661   4.922   4.562   4.802  0.7442 -0.6765  1.0673
14416TIP3   OH264662   4.546   6.789  13.592 -0.4041  0.4142  0.3082
14416TIP3    H164663   4.456   6.758  13.603 -0.0846 -0.0151  2.1533
14416TIP3    H264664   4.564   6.838  13.673  1.0365  0.4323  0.0031
14417TIP3   OH264665   4.021   3.087   5.170 -0.1946 -0.1828  0.2001
14417TIP3    H164666   3.966   3.086   5.092  0.0801  1.0689 -0.0373
14417TIP3    H264667   4.091   3.025   5.150 -1.1549 -1.3117  0.2503
14418TIP3   OH264668   3.824   5.336  14.205 -0.0479  0.7597  0.0619
14418TIP3    H164669   3.872   5.340  14.288  1.4863 -0.9069 -0.6713
14418TIP3    H264670   3.736   5.310  14.230  0.2316  0.8938  1.2329
14419TIP3   OH264671   5.015   3.885  17.106 -0.2921  0.4056 -0.4133
14419TIP3    H164672   5.023   3.857  17.197 -2.1931  0.1924 -0.2734
14419TIP3    H264673   5.080   3.834  17.059  0.6346  0.4252  0.7863
14420TIP3   OH264674   1.362   2.255   1.523  0.0793  0.0716  0.0049
14420TIP3    H164675   1.427   2.185   1.521 -0.4366 -0.4010 -0.6184
14420TIP3    H264676   1.413   2.336   1.529  0.7129 -0.2984 -0.3479
14421TIP3   OH264677   3.346   2.361   0.139 -0.6036 -0.3785 -0.1657
14421TIP3    H164678   3.330   2.324   0.225 -0.0685 -0.2209  0.0031
14421TIP3    H264679   3.317   2.293   0.078 -0.6703 -0.6242  0.1382
14422TIP3   OH264680   1.783   1.072  12.511  0.7165 -1.0032  0.5361
14422TIP3    H164681   1.706   1.032  12.553  1.2342 -1.4037  1.1272
14422TIP3    H264682   1.840   0.998  12.491  0.3723 -0.8395 -1.1403
14423TIP3   OH264683   4.154   2.595  16.247  0.5284  0.0151 -0.4265
14423TIP3    H164684   4.153   2.511  16.293  1.3713 -0.8806 -1.9678
14423TIP3    H264685   4.224   2.586  16.182 -0.9456  0.9926 -2.2498
14424TIP3   OH264686   1.291   0.581  11.980  0.4045  0.5131  0.1596
14424TIP3    H164687   1.376   0.576  11.938  0.9978 -0.0659  1.3823
14424TIP3    H264688   1.309   0.609  12.070 -0.4869 -1.2698  0.9586
14425TIP3   OH264689   4.768   2.996  16.930  0.3694 -1.0632  0.1774
14425TIP3    H164690   4.826   3.011  16.854 -1.3556 -1.1180 -1.2139
14425TIP3    H264691   4.809   3.046  17.001  0.8585  0.9092 -1.3728
14426TIP3   OH264692   1.067   4.682   2.425 -0.0380 -0.3692 -0.2401
14426TIP3    H164693   0.973   4.684   2.406 -0.2078  0.9445  0.6211
14426TIP3    H264694   1.097   4.599   2.388 -1.0890  0.2117 -2.6165
14427TIP3   OH264695   3.633   4.835   3.392 -0.5388  0.2842  0.0125
14427TIP3    H164696   3.621   4.854   3.485 -0.7890  1.3513 -0.2260
14427TIP3    H264697   3.544   4.833   3.356 -0.5273 -1.3596  0.0058
14428TIP3   OH264698   6.091   3.437   5.117  0.1331  0.6353 -0.2688
14428TIP3    H164699   6.165   3.490   5.086 -0.6022  2.2335  0.5660
14428TIP3    H264700   6.076   3.467   5.207 -0.7596 -0.5424  0.0116
14429TIP3   OH264701   4.121   5.839  13.806 -0.2675 -0.7001  0.0032
14429TIP3    H164702   4.186   5.904  13.831 -0.5509 -0.7873  1.0004
14429TIP3    H264703   4.172   5.763  13.778  0.0715  0.0771 -1.5892
14430TIP3   OH264704   0.683   5.619  15.368 -0.0425 -0.4891  0.2287
14430TIP3    H164705   0.712   5.540  15.321  1.4532  0.7609 -1.0752
14430TIP3    H264706   0.761   5.674  15.371 -0.7318  0.4589  2.1982
14431TIP3   OH264707   6.267   4.040   5.832 -0.0786 -0.0676 -0.0768
14431TIP3    H164708   6.211   4.040   5.909  0.0349 -0.9217  0.0141
14431TIP3    H264709   6.353   4.065   5.864 -0.3665  1.1063 -0.1927
14432TIP3   OH264710   5.719   3.363  15.711  0.0073  0.5825 -0.0701
14432TIP3    H164711   5.701   3.359  15.805 -0.6608 -1.6452 -0.2517
14432TIP3    H264712   5.814   3.362  15.705  0.0607 -0.7554  0.5766
14433TIP3   OH264713   1.305   0.802  16.512 -0.2779 -0.0922 -0.1420
14433TIP3    H164714   1.316   0.896  16.525 -0.2741 -0.2683  1.2404
14433TIP3    H264715   1.230   0.795  16.453  0.1241  0.7893 -0.7788
14434TIP3   OH264716   5.712   6.432   6.116  0.6350  0.2374  0.4751
14434TIP3    H164717   5.735   6.359   6.173  0.9984 -0.3726 -0.4298
14434TIP3    H264718   5.668   6.495   6.174  0.1365 -0.7790  1.2349
14435TIP3   OH264719   0.912   6.328  15.081  0.2343  0.2697 -0.0675
14435TIP3    H164720   0.896   6.337  15.175  1.4142 -0.3583  0.2222
14435TIP3    H264721   0.961   6.406  15.057  1.2997 -0.2940  0.1964
14436TIP3   OH264722   1.048   0.546  12.137  0.6335 -0.0426  0.1691
14436TIP3    H164723   1.123   0.524  12.081  0.3042 -1.3815  0.2063
14436TIP3    H264724   0.994   0.467  12.135 -0.6849  0.8285  0.3026
14437TIP3   OH264725   4.338   1.369  11.939 -0.1770 -0.0414  0.3466
14437TIP3    H164726   4.281   1.349  12.014 -0.4535  0.8973  0.4019
14437TIP3    H264727   4.425   1.338  11.966 -0.2021  0.5923  1.2042
14438TIP3   OH264728   0.750   0.861   2.224 -0.3329  0.1277 -0.3060
14438TIP3    H164729   0.660   0.869   2.192 -0.1826  1.8132 -0.4394
14438TIP3    H264730   0.742   0.821   2.310 -1.1342 -0.4369 -0.6288
14439TIP3   OH264731   6.144   6.308   4.334  0.9060  0.3401 -0.5522
14439TIP3    H164732   6.196   6.367   4.280  0.4766  2.7354  1.4645
14439TIP3    H264733   6.207   6.266   4.393  0.8236  2.0753  0.8512
14440TIP3   OH264734   2.573   3.702  13.154  0.5129  0.5640  0.2173
14440TIP3    H164735   2.546   3.644  13.225 -1.9895  0.7718 -0.4546
14440TIP3    H264736   2.651   3.747  13.187  1.4130 -1.7852  1.4688
14441TIP3   OH264737   1.873   4.475  11.688  0.5905 -0.3000 -0.2561
14441TIP3    H164738   1.797   4.533  11.680 -0.1530 -1.4466 -2.8087
14441TIP3    H264739   1.948   4.530  11.665  0.0850  0.0777 -1.0822
14442TIP3   OH264740   1.735   0.240  14.207 -0.3236 -0.0816  0.0184
14442TIP3    H164741   1.809   0.282  14.252 -0.2400 -0.0051 -0.1922
14442TIP3    H264742   1.774   0.163  14.164 -0.6191 -0.8525  1.0876
14443TIP3   OH264743   3.378   3.129  13.225 -0.4995  0.2825  0.1784
14443TIP3    H164744   3.387   3.037  13.198 -0.3962  0.7592 -1.4865
14443TIP3    H264745   3.461   3.149  13.268 -0.0844 -0.1075 -0.4199
14444TIP3   OH264746   0.764   0.414  12.031 -0.3461  0.4103 -0.1704
14444TIP3    H164747   0.773   0.400  12.125  0.0205 -0.7991 -0.3671
14444TIP3    H264748   0.744   0.507  12.022  2.7896  1.2973  0.8900
14445TIP3   OH264749   4.809   0.222  15.084 -0.4997  0.3523  0.0871
14445TIP3    H164750   4.841   0.217  14.994  0.1629 -1.0223  0.3818
14445TIP3    H264751   4.717   0.249  15.076 -0.6745 -0.5239 -1.0573
14446TIP3   OH264752   4.678   6.734  11.429 -0.2457  0.2626  0.4482
14446TIP3    H164753   4.704   6.793  11.358  1.4365 -1.3340 -0.3185
14446TIP3    H264754   4.759   6.713  11.474 -0.6743 -2.0724  0.2229
14447TIP3   OH264755   4.450   2.736  12.475 -0.6669 -0.0727 -0.3922
14447TIP3    H164756   4.407   2.792  12.539 -0.6784  1.6383 -1.8313
14447TIP3    H264757   4.383   2.672  12.451 -1.0775  0.0759  0.3322
14448TIP3   OH264758   0.632   3.231   5.021  0.3231  0.0594  0.0397
14448TIP3    H164759   0.608   3.278   5.101 -0.6997 -1.4962  0.6952
14448TIP3    H264760   0.696   3.165   5.050  0.5475  0.0014 -0.5713
14449TIP3   OH264761   5.546   1.970  16.567 -0.3285  0.0142 -0.6911
14449TIP3    H164762   5.609   1.931  16.506  1.0745 -1.4026  1.5225
14449TIP3    H264763   5.477   1.905  16.576  0.5622 -0.7850  0.8000
14450TIP3   OH264764   2.691   1.421  16.626  0.5177  0.2920  0.1880
14450TIP3    H164765   2.732   1.500  16.590 -0.0655 -0.0197 -1.2093
14450TIP3    H264766   2.610   1.452  16.666  0.7571  0.5201  0.5074
14451TIP3   OH264767   0.015   3.198  15.203 -0.2913  0.0483 -0.7104
14451TIP3    H164768   0.040   3.287  15.177  0.0681  0.6656  1.4990
14451TIP3    H264769   0.098   3.151  15.210 -0.3040  0.1227  0.0178
14452TIP3   OH264770   4.868   4.722  12.193 -0.1143  0.0499  0.4293
14452TIP3    H164771   4.961   4.733  12.172 -0.3295 -1.3932 -1.5729
14452TIP3    H264772   4.850   4.629  12.177 -2.1810  0.5413 -0.5271
14453TIP3   OH264773   4.468   2.286   2.637 -0.1382 -0.2803  0.5826
14453TIP3    H164774   4.554   2.246   2.623  0.1890  0.9369 -1.3417
14453TIP3    H264775   4.405   2.220   2.608  0.1046 -1.1835  2.0205
14454TIP3   OH264776   4.887   3.804  14.393 -0.7348 -0.4614 -0.0768
14454TIP3    H164777   4.953   3.816  14.461 -0.6459  1.4741 -0.4380
14454TIP3    H264778   4.810   3.772  14.439 -0.1035 -0.9761  0.6321
14455TIP3   OH264779   2.983   1.932  13.728 -0.4699 -0.0332  0.0738
14455TIP3    H164780   2.983   2.027  13.716  0.3537 -0.3140 -3.1312
14455TIP3    H264781   3.072   1.910  13.754 -0.5050  0.0226  0.2397
14456TIP3   OH264782   1.858   3.562   1.267  0.3663 -0.5826 -0.1303
14456TIP3    H164783   1.777   3.511   1.270 -0.1622  0.1541 -1.1900
14456TIP3    H264784   1.891   3.561   1.356 -0.4969 -1.4007  0.1907
14457TIP3   OH264785   6.565   3.377   3.242  0.0392 -0.2926  0.2374
14457TIP3    H164786   6.564   3.430   3.163 -1.1999 -0.1961  0.2931
14457TIP3    H264787   6.617   3.300   3.220  0.3421  0.0991 -0.4202
14458TIP3   OH264788   4.398   5.964   3.389 -0.1622  0.2017 -1.1014
14458TIP3    H164789   4.464   5.895   3.386  0.2076  0.3942  1.1823
14458TIP3    H264790   4.435   6.035   3.335  1.9574  0.6468  0.7885
14459TIP3   OH264791   3.567   3.894   1.066  0.1747 -0.0220  0.6345
14459TIP3    H164792   3.633   3.864   1.128  0.6151  1.6170  1.0017
14459TIP3    H264793   3.494   3.833   1.077  1.5394 -1.8027  0.3075
14460TIP3   OH264794   3.035   3.656   5.546  0.7041 -0.0447 -0.5853
14460TIP3    H164795   3.053   3.689   5.634 -1.5605 -0.2426  0.0132
14460TIP3    H264796   2.993   3.730   5.501  0.1461 -0.5311 -0.8733
14461TIP3   OH264797   4.198   3.067  17.050  0.0233 -0.1234  0.1217
14461TIP3    H164798   4.119   3.043  17.098  1.0567 -2.3806  0.8551
14461TIP3    H264799   4.253   3.110  17.116 -0.3251  0.8842 -0.2323
14462TIP3   OH264800   4.832   0.480  15.740  0.1128 -0.1405  0.2426
14462TIP3    H164801   4.775   0.445  15.808 -1.4414  0.7624 -0.5369
14462TIP3    H264802   4.773   0.528  15.681  1.5703  0.1645 -1.0480
14463TIP3   OH264803   5.265   4.914   0.563  0.0844  0.1784  0.2610
14463TIP3    H164804   5.318   4.836   0.549 -0.2230 -0.0745  0.5225
14463TIP3    H264805   5.180   4.882   0.593  0.6028  0.6812  2.4261
14464TIP3   OH264806   5.760   3.715   1.308  0.6523 -0.0080  0.3612
14464TIP3    H164807   5.759   3.808   1.331 -0.2248  0.1648 -0.3047
14464TIP3    H264808   5.677   3.681   1.343  0.6022 -0.3610 -0.0941
14465TIP3   OH264809   0.008   1.309   3.564 -0.0654  0.1653 -0.3237
14465TIP3    H164810   0.005   1.374   3.494  1.3281 -1.0138 -1.5488
14465TIP3    H264811   0.100   1.282   3.569  0.1785  1.0938  2.8756
14466TIP3   OH264812   6.334   6.364   1.719 -0.2456  0.0456 -0.8441
14466TIP3    H164813   6.269   6.435   1.710  1.5325  1.5777 -2.5799
14466TIP3    H264814   6.341   6.350   1.813 -3.1121 -0.2547 -0.5841
14467TIP3   OH264815   6.404   5.075  16.976 -0.6265 -0.2979 -0.9687
14467TIP3    H164816   6.394   5.154  17.029 -1.2997 -1.4327  0.7091
14467TIP3    H264817   6.330   5.019  17.002 -1.0606 -0.8908 -3.2371
14468TIP3   OH264818   4.743   4.312   3.561  0.4736  0.7367  0.0399
14468TIP3    H164819   4.800   4.238   3.540  0.8902  1.4174 -1.3594
14468TIP3    H264820   4.783   4.353   3.637 -0.5203 -1.2369  1.7539
14469TIP3   OH264821   5.639   0.101   0.590  0.0327  0.2373  0.0541
14469TIP3    H164822   5.600   0.073   0.507 -0.3417  1.2972 -0.1453
14469TIP3    H264823   5.645   0.196   0.582 -0.1376  0.3616  1.3135
14470TIP3   OH264824   3.224   5.938  13.468  0.0923  0.3040  0.0235
14470TIP3    H164825   3.317   5.920  13.460 -0.2004 -1.0601 -0.4934
14470TIP3    H264826   3.181   5.868  13.419 -1.2936 -0.2838  1.9836
14471TIP3   OH264827   6.274   1.719   3.146  0.1830  0.1550  0.3255
14471TIP3    H164828   6.214   1.749   3.215  1.0386  0.2447  1.0560
14471TIP3    H264829   6.245   1.764   3.067 -0.2128  0.8091  0.8360
14472TIP3   OH264830   0.430   0.680   0.564  0.0693 -0.3200  0.3339
14472TIP3    H164831   0.404   0.663   0.655 -0.7760  0.9396  0.3515
14472TIP3    H264832   0.448   0.593   0.527 -1.2700 -0.9918  1.2013
14473TIP3   OH264833   4.016   0.785  14.499 -0.0015  0.2495  0.4148
14473TIP3    H164834   4.061   0.703  14.520 -0.2730 -0.2422 -0.8268
14473TIP3    H264835   4.066   0.853  14.545  2.6437 -0.1516 -1.6313
14474TIP3   OH264836   0.049   6.662  17.017 -0.5132 -0.0477 -0.6260
14474TIP3    H164837   0.133   6.622  17.038 -0.4562  0.3283 -0.1172
14474TIP3    H264838   0.048   6.666  16.922 -0.6805 -1.5885 -0.7093
14475TIP3   OH264839   4.801   2.961  10.842 -0.1867 -0.0277 -0.3659
14475TIP3    H164840   4.844   2.940  10.925 -0.4217  2.1106  0.3500
14475TIP3    H264841   4.714   2.924  10.850 -0.2440  0.2548  0.4068
14476TIP3   OH264842   2.407   5.965  14.307 -0.4844  0.2778 -0.1187
14476TIP3    H164843   2.351   5.887  14.304 -0.2158  0.0404  0.9500
14476TIP3    H264844   2.350   6.034  14.340 -0.0886 -0.0330  1.2608
14477TIP3   OH264845   2.399   5.127   4.145 -0.2060  0.7507 -0.0613
14477TIP3    H164846   2.424   5.219   4.135 -0.4385  0.9474  1.1001
14477TIP3    H264847   2.483   5.081   4.153 -0.0451  0.7203 -1.5454
14478TIP3   OH264848   0.920   1.200   5.718  0.7046  0.1999 -0.0805
14478TIP3    H164849   0.900   1.249   5.798  1.2402  0.3380 -0.0259
14478TIP3    H264850   0.902   1.262   5.647  2.5688  0.9424  0.0283
14479TIP3   OH264851   2.056   4.771   2.132  0.2995 -0.1674  0.8181
14479TIP3    H164852   1.984   4.812   2.084  0.4263  1.3531  1.8565
14479TIP3    H264853   2.098   4.714   2.068 -0.2051  0.9538 -0.5699
14480TIP3   OH264854   4.320   6.568  13.733  0.0225  0.0038  0.2729
14480TIP3    H164855   4.299   6.557  13.825  1.4440 -3.6959  0.3118
14480TIP3    H264856   4.416   6.558  13.729  0.1612  1.3743 -1.5138
14481TIP3   OH264857   2.798   1.656   5.777  0.5508 -0.1078  0.5021
14481TIP3    H164858   2.848   1.582   5.742  1.9557  0.8994  0.3130
14481TIP3    H264859   2.709   1.621   5.789  0.7805 -1.3729 -1.0893
14482TIP3   OH264860   5.196   0.004   2.079 -0.1445  0.2687  0.0614
14482TIP3    H164861   5.146   0.028   2.001 -0.0170  0.9979  0.1982
14482TIP3    H264862   5.130  -0.029   2.141 -0.3555  0.5049 -0.0375
14483TIP3   OH264863   1.002   5.525  17.088  0.2715 -0.1962 -0.6943
14483TIP3    H164864   0.957   5.584  17.148 -0.8560 -1.4983 -0.2221
14483TIP3    H264865   0.968   5.548  17.001 -2.0740 -1.7216 -0.2775
14484TIP3   OH264866   4.991   5.559   3.081 -0.2688 -0.2657  0.1272
14484TIP3    H164867   4.928   5.496   3.046  0.1400  0.0891 -1.2824
14484TIP3    H264868   5.076   5.523   3.059  0.0710 -0.6850  1.9354
14485TIP3   OH264869   6.724   5.815  11.216 -0.3364 -0.0870 -0.0296
14485TIP3    H164870   6.750   5.829  11.307  1.5558  0.1819 -0.5663
14485TIP3    H264871   6.656   5.748  11.220  0.5799 -0.9692  1.5017
14486TIP3   OH264872   1.503   4.428  14.825  0.1569 -0.4279  0.0438
14486TIP3    H164873   1.496   4.337  14.852  1.0041 -0.1206  1.3951
14486TIP3    H264874   1.531   4.475  14.904  2.7819  0.5256 -1.3416
14487TIP3   OH264875   5.554   3.341   2.108 -0.1671 -0.2800 -0.7672
14487TIP3    H164876   5.574   3.268   2.167  0.2307 -0.5109 -1.1863
14487TIP3    H264877   5.639   3.384   2.095 -0.1289 -0.6279 -1.7051
14488TIP3   OH264878   1.104   2.470  16.225 -0.6809  0.1756  0.2209
14488TIP3    H164879   1.107   2.400  16.160  1.3957  0.0001  0.4453
14488TIP3    H264880   1.074   2.546  16.176 -2.0541 -0.6226 -0.2370
14489TIP3   OH264881   6.436   4.650   4.320 -0.3296  0.2759  0.2145
14489TIP3    H164882   6.485   4.701   4.385  0.3542 -2.8252  2.3442
14489TIP3    H264883   6.352   4.634   4.361 -0.7615  0.1591 -0.6902
14490TIP3   OH264884   5.057   6.028   4.744  0.1042 -0.0255  0.9673
14490TIP3    H164885   5.070   6.101   4.805  0.4178  0.2906  0.5255
14490TIP3    H264886   5.077   6.065   4.658  1.0369 -0.8492  0.8216
14491TIP3   OH264887   2.483   3.505  13.775 -0.0126  0.1128  0.1541
14491TIP3    H164888   2.547   3.459  13.722  0.1331  0.2953  0.1688
14491TIP3    H264889   2.413   3.442  13.790  0.8394 -0.5696  1.3824
14492TIP3   OH264890   2.425   3.637  16.674  0.3850  0.2240  0.2429
14492TIP3    H164891   2.468   3.722  16.685  0.1318  0.3138  0.5892
14492TIP3    H264892   2.495   3.573  16.684 -0.0065  0.1660  4.7152
14493TIP3   OH264893   3.144   1.132  10.441  0.3909 -0.0574 -0.3837
14493TIP3    H164894   3.212   1.197  10.423 -1.0049  1.1096 -1.7308
14493TIP3    H264895   3.063   1.182  10.441 -0.6863 -1.7189 -0.8804
14494TIP3   OH264896   4.599   0.362   3.978 -0.2998  0.5535 -0.2752
14494TIP3    H164897   4.672   0.302   3.964 -0.0918  0.7333  0.0342
14494TIP3    H264898   4.606   0.426   3.906 -0.8555 -0.1130 -0.9346
14495TIP3   OH264899   2.888   2.059   5.065  0.0421  0.1030  0.3584
14495TIP3    H164900   2.834   1.981   5.056 -0.5229  0.6126 -0.9323
14495TIP3    H264901   2.834   2.120   5.117 -0.3465  0.3502 -0.3232
14496TIP3   OH264902   0.298   0.699  15.087 -0.4963  0.2950  0.4449
14496TIP3    H164903   0.334   0.778  15.047  1.4630 -0.1423  1.2692
14496TIP3    H264904   0.298   0.634  15.016  1.3801  0.0072  0.6707
14497TIP3   OH264905   5.566   2.694  14.310  0.1640  0.0707 -0.1653
14497TIP3    H164906   5.489   2.719  14.360 -0.5696 -0.9184 -0.7852
14497TIP3    H264907   5.640   2.719  14.366 -0.6039  0.5977  0.6330
14498TIP3   OH264908   0.464   1.388  14.258  0.7624 -0.3481  0.2073
14498TIP3    H164909   0.513   1.324  14.311  1.4903 -0.3526 -0.4430
14498TIP3    H264910   0.532   1.435  14.210  0.1964  0.6118  0.3297
14499TIP3   OH264911   1.834   3.068   4.141 -0.1304  0.2370  0.2501
14499TIP3    H164912   1.817   3.042   4.232 -0.3745 -0.9718 -0.1185
14499TIP3    H264913   1.881   2.993   4.104  0.8203  1.1252 -0.3628
14500TIP3   OH264914   2.782   6.100   5.158 -0.3803  0.2535  0.0785
14500TIP3    H164915   2.873   6.112   5.128 -0.2688 -1.9835 -0.7375
14500TIP3    H264916   2.739   6.182   5.137  1.4757  1.4407  0.6280
14501TIP3   OH264917   1.927   3.456  12.392 -0.0259 -0.4690 -0.0473
14501TIP3    H164918   1.842   3.448  12.348  0.2316 -0.3186 -0.5731
14501TIP3    H264919   1.928   3.384  12.455  0.1264 -1.4705 -1.1591
14502TIP3   OH264920   6.434   3.319   5.933  0.0079 -0.1480 -0.0404
14502TIP3    H164921   6.481   3.305   6.015 -0.3402  0.3425  0.2504
14502TIP3    H264922   6.382   3.398   5.948 -2.2589 -1.5943  0.2722
14503TIP3   OH264923   1.170   2.101  15.273 -0.0525 -0.7042  0.9373
14503TIP3    H164924   1.209   2.162  15.336 -0.2806  0.1241  0.2854
14503TIP3    H264925   1.076   2.116  15.280 -0.0984 -0.8493  0.6418
14504TIP3   OH264926   4.186   2.281  13.058  0.6063  0.1490 -0.2006
14504TIP3    H164927   4.221   2.199  13.025  1.1754  1.2310 -2.5219
14504TIP3    H264928   4.237   2.300  13.136 -0.8907 -2.6125  1.6224
14505TIP3   OH264929   4.105   5.568  14.406  0.1956  0.0663 -0.4278
14505TIP3    H164930   4.102   5.557  14.311  2.8339 -1.3759 -0.4376
14505TIP3    H264931   4.115   5.663  14.418 -1.0931  0.3675 -1.5064
14506TIP3   OH264932   4.407   3.313   2.705  0.1254 -0.5889 -0.5449
14506TIP3    H164933   4.331   3.315   2.762  0.0872 -0.9484 -0.5865
14506TIP3    H264934   4.398   3.392   2.651 -1.9084 -2.1540 -2.7264
14507TIP3   OH264935   5.835   0.043   3.103 -0.1388  0.2673  0.0714
14507TIP3    H164936   5.761   0.033   3.163  1.0068 -0.4844  1.4244
14507TIP3    H264937   5.905  -0.010   3.142  1.5371  1.9766 -0.4483
14508TIP3   OH264938   6.258   1.239   1.246 -0.1113  0.3626  0.6892
14508TIP3    H164939   6.179   1.270   1.288 -1.8675 -1.2287 -1.2205
14508TIP3    H264940   6.264   1.290   1.165 -0.3579 -0.8683 -0.1417
14509TIP3   OH264941   5.370   5.865  16.125 -0.4613 -0.0201  0.4035
14509TIP3    H164942   5.395   5.957  16.118 -0.6354  0.0450  0.6275
14509TIP3    H264943   5.279   5.863  16.095 -0.8967  0.0999  1.6633
14510TIP3   OH264944   3.360   4.677   0.624 -0.2041 -0.0980 -0.0077
14510TIP3    H164945   3.454   4.695   0.632  0.9644 -4.9071  0.2255
14510TIP3    H264946   3.322   4.711   0.705  1.4373  1.2145  0.2628
14511TIP3   OH264947   5.575   1.403  16.276 -0.3288  0.5359  0.3449
14511TIP3    H164948   5.485   1.433  16.271 -0.3978  0.3679  0.5530
14511TIP3    H264949   5.598   1.379  16.186 -0.3242  1.0493  0.2048
14512TIP3   OH264950   2.251   6.495   3.048  0.2816 -0.2770  0.6166
14512TIP3    H164951   2.275   6.579   3.087 -0.5508  1.4581 -2.2977
14512TIP3    H264952   2.168   6.512   3.003  0.4498 -2.4668 -0.6782
14513TIP3   OH264953   5.630   4.139   4.752 -0.5006  0.4194 -0.3738
14513TIP3    H164954   5.592   4.108   4.670 -1.8235  0.7194  0.1050
14513TIP3    H264955   5.629   4.062   4.809  0.4263  0.2085 -0.6295
14514TIP3   OH264956   6.345   5.982   5.495 -0.3047  0.7577 -0.0906
14514TIP3    H164957   6.440   5.980   5.496 -0.2880  1.0140  1.7837
14514TIP3    H264958   6.323   6.070   5.462  0.0418  0.1867 -1.9710
14515TIP3   OH264959   2.413   1.488   2.320  0.5422  0.0080 -0.0293
14515TIP3    H164960   2.356   1.412   2.308  0.6669  0.3361 -3.5470
14515TIP3    H264961   2.355   1.558   2.349  0.0609 -0.8214  1.0932
14516TIP3   OH264962   6.681   2.592  14.894  0.4785 -0.4187  0.2882
14516TIP3    H164963   6.683   2.518  14.834  0.9335 -0.0145 -0.2074
14516TIP3    H264964   6.763   2.586  14.943 -0.4022 -1.4086  1.7100
14517TIP3   OH264965   3.956   4.109  12.655  0.0091 -0.1173  0.0011
14517TIP3    H164966   4.010   4.173  12.609 -0.1370  0.2485  0.3299
14517TIP3    H264967   3.868   4.123  12.621 -0.1528  0.3514  0.5870
14518TIP3   OH264968   2.756   2.641   3.236 -0.1094  0.1698  0.3386
14518TIP3    H164969   2.833   2.607   3.282  0.1663  1.3076  0.7606
14518TIP3    H264970   2.684   2.587   3.267  0.4282 -0.5530  0.3613
14519TIP3   OH264971   0.462   0.562  10.885  0.5488 -0.1664  0.4918
14519TIP3    H164972   0.431   0.472  10.892 -0.2804  0.1596  1.1605
14519TIP3    H264973   0.552   0.553  10.854 -0.1961 -1.1186 -1.6009
14520TIP3   OH264974   6.764   0.441  10.888  0.0833  0.2010  0.1541
14520TIP3    H164975   6.829   0.503  10.922  0.0367  0.6475 -0.5431
14520TIP3    H264976   6.793   0.422  10.799 -1.7724  1.9595 -0.9197
14521TIP3   OH264977   2.934   3.878   3.740 -0.3897  0.3387 -0.0184
14521TIP3    H164978   2.924   3.922   3.824  2.0668  0.4965  0.2544
14521TIP3    H264979   2.980   3.796   3.761  2.1323  1.3126 -1.3584
14522TIP3   OH264980   0.770   2.395   0.252  0.6961 -0.2701 -0.1084
14522TIP3    H164981   0.748   2.305   0.230  1.5112 -0.4695 -0.1425
14522TIP3    H264982   0.686   2.440   0.257  0.4079 -0.3606 -2.9636
14523TIP3   OH264983   0.761   0.301   0.248  0.0682  0.1175 -0.0566
14523TIP3    H164984   0.715   0.300   0.164 -0.3264  0.4787  0.1568
14523TIP3    H264985   0.732   0.220   0.292  1.9415 -1.2393 -1.1517
14524TIP3   OH264986   1.890   2.265   6.328 -0.3922  0.3647 -0.0912
14524TIP3    H164987   1.953   2.337   6.334 -1.3036  1.1013  1.0982
14524TIP3    H264988   1.804   2.308   6.330 -0.9595 -0.7512  0.7618
14525TIP3   OH264989   2.595   5.900   3.502 -0.1752 -0.3457  0.1771
14525TIP3    H164990   2.591   5.861   3.589  0.7734 -1.3379 -0.2070
14525TIP3    H264991   2.687   5.893   3.476 -0.1339  1.3627 -0.2805
14526TIP3   OH264992   4.934   6.440  15.090 -0.0249  0.0372 -0.0597
14526TIP3    H164993   4.968   6.434  15.179  1.3619  0.3273 -0.5448
14526TIP3    H264994   4.908   6.351  15.067  0.0596 -0.1226  0.4702
14527TIP3   OH264995   0.790   0.246   5.797 -0.2646 -0.2170 -0.5711
14527TIP3    H164996   0.807   0.163   5.753  0.0993  0.8182 -2.4555
14527TIP3    H264997   0.876   0.286   5.808 -0.3565 -0.3943  1.0209
14528TIP3   OH264998   6.608   4.760   1.100  0.5060 -0.2322  0.0428
14528TIP3    H164999   6.633   4.675   1.138 -0.8930 -0.2674  0.9461
14528TIP3    H265000   6.559   4.804   1.169  0.9172  1.1964 -0.5396
14529TIP3   OH265001   4.178   2.422   1.556  0.1054 -0.1625  0.2298
14529TIP3    H165002   4.164   2.330   1.576 -0.5365 -0.1066  0.0571
14529TIP3    H265003   4.143   2.469   1.633  0.5435 -0.0618  0.3745
14530TIP3   OH265004   6.806   3.065  16.367 -0.0757 -0.4559  0.4288
14530TIP3    H165005   6.769   3.020  16.443  0.2818  0.3015  1.0583
14530TIP3    H265006   6.870   3.126  16.403 -1.5114  1.5705 -0.2846
14531TIP3   OH265007   3.623   1.502   0.068 -0.5686  0.4495 -0.2285
14531TIP3    H165008   3.557   1.447   0.111  0.9833 -1.9027 -0.6197
14531TIP3    H265009   3.602   1.497  -0.025  0.4285 -0.7877 -0.4124
14532TIP3   OH265010   1.176   3.139  16.645 -0.3188  0.1019  0.2548
14532TIP3    H165011   1.109   3.206  16.661  0.5831  1.2660 -0.6751
14532TIP3    H265012   1.186   3.136  16.550  0.1611 -0.8618  0.3171
14533TIP3   OH265013   1.387   1.404   1.793  0.0412  0.1846  0.5039
14533TIP3    H165014   1.407   1.489   1.833  0.6425 -0.0062  0.6236
14533TIP3    H265015   1.298   1.384   1.822 -0.5260  1.2737 -0.3949
14534TIP3   OH265016   1.200   6.608   5.899  0.1430  0.5856  0.0130
14534TIP3    H165017   1.191   6.545   5.971  2.9982 -1.8458 -1.4848
14534TIP3    H265018   1.123   6.593   5.844  0.5250 -1.4244 -0.0664
14535TIP3   OH265019   0.204   3.454  16.052  0.2374  0.0552  0.1672
14535TIP3    H165020   0.153   3.500  16.119  0.4940  0.3829  0.1393
14535TIP3    H265021   0.186   3.501  15.971  0.2027 -0.1290  0.0657
14536TIP3   OH265022   2.565   2.921  12.504  0.0008  0.6351 -0.6224
14536TIP3    H165023   2.569   2.927  12.599  1.1302  2.2879 -0.7280
14536TIP3    H265024   2.473   2.933  12.482 -0.4504 -0.8751  0.2794
14537TIP3   OH265025   0.470   5.664   2.839 -0.0474 -0.3235 -0.1153
14537TIP3    H165026   0.498   5.574   2.820 -1.5566 -0.9094  0.2743
14537TIP3    H265027   0.401   5.682   2.774  1.7044  1.3964 -1.6237
14538TIP3   OH265028   0.178   4.003  16.987 -0.1749 -0.4701 -0.2824
14538TIP3    H165029   0.115   3.934  16.964  0.6048 -1.5032  0.5451
14538TIP3    H265030   0.201   4.044  16.904 -2.1523  0.1477 -0.5766
14539TIP3   OH265031   5.508   0.834  12.799 -0.6596  1.0646  0.1690
14539TIP3    H165032   5.441   0.789  12.851  0.4729 -1.0698 -0.1007
14539TIP3    H265033   5.480   0.821  12.708 -0.3222  0.8861  0.0892
14540TIP3   OH265034   4.967   0.906   0.616 -0.1263 -0.1088 -0.3892
14540TIP3    H165035   5.051   0.872   0.585  0.0783 -0.7557  0.7812
14540TIP3    H265036   4.969   0.999   0.595  1.3124  0.0940  0.4539
14541TIP3   OH265037   1.945   3.222  12.033  0.0923 -0.6718  0.2086
14541TIP3    H165038   1.850   3.228  12.023  0.0798 -0.9791  0.1353
14541TIP3    H265039   1.976   3.313  12.030  0.0290 -0.6869 -1.9161
14542TIP3   OH265040   6.017   2.462  14.299  0.0734  0.3794 -0.5221
14542TIP3    H165041   6.033   2.383  14.350 -0.7818  0.8417  0.4810
14542TIP3    H265042   6.051   2.441  14.212  0.5690 -0.8020 -0.0656
14543TIP3   OH265043   3.893   2.705  16.177 -0.8795  0.3221 -0.3726
14543TIP3    H165044   3.904   2.798  16.193  0.5186  0.5326 -2.2698
14543TIP3    H265045   3.969   2.664  16.219 -0.6215  0.2128 -0.9448
14544TIP3   OH265046   6.781   2.030  16.001 -0.5670 -0.1724  0.4008
14544TIP3    H165047   6.847   1.977  16.047 -1.5054 -1.9674 -0.2390
14544TIP3    H265048   6.700   1.981  16.011 -1.0602  0.0212 -2.0627
14545TIP3   OH265049   4.426   4.374  15.810  0.3471  0.1590 -0.2729
14545TIP3    H165050   4.412   4.442  15.744  0.8821  0.6604  0.1225
14545TIP3    H265051   4.515   4.389  15.842  0.3673 -0.5517  0.0252
14546TIP3   OH265052   0.245   0.701   5.159  0.4956 -0.0412  0.4059
14546TIP3    H165053   0.329   0.718   5.203  1.4716  0.5525 -1.5828
14546TIP3    H265054   0.268   0.649   5.082 -0.6983  1.6039 -1.1360
14547TIP3   OH265055   5.217   0.897   4.568  0.5047  0.1178  0.1393
14547TIP3    H165056   5.217   0.971   4.508  0.1410  0.7542  0.8969
14547TIP3    H265057   5.133   0.905   4.615  0.7942 -0.3339  0.7493
14548TIP3   OH265058   3.086   6.128   5.261  0.7739 -0.0833 -0.1189
14548TIP3    H165059   3.122   6.211   5.232 -1.3289  0.8480 -0.2316
14548TIP3    H265060   3.049   6.088   5.182 -0.2725 -0.0135  0.3134
14549TIP3   OH265061   6.702   0.521   4.226 -0.1218  0.0970  0.4262
14549TIP3    H165062   6.731   0.593   4.171 -0.1693 -0.3033 -0.1346
14549TIP3    H265063   6.616   0.496   4.191  0.3667 -0.9328 -0.0860
14550TIP3   OH265064   2.843   3.441   0.650  0.1019  0.3076 -0.5959
14550TIP3    H165065   2.880   3.445   0.562  1.2042 -1.8052 -0.2915
14550TIP3    H265066   2.907   3.393   0.701 -2.0534 -1.5883  0.5215
14551TIP3   OH265067   1.101   1.907  16.636  0.3443  0.3120  0.4669
14551TIP3    H165068   1.063   1.975  16.693  0.8418 -0.3601  1.6381
14551TIP3    H265069   1.060   1.826  16.665  1.6695 -0.2433  0.8590
14552TIP3   OH265070   1.468   2.514  12.191 -0.1126  0.0883 -0.0844
14552TIP3    H165071   1.549   2.560  12.209 -0.0507  0.1539 -0.5061
14552TIP3    H265072   1.400   2.581  12.196 -0.0095  0.2631 -0.8144
14553TIP3   OH265073   3.847   4.199   0.835 -0.0609 -0.4033  0.1703
14553TIP3    H165074   3.866   4.130   0.771  0.6930  1.6736 -1.9985
14553TIP3    H265075   3.761   4.178   0.869  1.6966 -4.6533  2.7789
14554TIP3   OH265076   5.009   6.813   1.282  0.3358  0.0567  0.5041
14554TIP3    H165077   4.981   6.868   1.209 -0.0273 -0.1634  0.4754
14554TIP3    H265078   4.977   6.857   1.360 -1.5450 -1.0045  0.3980
14555TIP3   OH265079   2.814   5.455  16.805 -0.0850  0.4050 -0.2895
14555TIP3    H165080   2.741   5.427  16.752  0.3888 -0.0569 -0.7089
14555TIP3    H265081   2.793   5.425  16.894 -1.3680  2.0824  0.0342
14556TIP3   OH265082   4.718   2.432   4.457 -0.0870 -0.0103 -0.1154
14556TIP3    H165083   4.737   2.418   4.550 -0.5955 -0.0569 -0.0134
14556TIP3    H265084   4.636   2.385   4.442 -0.6943  1.0452 -0.2804
14557TIP3   OH265085   6.619   1.268  16.177 -0.2626 -0.2999 -0.0202
14557TIP3    H165086   6.594   1.306  16.092  0.5820 -1.0391 -0.6181
14557TIP3    H265087   6.591   1.177  16.171 -2.0938  0.1342  1.3275
14558TIP3   OH265088   5.196   5.709   1.208 -0.2703 -0.2660 -0.6476
14558TIP3    H165089   5.275   5.729   1.257 -0.6701 -0.8589  0.2813
14558TIP3    H265090   5.204   5.757   1.126  0.6890  0.2798 -0.2362
14559TIP3   OH265091   4.441   0.678  13.955 -0.3145 -0.6342  0.0737
14559TIP3    H165092   4.388   0.650  13.880  0.4489 -2.6502  0.2192
14559TIP3    H265093   4.417   0.769  13.969 -0.9497 -0.3869 -2.2184
14560TIP3   OH265094   4.285   2.599  12.037  0.2071  0.0957 -0.4018
14560TIP3    H165095   4.366   2.649  12.042  1.0112 -1.2519  1.8538
14560TIP3    H265096   4.228   2.640  12.103 -1.4337  1.6493 -2.6157
14561TIP3   OH265097   1.309   6.076  15.952 -0.2535 -0.3305 -0.3825
14561TIP3    H165098   1.335   6.071  16.044  4.4274  2.2617 -1.2384
14561TIP3    H265099   1.260   6.158  15.946  0.1374 -0.0845 -0.2877
14562TIP3   OH265100   5.337   1.662   5.144 -0.5668  0.2903  0.3155
14562TIP3    H165101   5.262   1.715   5.115 -1.1872 -0.6261  0.2076
14562TIP3    H265102   5.413   1.715   5.121 -1.0517 -0.0196 -2.3331
14563TIP3   OH265103   0.469   0.608   1.644 -0.0836 -0.0328 -0.9522
14563TIP3    H165104   0.538   0.542   1.649 -0.7811 -0.7362  0.0270
14563TIP3    H265105   0.514   0.688   1.617  1.1541 -0.4141 -0.1317
14564TIP3   OH265106   3.149   6.074   3.931  0.2831 -0.0778 -0.7028
14564TIP3    H165107   3.148   6.168   3.948  0.9977 -0.6134  3.4789
14564TIP3    H265108   3.239   6.047   3.948 -0.0210 -1.6194 -1.3548
14565TIP3   OH265109   1.855   3.691   2.145  0.1026  0.1446  0.6232
14565TIP3    H165110   1.815   3.776   2.128  1.0963  0.6130  0.5933
14565TIP3    H265111   1.924   3.708   2.208  2.0700 -0.1399 -1.3147
14566TIP3   OH265112   1.206   6.026   3.573 -0.2649  0.1754  0.2287
14566TIP3    H165113   1.277   5.994   3.517 -0.2327 -2.7013  1.7129
14566TIP3    H265114   1.128   5.982   3.540 -0.4320 -0.6707  1.6678
14567TIP3   OH265115   2.034   5.991   3.652  0.2982 -0.0111 -0.3181
14567TIP3    H165116   2.083   6.033   3.581  0.6920 -0.7810 -0.5178
14567TIP3    H265117   1.948   6.033   3.650  0.3859  0.1517 -1.0936
14568TIP3   OH265118   3.756   3.197  11.870  0.4222 -0.5584  0.5144
14568TIP3    H165119   3.716   3.213  11.785  2.6541 -1.3916 -0.8020
14568TIP3    H265120   3.850   3.194  11.852  1.1069  0.5697  3.2488
14569TIP3   OH265121   6.754   3.874   6.749 -0.1908 -0.2583 -0.0913
14569TIP3    H165122   6.787   3.863   6.660 -1.5379 -0.6049 -0.5692
14569TIP3    H265123   6.688   3.805   6.759  0.4682 -0.7129  1.4487
14570TIP3   OH265124   6.138   1.997  15.943 -0.0381  0.0562  0.1818
14570TIP3    H165125   6.203   2.024  16.008  0.1036  0.2098 -0.0238
14570TIP3    H265126   6.133   2.069  15.881  1.6865 -1.0783 -1.3990
14571TIP3   OH265127   3.096   2.561  16.899  0.3623  0.1713  1.2101
14571TIP3    H165128   3.174   2.554  16.953  0.8183  1.0912  0.6980
14571TIP3    H265129   3.124   2.536  16.811  0.1181  0.6234  0.9963
14572TIP3   OH265130   3.261   4.751  15.476  0.0891  0.4125  0.1766
14572TIP3    H165131   3.325   4.715  15.414 -1.0777 -1.1375 -0.1809
14572TIP3    H265132   3.215   4.674  15.510 -1.9954  1.5118 -0.0331
14573TIP3   OH265133   1.138   1.404   3.325  0.4384 -0.4073  0.2383
14573TIP3    H165134   1.098   1.380   3.408  1.0295 -0.6114  0.4672
14573TIP3    H265135   1.219   1.353   3.321  1.6623  1.3956  0.6651
14574TIP3   OH265136   3.512   2.391   3.290 -0.2825  0.3664 -0.1261
14574TIP3    H165137   3.602   2.379   3.319 -0.1845  1.0941 -0.1116
14574TIP3    H265138   3.473   2.303   3.296  0.4126  0.0494 -0.1197
14575TIP3   OH265139   4.646   5.413  16.328 -0.4449 -0.1651  1.1769
14575TIP3    H165140   4.741   5.418  16.333 -0.2915 -1.0490 -0.3144
14575TIP3    H265141   4.628   5.321  16.311 -1.3424  0.4744 -1.8945
14576TIP3   OH265142   1.262   4.771  11.345 -0.0510  0.1247  0.4874
14576TIP3    H165143   1.288   4.839  11.284  1.6750  0.3972  1.4715
14576TIP3    H265144   1.174   4.746  11.316  0.2885  0.9516 -1.4452
14577TIP3   OH265145   3.579   1.660   3.217 -0.1777  0.1291  0.1987
14577TIP3    H165146   3.612   1.749   3.207 -0.4173  0.0857 -1.1405
14577TIP3    H265147   3.520   1.648   3.142  0.0455 -1.2431  0.2252
14578TIP3   OH265148   3.649   3.772   3.038 -0.4580  0.1626 -0.0289
14578TIP3    H165149   3.667   3.815   2.955 -1.2225 -0.5561 -0.5890
14578TIP3    H265150   3.573   3.819   3.073 -0.4693  0.1203  0.0035
14579TIP3   OH265151   1.039   3.430   0.668  0.4423  0.0526  0.1586
14579TIP3    H165152   1.022   3.493   0.739  1.9451 -0.5578  1.0986
14579TIP3    H265153   1.066   3.485   0.595 -1.1084  0.6949  0.0328
14580TIP3   OH265154   3.498   5.140   6.782 -0.0508  0.1112 -0.2424
14580TIP3    H165155   3.530   5.056   6.813  1.7294  0.2643 -1.5254
14580TIP3    H265156   3.458   5.121   6.697  1.1247  0.6606 -0.9393
14581TIP3   OH265157   4.904   3.745   4.697 -0.3928  0.3034 -0.0195
14581TIP3    H165158   4.989   3.788   4.711  0.0705 -0.2421 -1.0715
14581TIP3    H265159   4.861   3.798   4.630 -1.4455  1.3096  1.3859
14582TIP3   OH265160   5.789   5.844  15.056  0.7200 -0.1442 -0.0295
14582TIP3    H165161   5.712   5.850  14.999  0.8804  1.0385 -0.1456
14582TIP3    H265162   5.754   5.823  15.142  0.3540 -0.5187 -0.2644
14583TIP3   OH265163   0.420   2.869  15.481 -0.6055  0.1280 -0.1542
14583TIP3    H165164   0.385   2.810  15.415  1.4028 -2.5550  1.0070
14583TIP3    H265165   0.503   2.900  15.445  0.0460 -0.6100  0.6572
14584TIP3   OH265166   4.353   4.692   1.980  0.1555  0.5723  0.1818
14584TIP3    H165167   4.425   4.755   1.969  0.2838  0.3518 -0.2648
14584TIP3    H265168   4.335   4.660   1.891 -0.7371  0.8843  0.2376
14585TIP3   OH265169   4.303   0.098  11.872  0.0384  0.3029  0.4952
14585TIP3    H165170   4.378   0.070  11.925  0.8448 -1.0057 -1.2269
14585TIP3    H265171   4.243   0.023  11.876 -1.6348  1.6520  2.5286
14586TIP3   OH265172   6.065   0.584  14.236  0.3309 -0.3460  0.1900
14586TIP3    H165173   6.052   0.502  14.188  1.5940 -0.7084  0.4275
14586TIP3    H265174   6.037   0.564  14.325 -1.2692  0.0975 -0.1786
14587TIP3   OH265175   0.742   1.969   0.409  0.0147  0.1755 -0.8740
14587TIP3    H165176   0.680   1.901   0.434 -1.9515  0.5192 -4.2363
14587TIP3    H265177   0.694   2.051   0.419  1.1813  0.8021 -0.1500
14588TIP3   OH265178   3.381   5.265  13.434  0.3960 -0.0348 -0.3774
14588TIP3    H165179   3.434   5.309  13.501  0.9040  0.4928 -1.1091
14588TIP3    H265180   3.378   5.174  13.462  1.3282  0.0135 -0.0806
14589TIP3   OH265181   6.700   4.862  10.841  0.0397  0.1764  0.5811
14589TIP3    H165182   6.746   4.868  10.925  1.3569 -1.0964 -0.0059
14589TIP3    H265183   6.710   4.770  10.814 -1.6719  0.1903 -0.2580
14590TIP3   OH265184   2.726   6.337  14.402 -0.2442  0.0761 -0.4083
14590TIP3    H165185   2.672   6.391  14.344 -0.1946 -0.1563 -0.6718
14590TIP3    H265186   2.816   6.352  14.373 -0.2756 -0.6082 -0.8777
14591TIP3   OH265187   1.158   6.555   0.454  0.4048 -0.2171 -0.0041
14591TIP3    H165188   1.236   6.553   0.508  0.0036 -0.8752  0.5530
14591TIP3    H265189   1.187   6.524   0.368  0.5371 -1.4824  0.4844
14592TIP3   OH265190   3.064   0.714  12.665  0.7318  0.1395  0.4135
14592TIP3    H165191   3.103   0.652  12.726  0.6665  0.2158  0.5332
14592TIP3    H265192   3.136   0.743  12.609  0.5276 -1.0386 -0.5037
14593TIP3   OH265193   3.301   0.669   0.456 -0.1150 -0.1804 -0.5451
14593TIP3    H165194   3.379   0.615   0.472 -0.0357  0.3445  1.0066
14593TIP3    H265195   3.289   0.666   0.361  1.2119 -1.0818 -0.7117
14594TIP3   OH265196   2.929   2.582  13.812  0.0073  0.3345  0.1035
14594TIP3    H165197   2.896   2.559  13.899 -0.2760  0.9541  0.1655
14594TIP3    H265198   2.915   2.503  13.759  0.6473 -0.2240  0.7405
14595TIP3   OH265199   5.115   6.746  15.791  0.2940 -0.6285  0.0049
14595TIP3    H165200   5.112   6.832  15.749  1.5804 -0.4456  0.2376
14595TIP3    H265201   5.195   6.748  15.844 -0.6591 -1.2740  1.5384
14596TIP3   OH265202   3.110   5.157   5.155  0.2176  0.0644  0.0420
14596TIP3    H165203   3.192   5.206   5.155  0.4319 -0.2826 -0.6003
14596TIP3    H265204   3.133   5.072   5.118 -0.2194 -0.4116  0.8353
14597TIP3   OH265205   2.666   0.743   4.254 -0.2534 -0.2449 -0.1393
14597TIP3    H165206   2.733   0.763   4.189 -0.6938  0.2854 -0.4346
14597TIP3    H265207   2.587   0.728   4.204 -0.0310 -2.5040  0.0836
14598TIP3   OH265208   5.386   3.602   6.378 -0.0856  0.3381  0.4471
14598TIP3    H165209   5.345   3.516   6.391  1.2344 -0.5290 -0.8466
14598TIP3    H265210   5.348   3.657   6.446 -0.8273 -1.3138  1.4297
14599TIP3   OH265211   0.258   1.321   5.220 -0.7488  0.4971  0.1025
14599TIP3    H165212   0.169   1.310   5.255 -0.0679 -1.8875  1.2854
14599TIP3    H265213   0.278   1.413   5.233 -2.2955  0.6482  1.7080
14600TIP3   OH265214   1.040   4.569  12.827 -0.8856  0.5374 -0.1451
14600TIP3    H165215   1.132   4.556  12.803 -0.4105  3.8285 -0.4906
14600TIP3    H265216   1.029   4.514  12.904  1.3286 -0.0421 -0.1441
14601TIP3   OH265217   4.468   1.448  14.960 -0.4662 -0.9091  0.2546
14601TIP3    H165218   4.450   1.533  15.001  1.5037 -0.3158  0.0320
14601TIP3    H265219   4.398   1.437  14.896  0.5685  1.8508 -1.5481
14602TIP3   OH265220   5.245   0.276  11.616  0.7063 -0.0481 -0.0217
14602TIP3    H165221   5.311   0.207  11.622 -0.6908 -1.4035  0.4043
14602TIP3    H265222   5.169   0.233  11.578 -0.8145  0.7631  1.9143
14603TIP3   OH265223   0.138   6.134  10.776  0.0383 -0.5795 -0.2247
14603TIP3    H165224   0.130   6.081  10.696 -0.3871  0.0727 -0.6292
14603TIP3    H265225   0.047   6.153  10.801  0.1718 -0.7040  0.3663
14604TIP3   OH265226   3.627   1.741   6.252  0.0113  0.5823  0.5144
14604TIP3    H165227   3.682   1.728   6.175  0.9492 -0.1479  1.2848
14604TIP3    H265228   3.676   1.703   6.324 -1.9417 -1.0366  1.0895
14605TIP3   OH265229   0.048   5.019  16.900 -0.3868  0.2334 -0.0549
14605TIP3    H165230   0.070   4.931  16.872  0.6343  0.3846  0.2164
14605TIP3    H265231   0.083   5.025  16.989 -0.8669  0.7597  0.1068
14606TIP3   OH265232   2.143   3.373  16.651  0.1320  0.0343  0.6452
14606TIP3    H165233   2.173   3.413  16.733  1.1056  3.1643 -1.0639
14606TIP3    H265234   2.208   3.305  16.632  0.6930  0.2484  1.7368
14607TIP3   OH265235   4.493   2.692   3.460  0.0762 -0.0988 -1.2830
14607TIP3    H165236   4.505   2.700   3.554 -0.8546 -1.7821 -0.9914
14607TIP3    H265237   4.536   2.770   3.424  0.5940  0.4866  0.4987
14608TIP3   OH265238   4.571   1.270  12.368 -0.5169 -0.2412 -0.1263
14608TIP3    H165239   4.530   1.292  12.452 -0.4471 -0.5227 -0.0149
14608TIP3    H265240   4.636   1.203  12.391 -1.5060 -1.4108 -0.5995
14609TIP3   OH265241   6.214   4.092   4.405  0.8062  0.2530 -0.6945
14609TIP3    H165242   6.197   4.076   4.498 -0.9261 -0.3531 -1.0812
14609TIP3    H265243   6.232   4.005   4.369  1.7453  0.5201 -0.8868
14610TIP3   OH265244   3.100   0.874   1.188 -0.2404  0.4718  0.1393
14610TIP3    H165245   3.128   0.898   1.277 -1.8850  0.7902  0.5969
14610TIP3    H265246   3.116   0.953   1.136  1.0020  0.1921  0.0598
14611TIP3   OH265247   0.766   6.103  15.339 -0.0277 -0.2181 -0.1830
14611TIP3    H165248   0.710   6.071  15.410  0.1422 -0.6101 -0.2244
14611TIP3    H265249   0.726   6.186  15.312  0.3444  0.3472  0.9059
14612TIP3   OH265250   4.036   3.057   1.560  0.0788 -0.2894  0.0957
14612TIP3    H165251   4.106   3.069   1.624  0.4947  0.5792 -0.5090
14612TIP3    H265252   3.984   2.984   1.595  0.4366  0.0046  1.2856
14613TIP3   OH265253   0.159   1.889  13.534  0.3161 -0.1305 -0.2931
14613TIP3    H165254   0.194   1.865  13.619  0.1418 -2.0274 -0.7050
14613TIP3    H265255   0.069   1.855  13.534 -0.1490  1.0387 -0.7489
14614TIP3   OH265256   2.360   1.828  13.114  0.3550 -0.3557  0.3274
14614TIP3    H165257   2.267   1.834  13.133  0.5306  1.4857  0.8076
14614TIP3    H265258   2.403   1.870  13.189  1.4575  0.4311 -0.7024
14615TIP3   OH265259   4.258   1.909  11.178 -0.0415 -0.6874  0.5135
14615TIP3    H165260   4.224   1.940  11.094  0.5401  0.1553  0.5768
14615TIP3    H265261   4.263   1.987  11.233  0.5016 -1.0606  1.0132
14616TIP3   OH265262   3.775   1.344  15.846  0.4832 -0.5645 -0.0565
14616TIP3    H165263   3.707   1.371  15.909  1.2290 -2.4819  1.7126
14616TIP3    H265264   3.732   1.348  15.761 -0.9263  1.0741  0.6634
14617TIP3   OH265265   3.895   6.398   6.070  0.4922 -0.6578 -0.2899
14617TIP3    H165266   3.977   6.351   6.056  1.4816  1.2279 -1.0587
14617TIP3    H265267   3.843   6.379   5.992  2.0388  1.7270 -2.0494
14618TIP3   OH265268   6.438   2.641  12.461 -0.5406  0.5831  0.2350
14618TIP3    H165269   6.493   2.564  12.450  0.3709  0.7600  2.9417
14618TIP3    H265270   6.466   2.701  12.391 -0.6465 -1.1231 -1.3494
14619TIP3   OH265271   6.528   6.711  16.826 -0.3101 -0.1240  0.2220
14619TIP3    H165272   6.609   6.739  16.783 -0.3335 -2.8012 -1.8306
14619TIP3    H265273   6.532   6.750  16.913  2.6170  0.7945 -0.2181
14620TIP3   OH265274   2.938   4.064   0.374 -0.1362  0.0441  0.5135
14620TIP3    H165275   2.851   4.030   0.351  0.0532 -0.9682  1.1980
14620TIP3    H265276   2.989   3.985   0.393  0.3457  0.7083  2.1310
14621TIP3   OH265277   1.324   4.049   4.949  0.0639 -0.1523  0.4066
14621TIP3    H165278   1.339   4.141   4.971 -0.4884  0.7057 -2.4851
14621TIP3    H265279   1.378   4.033   4.872 -0.3302 -2.1246  0.4793
14622TIP3   OH265280   2.443   6.531  12.463  0.1451 -0.3546 -0.1015
14622TIP3    H165281   2.430   6.452  12.411 -0.0778  0.0887 -0.7313
14622TIP3    H265282   2.476   6.499  12.548 -0.0855 -1.1242 -0.2949
14623TIP3   OH265283   0.587   0.529  11.376  0.0256  0.6080  0.5236
14623TIP3    H165284   0.615   0.438  11.372  0.3758  0.6958  0.8569
14623TIP3    H265285   0.511   0.534  11.318  0.9496  0.4406 -0.7694
14624TIP3   OH265286   3.691   1.665   4.666 -0.1639 -0.1544 -0.7544
14624TIP3    H165287   3.650   1.717   4.735  0.3230  0.9354 -1.2610
14624TIP3    H265288   3.721   1.586   4.710  1.4643  1.1700  0.6343
14625TIP3   OH265289   1.641   2.947  11.164 -0.0601  0.8624 -0.3758
14625TIP3    H165290   1.648   2.922  11.072 -3.7765 -1.0083 -0.3241
14625TIP3    H265291   1.578   3.019  11.165  1.1536  1.9738  0.6433
14626TIP3   OH265292   5.683   3.916  16.470 -1.0030  0.0011  0.0789
14626TIP3    H165293   5.615   3.953  16.414 -0.9824 -0.1511 -0.0464
14626TIP3    H265294   5.684   3.823  16.448 -1.4308 -0.1777  0.7754
14627TIP3   OH265295   2.298   6.069  12.919 -0.0126 -0.4065  0.1558
14627TIP3    H165296   2.315   6.040  12.829 -0.3905  2.0703 -0.7921
14627TIP3    H265297   2.205   6.049  12.933 -0.0245 -0.5357 -0.0946
14628TIP3   OH265298   0.034   5.504   2.484  0.2475 -0.4395  0.1927
14628TIP3    H165299   0.004   5.592   2.463  0.4526 -0.2539  0.6769
14628TIP3    H265300  -0.038   5.447   2.456 -0.0310 -0.0949  0.2054
14629TIP3   OH265301   4.146   3.988  17.071  0.1361  0.0300  0.4405
14629TIP3    H165302   4.179   4.078  17.078 -0.1493  0.2410 -0.7996
14629TIP3    H265303   4.093   3.976  17.150  1.1336  0.5317  1.2244
14630TIP3   OH265304   2.646   5.846   2.994 -0.2792  0.2039 -0.4206
14630TIP3    H165305   2.593   5.846   3.074 -1.3770 -0.2765 -1.1129
14630TIP3    H265306   2.664   5.754   2.977 -2.3958  0.0069 -2.1471
14631TIP3   OH265307   2.099   4.147   4.877 -0.0250 -0.2458 -0.1515
14631TIP3    H165308   2.044   4.171   4.802 -0.4296 -0.4823  0.0724
14631TIP3    H265309   2.143   4.067   4.849 -2.3160 -1.9718  0.9075
14632TIP3   OH265310   2.912   6.741  15.273  0.1216 -0.6034  0.1519
14632TIP3    H165311   2.946   6.661  15.314  1.7812 -0.1448 -0.2603
14632TIP3    H265312   2.979   6.807  15.291 -0.4848  0.3122 -0.8647
14633TIP3   OH265313   6.773   1.881   3.246 -0.0474 -0.2387  0.0671
14633TIP3    H165314   6.862   1.857   3.224  0.1447  0.5038  0.0211
14633TIP3    H265315   6.752   1.955   3.189 -1.5153 -1.8340 -1.5752
14634TIP3   OH265316   1.795   5.247  15.722  0.1391 -0.0060  0.1650
14634TIP3    H165317   1.843   5.230  15.803  1.4243  2.8158  0.1323
14634TIP3    H265318   1.860   5.234  15.652 -1.0943 -2.9679 -0.6022
14635TIP3   OH265319   5.000   0.955  14.825 -0.5103  0.0369 -0.3329
14635TIP3    H165320   5.089   0.938  14.855 -0.7968 -1.5714 -0.2678
14635TIP3    H265321   4.945   0.907  14.888 -1.3144 -0.3848 -1.3324
14636TIP3   OH265322   0.024   5.231  14.348 -0.6624  0.3949  0.6798
14636TIP3    H165323   0.099   5.172  14.351 -0.8148  0.2192  1.4246
14636TIP3    H265324   0.017   5.257  14.257 -0.6716 -0.8441  0.3072
14637TIP3   OH265325   0.830   6.261  11.291 -0.0349  0.1576 -0.5456
14637TIP3    H165326   0.822   6.353  11.266  0.2901  0.3960  0.2193
14637TIP3    H265327   0.820   6.214  11.208 -1.3125  0.8145 -0.8045
14638TIP3   OH265328   0.138   3.545  13.996 -0.2692  0.2907 -0.4958
14638TIP3    H165329   0.068   3.510  14.052 -1.9004  2.0848 -1.2921
14638TIP3    H265330   0.147   3.636  14.024  4.1495 -0.6087  1.8307
14639TIP3   OH265331   5.532   2.397  14.881 -0.1778 -0.3689 -0.1902
14639TIP3    H165332   5.505   2.473  14.831 -0.7417  0.5203  1.3896
14639TIP3    H265333   5.550   2.330  14.815  1.6782  1.5128 -1.7053
14640TIP3   OH265334   2.771   4.938   5.587 -0.4581  0.2293 -0.6828
14640TIP3    H165335   2.776   4.963   5.679  0.3112 -1.8021 -0.1174
14640TIP3    H265336   2.716   5.004   5.547  0.0177  1.7357  1.0242
14641TIP3   OH265337   2.268   2.098  13.313  0.5437 -0.2212 -0.2542
14641TIP3    H165338   2.330   2.029  13.336 -0.0574 -1.2392 -1.5898
14641TIP3    H265339   2.191   2.052  13.279 -1.2773  0.9564  1.9420
14642TIP3   OH265340   0.600   0.312  13.767 -0.4269 -0.1847 -0.7117
14642TIP3    H165341   0.595   0.218  13.782 -1.4195  0.1933  1.8202
14642TIP3    H265342   0.512   0.335  13.735 -1.4380  0.3132  2.1502
14643TIP3   OH265343   2.115   1.373  15.630  0.4097 -0.2907  0.6818
14643TIP3    H165344   2.043   1.310  15.617 -0.9730  1.5952 -1.6405
14643TIP3    H265345   2.194   1.320  15.622 -0.6923 -2.0302  0.6142
14644TIP3   OH265346   0.548   4.236  14.217 -0.7221 -0.1417  0.2690
14644TIP3    H165347   0.616   4.188  14.170 -0.4581  0.1366  0.3640
14644TIP3    H265348   0.592   4.314  14.251 -1.3467  0.6383 -0.6636
14645TIP3   OH265349   0.628   6.033   3.382 -0.4908 -0.2787 -0.1542
14645TIP3    H165350   0.611   6.053   3.474  0.1502 -0.5452  0.0260
14645TIP3    H265351   0.668   5.946   3.383  4.0166  1.4785 -0.1744
14646TIP3   OH265352   2.845   5.017   3.807  0.0629 -0.2239  0.6118
14646TIP3    H165353   2.930   4.973   3.818  0.6551  0.3227 -1.4171
14646TIP3    H265354   2.788   4.951   3.768  0.3699  0.1924 -0.5698
14647TIP3   OH265355   5.047   5.672   3.558  1.0102 -0.1187 -0.6646
14647TIP3    H165356   4.964   5.713   3.582  0.2936 -1.6079 -0.4826
14647TIP3    H265357   5.044   5.666   3.462  0.3490 -1.2725 -0.5809
14648TIP3   OH265358   0.947   6.169   5.386 -0.0000  0.5080  1.1230
14648TIP3    H165359   0.896   6.109   5.440  0.8070 -1.6567 -0.3604
14648TIP3    H265360   0.915   6.154   5.297  3.4153 -1.3680  0.0329
14649TIP3   OH265361   0.778   6.021  14.801  0.5208 -0.1358  0.0884
14649TIP3    H165362   0.764   5.977  14.717  0.0198 -1.0409  0.6279
14649TIP3    H265363   0.737   6.106  14.791  0.5876 -0.1881 -0.6364
14650TIP3   OH265364   0.601   1.402   0.280  0.2232  0.2913  0.1714
14650TIP3    H165365   0.573   1.311   0.269  0.9868  0.3077 -2.5002
14650TIP3    H265366   0.688   1.405   0.240 -0.6811  2.6518 -1.8375
14651TIP3   OH265367   6.707   3.789  11.434 -0.3760  0.0673 -0.0920
14651TIP3    H165368   6.716   3.868  11.486 -1.9347 -0.4141  1.0035
14651TIP3    H265369   6.613   3.784  11.414 -0.2982 -1.4181 -0.2302
14652TIP3   OH265370   5.972   1.986   0.303  0.3641 -0.4589 -0.3555
14652TIP3    H165371   6.005   2.033   0.380 -0.8708 -2.2703  1.3892
14652TIP3    H265372   5.884   2.022   0.289 -0.3353 -1.7176  0.5935
14653TIP3   OH265373   2.810   3.531   1.842  0.0585  0.0728 -0.8295
14653TIP3    H165374   2.836   3.439   1.836  0.0798 -0.0368  0.6090
14653TIP3    H265375   2.849   3.561   1.924  0.2066  1.4259 -1.3847
14654TIP3   OH265376   2.463   5.442  12.154 -0.2542  0.1918 -0.0422
14654TIP3    H165377   2.458   5.487  12.069  0.6679 -0.0487 -0.2336
14654TIP3    H265378   2.436   5.509  12.218 -3.7022 -0.3902 -0.6973
14655TIP3   OH265379   1.640   4.567   2.256  0.1103  0.3884  0.0639
14655TIP3    H165380   1.711   4.502   2.253 -0.3105 -0.1101  0.6556
14655TIP3    H265381   1.615   4.570   2.348  1.0034  2.3752  0.2836
14656TIP3   OH265382   1.675   0.998   1.691  0.0548  0.1448 -0.2984
14656TIP3    H165383   1.590   1.024   1.726 -0.1681 -0.1975 -0.5792
14656TIP3    H265384   1.706   0.930   1.751  0.0640  0.1651 -0.2802
14657TIP3   OH265385   4.450   6.173  12.985  0.0909  0.7005  0.7659
14657TIP3    H165386   4.487   6.091  12.952 -0.7659 -0.0635  1.6473
14657TIP3    H265387   4.527   6.227  13.003  0.6860 -0.0144  0.4577
14658TIP3   OH265388   4.349   5.470  15.620 -0.2679 -0.1615 -0.1004
14658TIP3    H165389   4.356   5.457  15.525 -2.1930  3.8440 -1.0039
14658TIP3    H265390   4.262   5.438  15.642 -0.5641  0.5944 -0.1243
14659TIP3   OH265391   1.334   6.440  13.595 -0.6426 -0.1769  0.6356
14659TIP3    H165392   1.381   6.509  13.641  0.4460 -0.8125  0.5096
14659TIP3    H265393   1.286   6.393  13.664 -0.8829  0.2950  0.7994
14660TIP3   OH265394   0.596   1.115  13.215  0.1272 -0.2527  0.2254
14660TIP3    H165395   0.597   1.061  13.136 -0.1677 -1.5895  1.1094
14660TIP3    H265396   0.675   1.090  13.263 -0.2436 -0.2416  0.8603
14661TIP3   OH265397   2.647   4.658  15.439 -0.3457  0.1908  1.0081
14661TIP3    H165398   2.666   4.652  15.532  0.3477 -1.0474  0.8042
14661TIP3    H265399   2.581   4.591  15.423  0.0506 -0.0845  0.4841
14662TIP3   OH265400   5.601   0.650   2.675 -0.2049 -0.1835 -0.0529
14662TIP3    H165401   5.582   0.744   2.666  1.4299  0.2625  0.7658
14662TIP3    H265402   5.696   0.646   2.686 -0.2812 -1.9256  0.1645
14663TIP3   OH265403   3.146   6.316   1.331 -0.9195 -0.3925 -0.1120
14663TIP3    H165404   3.185   6.255   1.394  0.9964  0.1760 -0.6705
14663TIP3    H265405   3.081   6.364   1.382 -2.1658 -2.5441  0.4462
14664TIP3   OH265406   5.239   4.423   0.233  0.0448 -0.0612  0.2096
14664TIP3    H165407   5.170   4.361   0.212  0.9578 -0.6614 -1.2045
14664TIP3    H265408   5.226   4.444   0.325 -2.6951  0.7559 -0.2990
14665TIP3   OH265409   1.063   4.285   1.508 -0.8534 -0.3097 -0.6301
14665TIP3    H165410   1.023   4.239   1.433 -0.6420  1.6110 -1.9976
14665TIP3    H265411   0.993   4.342   1.540 -0.1430  0.8777 -1.1389
14666TIP3   OH265412   1.942   6.326   0.218  0.3116 -0.3005 -0.2321
14666TIP3    H165413   1.874   6.294   0.160  1.4300 -1.6507 -0.8603
14666TIP3    H265414   1.974   6.405   0.176  0.2342 -0.5607 -0.7918
14667TIP3   OH265415   4.180   2.684  15.619 -0.3649  0.0352  0.0279
14667TIP3    H165416   4.166   2.598  15.659  0.7564 -0.5803 -0.8112
14667TIP3    H265417   4.157   2.671  15.527 -2.9434  1.4337  0.3878
14668TIP3   OH265418   4.700   3.277  13.262  0.5104  0.2093 -0.2806
14668TIP3    H165419   4.785   3.302  13.226  0.5800 -0.0101 -0.2740
14668TIP3    H265420   4.647   3.356  13.257 -0.3178 -0.4049 -3.2876
14669TIP3   OH265421   5.843   6.170   5.733  0.2006  0.4002 -0.4645
14669TIP3    H165422   5.863   6.106   5.801 -0.3372  0.7350  0.0140
14669TIP3    H265423   5.926   6.182   5.686  0.3301 -0.5660 -0.4988
14670TIP3   OH265424   0.219   1.541   2.708 -0.2654 -0.8060  0.4172
14670TIP3    H165425   0.277   1.466   2.705  0.2700 -0.3751 -0.2395
14670TIP3    H265426   0.179   1.545   2.621 -0.1776 -0.2483  0.3974
14671TIP3   OH265427   2.536   0.588  16.418  0.3810 -0.0750 -0.4652
14671TIP3    H165428   2.522   0.656  16.485  0.5016 -0.2272 -0.2834
14671TIP3    H265429   2.628   0.562  16.430 -0.6374 -3.1454  2.2186
14672TIP3   OH265430   5.493   3.983   0.404  0.5634 -0.3056 -0.7620
14672TIP3    H165431   5.467   3.908   0.350 -1.0525  0.7361 -1.5358
14672TIP3    H265432   5.572   4.016   0.362  0.8426 -1.1002 -0.8829
14673TIP3   OH265433   5.727   2.555   1.666  0.1207  0.0917 -0.4543
14673TIP3    H165434   5.795   2.493   1.640 -0.0169 -0.6365  0.8891
14673TIP3    H265435   5.684   2.515   1.741 -1.6642  0.6442 -1.1231
14674TIP3   OH265436   4.609   0.690  15.678 -0.0126 -0.5223  0.0241
14674TIP3    H165437   4.605   0.750  15.604  2.5909  0.2038  0.3643
14674TIP3    H265438   4.590   0.604  15.641 -2.4615  0.2559 -0.7241
14675TIP3   OH265439   2.479   6.584  16.006  0.7895 -0.7301  0.0034
14675TIP3    H165440   2.449   6.497  15.980  1.5331 -0.5450 -1.5995
14675TIP3    H265441   2.543   6.608  15.939  1.0124  0.8259  0.7354
14676TIP3   OH265442   0.460   2.130  14.069  0.5242 -0.0344  0.8455
14676TIP3    H165443   0.476   2.122  14.163  0.7779  1.7609  0.9951
14676TIP3    H265444   0.470   2.224  14.051 -1.4985 -0.0324 -0.6178
14677TIP3   OH265445   0.537   5.935  10.085  0.1842 -0.5390  0.5666
14677TIP3    H165446   0.581   6.018  10.101 -2.4900  1.2632 -0.7063
14677TIP3    H265447   0.461   5.935  10.143 -0.9327 -1.1458 -0.8230
14678TIP3   OH265448   6.070   5.686  10.452  0.2904  0.1105 -0.2257
14678TIP3    H165449   6.158   5.649  10.456 -0.3638 -1.5800 -0.3839
14678TIP3    H265450   6.028   5.656  10.533 -0.1916  0.7510 -0.2341
14679TIP3   OH265451   1.832   1.163  14.308 -0.0968  0.0541 -0.7838
14679TIP3    H165452   1.915   1.175  14.354 -0.9112  2.1886  0.2830
14679TIP3    H265453   1.857   1.157  14.216  1.4893 -3.3066 -0.2903
14680TIP3   OH265454   1.622   5.077  15.987 -0.4995 -0.6386  0.4667
14680TIP3    H165455   1.623   5.004  16.050  0.6506  0.0141  1.2284
14680TIP3    H265456   1.714   5.102  15.977 -0.6243 -0.8518 -1.6573
14681TIP3   OH265457   5.743   4.315   6.533 -0.1769 -0.0333  0.3538
14681TIP3    H165458   5.766   4.350   6.619 -2.1024  0.6980  0.6321
14681TIP3    H265459   5.717   4.224   6.551 -0.8406  0.1972  0.6300
14682TIP3   OH265460   1.323   6.740   1.701  0.0609  0.1716 -0.0396
14682TIP3    H165461   1.318   6.651   1.734 -2.1376  0.1633 -0.1945
14682TIP3    H265462   1.233   6.760   1.674  0.7335  2.0246 -1.0915
14683TIP3   OH265463   4.927   3.375   2.391 -0.1973  0.0323 -0.4010
14683TIP3    H165464   4.984   3.391   2.466 -1.5313  0.0654  0.6398
14683TIP3    H265465   4.910   3.281   2.393 -0.8989  0.1531 -0.1375
14684TIP3   OH265466   4.545   5.237  13.711  0.2380  0.2726  0.0623
14684TIP3    H165467   4.546   5.185  13.791 -2.6459 -0.0530 -0.0211
14684TIP3    H265468   4.627   5.215  13.667  0.1087 -2.5354  1.0734
14685TIP3   OH265469   1.486   1.131   5.305  0.0674 -0.0333 -0.4214
14685TIP3    H165470   1.515   1.064   5.367 -0.2876 -0.0167 -0.2356
14685TIP3    H265471   1.459   1.083   5.227 -0.0891 -0.0995 -0.3263
14686TIP3   OH265472   2.144   4.286  10.902  0.0590 -0.2932  0.3434
14686TIP3    H165473   2.206   4.319  10.967  0.5126 -0.9426  0.2460
14686TIP3    H265474   2.060   4.326  10.927  0.8873  2.4674 -0.8695
14687TIP3   OH265475   3.579   5.119  11.096  0.7500 -0.3987 -0.4106
14687TIP3    H165476   3.602   5.210  11.078 -1.7274  0.3785 -0.0418
14687TIP3    H265477   3.663   5.074  11.104  2.0606  1.9825  0.1167
14688TIP3   OH265478   2.362   5.294   3.693  0.3840  0.1196 -0.5708
14688TIP3    H165479   2.364   5.324   3.784 -0.9510 -1.2134 -0.0607
14688TIP3    H265480   2.453   5.272   3.673  0.3712 -1.9867  1.3247
14689TIP3   OH265481   2.199   2.083   5.489  0.0355 -0.2356  0.6257
14689TIP3    H165482   2.249   2.104   5.410  0.1092 -1.2099  0.3920
14689TIP3    H265483   2.264   2.052   5.551 -0.1866 -0.9172  0.5343
14690TIP3   OH265484   5.883   1.687   1.161  0.3626  1.3328 -0.3024
14690TIP3    H165485   5.951   1.750   1.139  2.4379  0.6374  3.2603
14690TIP3    H265486   5.808   1.740   1.187  1.0456  2.2749 -0.2030
14691TIP3   OH265487   0.592   1.631  12.188 -0.7065 -0.4098  0.3819
14691TIP3    H165488   0.570   1.569  12.257  1.5234 -1.6860  0.0654
14691TIP3    H265489   0.668   1.592  12.144  0.6637  2.4146 -0.0180
14692TIP3   OH265490   3.828   4.844  15.810 -0.3301  0.2884  0.5916
14692TIP3    H165491   3.815   4.916  15.872  0.7271 -0.4492  1.7208
14692TIP3    H265492   3.742   4.805  15.799 -0.3127 -0.4188  2.6987
14693TIP3   OH265493   4.645   6.514  12.636 -0.4989  0.2971  0.2063
14693TIP3    H165494   4.614   6.432  12.674 -0.9690  0.8604  1.0589
14693TIP3    H265495   4.727   6.490  12.592 -0.0728 -0.4287  1.3378
14694TIP3   OH265496   5.426   6.291  14.438  0.0724  0.3977 -0.3796
14694TIP3    H165497   5.373   6.367  14.464  0.5325  0.6067 -0.0546
14694TIP3    H265498   5.364   6.217  14.441  0.4395  0.0550  3.0393
14695TIP3   OH265499   6.555   3.272   4.381 -0.2387 -0.1433 -0.0365
14695TIP3    H165500   6.557   3.178   4.364 -0.4676  0.1295 -1.8118
14695TIP3    H265501   6.635   3.289   4.430  2.0857 -0.6996 -3.2579
14696TIP3   OH265502   2.934   5.098   3.123  0.4896 -0.1115  0.7346
14696TIP3    H165503   3.012   5.046   3.105  0.8110 -0.0033  1.7829
14696TIP3    H265504   2.866   5.059   3.068  1.1511 -0.5259  0.1961
14697TIP3   OH265505   3.564   1.795  15.572 -0.2603 -0.3289  0.4173
14697TIP3    H165506   3.550   1.832  15.484 -2.0953  1.0510  1.2057
14697TIP3    H265507   3.501   1.724  15.578 -2.0379  1.2226  1.4329
14698TIP3   OH265508   3.587   5.622  12.275 -0.0850  0.0086  0.5298
14698TIP3    H165509   3.658   5.659  12.223 -0.4688  0.5801  0.3972
14698TIP3    H265510   3.580   5.680  12.351 -1.0653  0.5658  0.0366
14699TIP3   OH265511   2.779   1.152  15.912 -0.0353 -0.1049  0.3157
14699TIP3    H165512   2.782   1.085  15.981  0.9591  0.1230  0.5147
14699TIP3    H265513   2.805   1.233  15.957  2.7532 -0.3156 -0.7070
14700TIP3   OH265514   2.816   4.223   1.535  0.8369  0.2063 -0.6151
14700TIP3    H165515   2.845   4.236   1.625  1.6089  0.4771 -0.8985
14700TIP3    H265516   2.878   4.273   1.482 -0.0955  0.7379 -1.2383
14701TIP3   OH265517   6.428   6.546   3.869  0.6891  0.9952  0.4448
14701TIP3    H165518   6.457   6.549   3.777  3.1982  0.8987  1.1559
14701TIP3    H265519   6.399   6.456   3.882  0.3925  0.9860 -0.2424
14702TIP3   OH265520   4.544   5.138  11.917 -0.2802  0.0268  0.6722
14702TIP3    H165521   4.596   5.076  11.969 -0.3470 -1.8011 -1.3088
14702TIP3    H265522   4.454   5.104  11.924 -0.2923 -0.2278 -0.5821
14703TIP3   OH265523   0.367   5.498  12.780 -0.0544  0.1152 -0.5070
14703TIP3    H165524   0.301   5.433  12.806 -0.3738  0.7553  0.3113
14703TIP3    H265525   0.379   5.483  12.686 -0.1043 -1.1394 -0.3353
14704TIP3   OH265526   6.639   1.443  16.534  0.5227 -0.0331  0.0088
14704TIP3    H165527   6.641   1.369  16.595 -0.9295 -1.5755 -1.6908
14704TIP3    H265528   6.706   1.423  16.469  1.6422  1.2947  0.7117
14705TIP3   OH265529   6.741   1.490   4.984 -0.2846 -0.0008  0.6135
14705TIP3    H165530   6.713   1.566   4.933 -1.0466 -0.8414 -0.2534
14705TIP3    H265531   6.794   1.438   4.924  0.1284 -0.2253  1.1612
14706TIP3   OH265532   2.364   1.123  12.903 -0.7431  0.9166 -0.3036
14706TIP3    H165533   2.337   1.108  12.994  1.2825 -0.5823  0.1128
14706TIP3    H265534   2.428   1.194  12.909  2.2817 -1.6415  0.0861
14707TIP3   OH265535   6.318   2.290   5.496  0.3991  0.3709  0.1842
14707TIP3    H165536   6.399   2.243   5.511 -0.7444 -1.7074  0.1556
14707TIP3    H265537   6.288   2.260   5.410 -1.1723 -0.1255  0.8715
14708TIP3   OH265538   2.525   6.406  12.127 -0.1630 -0.8505  0.0712
14708TIP3    H165539   2.565   6.347  12.063 -0.3321 -2.4513  1.3719
14708TIP3    H265540   2.581   6.398  12.205 -0.1688  0.7746  0.2833
14709TIP3   OH265541   4.553   5.546   1.470 -0.6693 -0.5184 -0.5825
14709TIP3    H165542   4.502   5.518   1.545 -1.7277  0.5715 -0.8527
14709TIP3    H265543   4.605   5.620   1.502 -0.6584 -0.4426 -0.7708
14710TIP3   OH265544   5.298   3.770  16.332 -0.0340 -0.3346  0.6493
14710TIP3    H165545   5.232   3.827  16.371 -0.1074  0.9656 -1.2459
14710TIP3    H265546   5.372   3.828  16.315  0.3020 -1.0303 -0.3440
14711TIP3   OH265547   2.145   2.329  16.284 -0.7398  0.3742  0.6039
14711TIP3    H165548   2.201   2.286  16.220 -0.2492  1.4743  0.2660
14711TIP3    H265549   2.173   2.294  16.368 -0.2617  0.1421  0.3487
14712TIP3   OH265550   5.409   3.518  11.743  0.4217  0.2341  0.2021
14712TIP3    H165551   5.345   3.461  11.785  0.1002  1.3854  1.3727
14712TIP3    H265552   5.377   3.529  11.654  0.5576 -1.4641 -0.0926
14713TIP3   OH265553   0.405   0.103  13.791 -0.1380  0.1486  0.3024
14713TIP3    H165554   0.471   0.053  13.838 -0.0981  0.4482  0.5633
14713TIP3    H265555   0.323   0.057  13.808 -0.0968  0.1551  0.5225
14714TIP3   OH265556   3.590   3.001   4.588  0.2307 -0.5483  0.1966
14714TIP3    H165557   3.639   2.921   4.567 -0.3719 -0.7041 -0.6580
14714TIP3    H265558   3.639   3.071   4.547  0.6915 -0.4852  0.8403
14715TIP3   OH265559   0.925   4.085   0.749 -0.3424  0.0421 -0.0658
14715TIP3    H165560   0.856   4.094   0.683  0.1230  0.5302 -0.4936
14715TIP3    H265561   0.878   4.065   0.830 -0.8797 -1.1625 -0.6566
14716TIP3   OH265562   4.855   0.067   1.047  0.1749 -0.6107 -0.3072
14716TIP3    H165563   4.787   0.134   1.055  0.1785 -0.7638  1.5268
14716TIP3    H265564   4.806  -0.015   1.035  0.0665 -0.6168  0.1667
14717TIP3   OH265565   5.929   0.242   2.334  0.4604  0.0532 -0.5463
14717TIP3    H165566   5.891   0.209   2.415  0.0849  0.8134 -0.4109
14717TIP3    H265567   5.942   0.164   2.280  1.7167 -0.6145  0.6449
14718TIP3   OH265568   1.291   2.096  13.014  0.4329 -0.1855  0.3131
14718TIP3    H165569   1.264   2.112  13.104  1.0801 -0.8546  0.6436
14718TIP3    H265570   1.220   2.045  12.976  0.1885  0.0412  0.4585
14719TIP3   OH265571   2.399   5.334  14.360  0.7270  0.4498  0.3891
14719TIP3    H165572   2.341   5.367  14.292 -0.5374 -1.1350  0.6381
14719TIP3    H265573   2.487   5.354  14.328  0.1044  2.3263 -0.3063
14720TIP3   OH265574   0.558   3.383  15.787 -0.0545  0.1296  0.1365
14720TIP3    H165575   0.639   3.401  15.834 -0.7515  2.0482  0.6718
14720TIP3    H265576   0.496   3.355  15.855 -0.2962  0.2212 -0.0441
14721TIP3   OH265577   3.274   0.879   2.024 -0.1121 -0.4437 -0.4163
14721TIP3    H165578   3.363   0.844   2.035  0.3016  0.5889 -0.3141
14721TIP3    H265579   3.240   0.884   2.113  0.2864  0.5285 -0.3068
14722TIP3   OH265580   3.418   5.042  15.914 -0.1887  0.2498 -0.0890
14722TIP3    H165581   3.486   5.088  15.865 -1.0162  0.6175 -0.9251
14722TIP3    H265582   3.350   5.023  15.849 -0.1331 -1.6648  0.3571
14723TIP3   OH265583   2.914   6.414  11.142 -0.3542  0.2158  0.3974
14723TIP3    H165584   2.956   6.435  11.059 -0.7558  2.5692  0.7268
14723TIP3    H265585   2.823   6.442  11.131 -0.8549 -1.0970  1.0405
14724TIP3   OH265586   1.617   4.176   0.431 -0.2373 -0.3688 -0.1513
14724TIP3    H165587   1.619   4.082   0.415 -0.5652 -0.0421 -2.4017
14724TIP3    H265588   1.657   4.186   0.518 -1.4909 -2.6682  0.7737
14725TIP3   OH265589   2.000   2.558   3.721 -0.1070  0.4949  0.0017
14725TIP3    H165590   1.913   2.598   3.722 -1.0981 -1.4582 -1.1447
14725TIP3    H265591   2.054   2.618   3.670 -0.9071  1.4944  0.3001
14726TIP3   OH265592   0.663   0.190  11.351  0.3780  0.2459 -0.3688
14726TIP3    H165593   0.578   0.173  11.310 -0.7181 -1.8830  2.4610
14726TIP3    H265594   0.699   0.104  11.369  2.5579  1.1077 -0.2307
14727TIP3   OH265595   2.693   5.543   2.376 -0.2854 -0.4325 -0.2561
14727TIP3    H165596   2.720   5.517   2.464 -1.4138  1.0896  0.5954
14727TIP3    H265597   2.598   5.530   2.375 -0.4286  0.5549 -0.8842
14728TIP3   OH265598   6.518   3.014  15.736  0.0816  0.3535 -0.4148
14728TIP3    H165599   6.548   3.085  15.679 -1.4560  1.2727 -0.1614
14728TIP3    H265600   6.578   2.942  15.719  0.5087  1.0633 -2.1659
14729TIP3   OH265601   4.038   0.857   2.490  0.1990 -0.1159 -0.6058
14729TIP3    H165602   3.966   0.863   2.428  0.0637 -1.1679 -0.5718
14729TIP3    H265603   4.069   0.766   2.483  0.7388 -0.0151  0.2365
14730TIP3   OH265604   4.981   4.093   1.076  0.1326 -0.4519 -1.0627
14730TIP3    H165605   5.004   4.142   0.996  2.6491 -0.2119 -0.2597
14730TIP3    H265606   4.991   4.001   1.051 -0.4694 -0.4437 -1.3778
14731TIP3   OH265607   1.673   5.393   4.019 -0.3173 -0.2320  0.2606
14731TIP3    H165608   1.622   5.463   3.977  0.6157  0.5295  0.3566
14731TIP3    H265609   1.748   5.438   4.056 -0.2520 -1.1537  1.2753
14732TIP3   OH265610   1.349   5.261   3.898 -0.1014 -0.2567 -0.1052
14732TIP3    H165611   1.317   5.332   3.953 -0.3235  1.1435 -1.9447
14732TIP3    H265612   1.398   5.204   3.958  0.5183  1.7094  1.3564
14733TIP3   OH265613   4.362   1.954  14.141 -0.2973 -0.2505  0.2964
14733TIP3    H165614   4.307   1.893  14.092 -1.1841 -1.0957  2.2384
14733TIP3    H265615   4.365   1.918  14.230  3.1399 -0.0725  0.3996
14734TIP3   OH265616   3.818   3.898   2.561  0.2474  0.0404 -0.2520
14734TIP3    H165617   3.821   3.918   2.467 -2.0779 -1.0342 -0.6323
14734TIP3    H265618   3.825   3.802   2.565  0.9498  0.1233  0.7198
14735TIP3   OH265619   2.576   3.746   5.813 -0.4684  0.1369  0.1387
14735TIP3    H165620   2.528   3.826   5.793 -2.2747 -0.9947 -0.3339
14735TIP3    H265621   2.634   3.733   5.738 -0.5647  0.7106 -0.0370
14736TIP3   OH265622   0.069   4.613   3.533 -0.0649  0.3097 -0.2359
14736TIP3    H165623   0.003   4.601   3.464 -1.7075 -0.8145  1.4249
14736TIP3    H265624   0.049   4.700   3.569  1.4150  1.3223 -1.7340
14737TIP3   OH265625   5.824   5.358   1.213  0.2981  0.7629  0.0238
14737TIP3    H165626   5.765   5.290   1.247 -1.0361  0.6416 -2.3623
14737TIP3    H265627   5.810   5.433   1.271 -0.9857  0.1916  0.4894
14738TIP3   OH265628   4.738   0.576   0.732  0.1473 -0.3611  0.2765
14738TIP3    H165629   4.757   0.501   0.790  1.6995 -0.2378 -0.0375
14738TIP3    H265630   4.786   0.649   0.771 -0.6254  0.2801  0.0637
14739TIP3   OH265631   5.073   0.673  13.350 -0.3026  0.5959  0.3732
14739TIP3    H165632   4.979   0.684  13.340 -0.5622 -0.1307  1.7257
14739TIP3    H265633   5.109   0.761  13.338 -1.1706  0.9042  0.0039
14740TIP3   OH265634   1.681   5.114   5.978 -0.3973 -0.3158 -0.1058
14740TIP3    H165635   1.668   5.095   5.886  0.6400 -0.1864 -0.2923
14740TIP3    H265636   1.760   5.168   5.981 -1.5452  1.4377  0.6680
14741TIP3   OH265637   3.245   5.242   3.319  0.2928 -0.5114 -0.3978
14741TIP3    H165638   3.308   5.301   3.360 -0.3291  0.2864 -0.5533
14741TIP3    H265639   3.235   5.276   3.230 -1.4878  0.3338  0.0793
14742TIP3   OH265640   5.847   1.963  15.877  0.0095 -0.0772 -0.4418
14742TIP3    H165641   5.881   1.898  15.939 -0.8773  0.2691  0.4378
14742TIP3    H265642   5.924   1.991  15.827  1.0175  0.5848  1.3820
14743TIP3   OH265643   1.066   5.605   3.336  0.0050 -0.0542  0.1493
14743TIP3    H165644   1.117   5.594   3.255 -0.7805  0.1236 -0.3795
14743TIP3    H265645   0.975   5.601   3.308 -0.2809 -0.2923  1.0762
14744TIP3   OH265646   2.326   2.098  13.944 -0.0479 -0.5864  0.5120
14744TIP3    H165647   2.238   2.129  13.925  0.2134 -0.7348 -1.0175
14744TIP3    H265648   2.342   2.126  14.034 -1.4066 -0.0032  0.5960
14745TIP3   OH265649   2.886   3.765   4.323 -0.0783 -0.0006 -0.0145
14745TIP3    H165650   2.819   3.705   4.355 -1.1089  0.1566 -1.7698
14745TIP3    H265651   2.856   3.851   4.351  0.9552 -0.1596  1.7465
14746TIP3   OH265652   4.860   6.283   2.579 -0.1967 -0.0850 -0.4589
14746TIP3    H165653   4.846   6.201   2.625 -0.1836  0.8309  1.2392
14746TIP3    H265654   4.954   6.299   2.585 -0.1832  0.0229 -0.8740
14747TIP3   OH265655   6.739   0.937   0.683  0.3333 -0.4665 -0.3280
14747TIP3    H165656   6.707   1.015   0.637  0.4556 -1.2875 -1.8922
14747TIP3    H265657   6.664   0.878   0.687  0.9288 -1.3812 -1.7310
14748TIP3   OH265658   2.948   4.360  12.717 -0.1059 -0.4370  0.0443
14748TIP3    H165659   2.873   4.386  12.771 -0.1313 -0.4665  0.0232
14748TIP3    H265660   2.943   4.417  12.640  0.2399 -0.0216  0.3222
14749TIP3   OH265661   3.387   0.083   2.329 -0.8377 -0.2120 -0.1190
14749TIP3    H165662   3.319   0.017   2.334 -2.3239  1.2156 -0.6406
14749TIP3    H265663   3.468   0.036   2.351 -1.5926 -2.5184 -1.8620
14750TIP3   OH265664   5.914   4.249  11.855  0.0222  0.6850 -0.1566
14750TIP3    H165665   5.840   4.309  11.848 -0.4101  0.0431 -1.5094
14750TIP3    H265666   5.875   4.162  11.850  0.8061  0.3217 -0.1456
14751TIP3   OH265667   0.490   0.293  15.341 -0.5311 -0.5084 -0.0752
14751TIP3    H165668   0.455   0.334  15.420 -1.0860  1.1404 -1.1194
14751TIP3    H265669   0.415   0.284  15.283  0.4031  1.6696 -1.7762
14752TIP3   OH265670   0.203   5.996  12.748  0.4168 -0.0949  0.7727
14752TIP3    H165671   0.260   6.066  12.716 -0.3119  0.3913  0.4965
14752TIP3    H265672   0.206   6.004  12.844 -0.5981  1.1136  0.7280
14753TIP3   OH265673   5.523   4.943  11.795 -0.2920 -0.2583  0.2663
14753TIP3    H165674   5.606   4.956  11.748  0.8806 -0.3400  2.2343
14753TIP3    H265675   5.461   4.920  11.726  1.0817  0.7471 -1.3907
14754TIP3   OH265676   4.820   6.240   0.917  0.4845  0.2994 -0.3026
14754TIP3    H165677   4.857   6.161   0.957  1.6472 -0.1310 -2.0750
14754TIP3    H265678   4.737   6.211   0.879 -0.5599  0.6825  1.6029
14755TIP3   OH265679   1.513   2.586  14.148  0.1562  0.2107 -0.1334
14755TIP3    H165680   1.571   2.656  14.178 -0.3795  1.1947 -1.3044
14755TIP3    H265681   1.490   2.539  14.228  2.0278  0.1744  0.4459
14756TIP3   OH265682   3.366   3.219  16.145  0.3083  0.1014 -0.2191
14756TIP3    H165683   3.345   3.126  16.141 -2.0306  0.5698 -0.1896
14756TIP3    H265684   3.296   3.257  16.199  0.9877  1.9375 -0.5680
14757TIP3   OH265685   1.763   1.988   5.431 -0.1419  0.1289 -1.1179
14757TIP3    H165686   1.843   1.990   5.484  0.2352 -1.5510 -1.5619
14757TIP3    H265687   1.752   2.079   5.402 -0.6284  1.2288  2.1318
14758TIP3   OH265688   5.400   4.830  13.993  0.2121  0.2316 -0.4597
14758TIP3    H165689   5.424   4.883  14.069 -1.1382 -0.5276  0.5509
14758TIP3    H265690   5.333   4.771  14.026 -1.0287  0.4310 -2.4395
14759TIP3   OH265691   3.918   2.561   4.393 -0.7257 -0.2937  0.2875
14759TIP3    H165692   3.868   2.481   4.371 -0.2514 -0.4396 -0.2973
14759TIP3    H265693   3.872   2.598   4.468 -0.3930 -1.6303  1.1776
14760TIP3   OH265694   1.125   0.499   5.347  0.1152 -0.2026  0.4385
14760TIP3    H165695   1.101   0.486   5.439 -0.5224 -0.4862  0.2351
14760TIP3    H265696   1.150   0.592   5.343  0.4019 -0.2505  0.9501
14761TIP3   OH265697   6.280   2.969   4.846 -0.4309  0.1726 -0.7870
14761TIP3    H165698   6.293   2.878   4.872  2.5033  0.3577 -1.2368
14761TIP3    H265699   6.313   3.021   4.919 -0.0213  0.8170 -1.4068
14762TIP3   OH265700   1.015   6.279  10.481 -0.1807 -1.1133  0.0663
14762TIP3    H165701   1.065   6.282  10.400  1.3255  2.2329  0.9511
14762TIP3    H265702   1.044   6.199  10.525  0.7609 -1.7166 -1.5894
14763TIP3   OH265703   6.386   4.644  12.175  0.1624 -0.0225  0.3710
14763TIP3    H165704   6.425   4.721  12.133  0.2235 -0.4112 -0.2987
14763TIP3    H265705   6.396   4.574  12.110 -0.2973 -0.4867  0.7955
14764TIP3   OH265706   5.130   3.024   2.281  0.2210 -0.3363 -0.3263
14764TIP3    H165707   5.141   3.019   2.186 -0.0335 -2.1160 -0.2977
14764TIP3    H265708   5.155   2.937   2.312 -1.3795 -0.3351  1.0715
14765TIP3   OH265709   0.659   3.574  12.540 -0.2949  0.1927 -0.0462
14765TIP3    H165710   0.718   3.624  12.483  0.8449 -1.5211 -0.4503
14765TIP3    H265711   0.571   3.599  12.512  0.2151 -0.8389 -2.8971
14766TIP3   OH265712   4.340   1.054   3.306  0.3813 -0.0085  0.0557
14766TIP3    H165713   4.325   0.965   3.273 -0.1950  0.2798 -0.4901
14766TIP3    H265714   4.289   1.110   3.247  1.5788  0.7866 -0.2513
14767TIP3   OH265715   3.616   4.050   5.390 -0.3634  0.5648  0.7714
14767TIP3    H165716   3.622   3.955   5.374  1.5140  1.1334 -2.8661
14767TIP3    H265717   3.524   4.071   5.375 -0.1791 -0.2672 -2.2034
14768TIP3   OH265718   5.447   5.482  16.798  0.0561 -0.1775 -0.5489
14768TIP3    H165719   5.427   5.399  16.756  1.3781 -0.8849  0.1603
14768TIP3    H265720   5.493   5.532  16.731  1.4621 -0.9987 -0.2309
14769TIP3   OH265721   0.303   5.560   5.164 -0.3219  0.1911 -0.0559
14769TIP3    H165722   0.291   5.480   5.214  1.1041 -1.3776 -2.0704
14769TIP3    H265723   0.397   5.579   5.170 -0.1017 -0.0551 -2.0380
14770TIP3   OH265724   4.631   3.366  16.294  0.2196 -0.1875  0.1468
14770TIP3    H165725   4.576   3.430  16.337 -1.3138 -1.5140  0.2590
14770TIP3    H265726   4.703   3.417  16.256 -0.2869  1.4129  1.2431
14771TIP3   OH265727   6.795   5.620  13.538 -0.1351 -0.1124 -0.1117
14771TIP3    H165728   6.882   5.623  13.577  0.3580 -1.5631 -1.0163
14771TIP3    H265729   6.738   5.591  13.609  0.2056  0.2941  0.3363
14772TIP3   OH265730   3.048   6.269  15.716 -0.1127  0.1566 -0.2535
14772TIP3    H165731   3.110   6.338  15.692  0.0519  0.3593  0.7022
14772TIP3    H265732   2.971   6.286  15.663  0.6215 -0.0616 -1.4216
14773TIP3   OH265733   0.852   2.362  15.887 -0.3958  0.1362  0.3780
14773TIP3    H165734   0.802   2.441  15.866 -0.5043  0.8088  2.9307
14773TIP3    H265735   0.935   2.373  15.842 -0.9001  1.0509 -0.3696
14774TIP3   OH265736   4.199   3.483   4.279  0.4303  0.1271 -0.5490
14774TIP3    H165737   4.146   3.448   4.207 -0.7684  1.0960 -0.1851
14774TIP3    H265738   4.289   3.470   4.251 -0.0080  0.1748 -2.0763
14775TIP3   OH265739   4.852   2.942  12.576  0.7548 -0.7516  0.0788
14775TIP3    H165740   4.898   3.010  12.623 -4.3156  2.6107  1.0115
14775TIP3    H265741   4.855   2.970  12.484  1.3712 -1.1523 -0.0305
14776TIP3   OH265742   1.389   1.579  10.888 -0.6184  0.0423 -0.1310
14776TIP3    H165743   1.356   1.589  10.798 -1.8927  0.7080  0.3757
14776TIP3    H265744   1.399   1.485  10.900 -0.4166 -0.0488 -0.9772
14777TIP3   OH265745   5.642   2.245   0.025 -1.0372 -0.1657  0.0183
14777TIP3    H165746   5.629   2.329  -0.019  0.9871  0.2564  0.1570
14777TIP3    H265747   5.580   2.186  -0.018 -1.7427  1.1351 -0.8069
14778TIP3   OH265748   5.086   2.087   5.654  0.3614 -0.1376  0.0181
14778TIP3    H165749   5.160   2.139   5.686 -0.6484  0.9495  0.6720
14778TIP3    H265750   5.037   2.146   5.597  0.7507 -1.2915 -1.5667
14779TIP3   OH265751   4.646   4.193  16.402  0.2517 -0.9623  0.2543
14779TIP3    H165752   4.658   4.256  16.473  1.6310 -0.6607 -0.2010
14779TIP3    H265753   4.604   4.117  16.442  0.4206 -0.5402  1.2414
14780TIP3   OH265754   0.013   0.635   1.422  0.4386 -0.8643 -0.4146
14780TIP3    H165755   0.021   0.540   1.435 -1.2856 -1.1030 -0.7602
14780TIP3    H265756  -0.080   0.653   1.438  1.1115  1.1218  1.7354
14781TIP3   OH265757   2.594   6.559   0.183 -0.3050  0.3444  0.0768
14781TIP3    H165758   2.521   6.578   0.241 -1.8175 -0.3808 -1.5122
14781TIP3    H265759   2.608   6.640   0.134 -0.3376  0.3414  0.0629
14782TIP3   OH265760   2.926   2.585   0.909  0.2558  0.2516 -0.1251
14782TIP3    H165761   2.922   2.494   0.880 -0.9073  0.3413 -0.2936
14782TIP3    H265762   2.835   2.613   0.912  0.6489  1.9893 -1.9287
14783TIP3   OH265763   6.225   0.115   2.457  0.2268 -0.4053 -0.1081
14783TIP3    H165764   6.223   0.019   2.457 -2.2494 -0.4118  0.6160
14783TIP3    H265765   6.155   0.141   2.396  0.5768  0.9428  0.0285
14784TIP3   OH265766   1.055   1.985   2.986 -0.5850 -0.3286 -0.4598
14784TIP3    H165767   1.141   1.971   3.024 -1.2878 -2.8431  0.3602
14784TIP3    H265768   1.073   2.019   2.898  1.3050 -1.8906 -0.7389
14785TIP3   OH265769   3.953   2.666  12.178 -0.6124 -0.3856  0.9738
14785TIP3    H165770   3.868   2.705  12.159  0.2449  0.4762 -1.4055
14785TIP3    H265771   3.973   2.611  12.102  0.6177 -1.2027  1.8375
14786TIP3   OH265772   3.490   0.157   0.688  0.4320  0.3964 -0.1550
14786TIP3    H165773   3.475   0.063   0.695 -0.1673  0.1222 -3.4773
14786TIP3    H265774   3.501   0.187   0.778 -2.2639 -2.3498  1.2449
14787TIP3   OH265775   0.271   1.556  13.193  0.3893  0.1407  0.2702
14787TIP3    H165776   0.177   1.549  13.211  0.3567 -0.0178  0.0361
14787TIP3    H265777   0.289   1.650  13.197  0.2387  0.1646  0.4056
14788TIP3   OH265778   0.575   1.071   4.972  0.5112 -0.1658  0.5795
14788TIP3    H165779   0.525   1.102   5.047 -0.2258 -1.2104  0.5376
14788TIP3    H265780   0.598   1.151   4.924 -0.0741  0.4156  1.2455
14789TIP3   OH265781   3.035   3.941   1.736 -0.1549 -0.2386 -0.1946
14789TIP3    H165782   2.985   3.986   1.804  0.5844 -0.4431  0.4997
14789TIP3    H265783   3.084   4.010   1.692  1.6749 -0.4130  1.4570
14790TIP3   OH265784   4.362   1.463   0.074  0.0071  0.5058  0.0723
14790TIP3    H165785   4.340   1.527   0.143 -0.4048  1.3270 -0.7949
14790TIP3    H265786   4.394   1.517   0.002 -2.3288 -0.0477 -1.4733
14791TIP3   OH265787   3.780   3.876  14.564  0.0115  0.0810  0.2869
14791TIP3    H165788   3.837   3.801  14.581  0.4232  0.2204 -0.4331
14791TIP3    H265789   3.777   3.884  14.469 -1.5124 -0.1439  0.2809
14792TIP3   OH265790   4.682   0.389   4.760 -0.2966  0.0003 -0.3154
14792TIP3    H165791   4.704   0.475   4.797 -2.4983  0.2044  0.6614
14792TIP3    H265792   4.610   0.407   4.700  0.1938 -0.9827 -1.2144
14793TIP3   OH265793   2.617   3.660  11.416  0.0023  0.1556 -1.1513
14793TIP3    H165794   2.526   3.688  11.409 -0.6173 -1.3342  0.2616
14793TIP3    H265795   2.620   3.576  11.370  0.1168 -0.8521  0.6112
14794TIP3   OH265796   1.658   2.479   0.125  0.5097 -0.0372 -0.6353
14794TIP3    H165797   1.603   2.543   0.171 -0.4869 -1.2156 -0.1497
14794TIP3    H265798   1.598   2.432   0.068  1.0015 -1.3676 -0.0821
14795TIP3   OH265799   3.737   4.284   5.094 -0.1132 -0.3369 -0.4338
14795TIP3    H165800   3.816   4.315   5.050  0.4025  0.4863  1.0039
14795TIP3    H265801   3.701   4.218   5.035  1.2626 -0.2282 -1.4429
14796TIP3   OH265802   5.462   0.407  13.917  0.5104 -0.4207 -0.2907
14796TIP3    H165803   5.394   0.341  13.927 -1.3526  1.7095  2.8798
14796TIP3    H265804   5.528   0.383  13.983 -0.1263  0.7276  0.8015
14797TIP3   OH265805   4.628   3.196  12.015 -0.3716 -0.2354 -0.6553
14797TIP3    H165806   4.597   3.235  11.933 -1.2757  0.3598 -0.0621
14797TIP3    H265807   4.723   3.207  12.014 -0.3366 -0.5652 -1.7752
14798TIP3   OH265808   4.636   1.021  13.680  0.5472  0.0439 -0.0408
14798TIP3    H165809   4.616   1.102  13.633 -1.9447  0.1109  0.9622
14798TIP3    H265810   4.683   1.049  13.758 -0.4543  0.5808  0.3872
14799TIP3   OH265811   4.069   1.119  16.694 -0.7565 -0.0128 -0.3080
14799TIP3    H165812   4.119   1.188  16.738  0.4434 -0.2685 -1.2142
14799TIP3    H265813   3.993   1.105  16.750 -1.3163  2.4248 -0.3780
14800TIP3   OH265814   5.638   6.791   4.125  0.3005  0.3723  0.2257
14800TIP3    H165815   5.597   6.705   4.137  0.4000  0.3993  0.7934
14800TIP3    H265816   5.669   6.815   4.212  0.4681  0.8887  0.0279
14801TIP3   OH265817   3.397   3.765   3.809 -0.5690  0.0292  0.4897
14801TIP3    H165818   3.369   3.854   3.831  0.3772  0.6090 -0.5833
14801TIP3    H265819   3.488   3.761   3.837  0.0749  0.1512 -1.4621
14802TIP3   OH265820   3.969   2.349   0.902 -0.4938  0.3545 -0.3519
14802TIP3    H165821   4.044   2.310   0.945  0.0799  0.3229 -1.3356
14802TIP3    H265822   3.966   2.439   0.935 -0.0936  0.3187 -0.2097
14803TIP3   OH265823   1.573   5.869   5.704  0.3760 -0.1743  0.1970
14803TIP3    H165824   1.482   5.893   5.720  0.8095  1.2565  0.6694
14803TIP3    H265825   1.597   5.813   5.778 -0.6646 -2.2112 -0.9390
14804TIP3   OH265826   4.838   4.888  15.124  0.1924  0.2477  0.1063
14804TIP3    H165827   4.846   4.981  15.146  2.7210 -0.2260  1.5277
14804TIP3    H265828   4.763   4.858  15.175  1.4136  0.8300  2.3816
14805TIP3   OH265829   4.675   6.421  16.087  0.2062 -0.0689 -0.0232
14805TIP3    H165830   4.604   6.375  16.132 -0.8540  0.2902 -1.2666
14805TIP3    H265831   4.631   6.485  16.032  1.4677 -0.1857 -1.2369
14806TIP3   OH265832   0.544   2.563  16.941  0.9739  0.4279  0.4665
14806TIP3    H165833   0.473   2.514  16.984  0.8735 -0.4326 -0.6516
14806TIP3    H265834   0.541   2.650  16.983 -0.3276  0.2120  0.8785
14807TIP3   OH265835   4.471   0.704  14.491  0.3251  0.6051  0.1056
14807TIP3    H165836   4.506   0.792  14.506  0.7453  0.2367  1.4817
14807TIP3    H265837   4.473   0.693  14.396  2.5314  1.1854  0.0298
14808TIP3   OH265838   0.329   4.240   1.322 -0.3049  0.1697  0.0009
14808TIP3    H165839   0.239   4.216   1.344 -0.7543  0.3703 -1.5290
14808TIP3    H265840   0.341   4.327   1.361 -0.3555 -0.3424  1.2103
14809TIP3   OH265841   1.467   6.570   3.048 -0.0334  0.1138  0.3822
14809TIP3    H165842   1.490   6.543   2.959 -0.2279  2.2392 -0.3636
14809TIP3    H265843   1.388   6.521   3.068 -0.5924  0.3840 -1.0498
14810TIP3   OH265844   3.596   0.704   3.582  0.4004 -0.0729 -0.5493
14810TIP3    H165845   3.637   0.789   3.564  1.0428 -0.4574 -0.9391
14810TIP3    H265846   3.525   0.698   3.517  0.3477  0.1677 -0.5160
14811TIP3   OH265847   1.287   2.522   5.269 -0.2085  0.0867  0.3097
14811TIP3    H165848   1.244   2.437   5.259  0.1807  0.0884 -1.5795
14811TIP3    H265849   1.339   2.513   5.349  0.6031 -1.7948 -0.3826
14812TIP3   OH265850   3.074   1.277  16.576  0.4260  0.0921  0.4937
14812TIP3    H165851   3.056   1.355  16.524 -1.9266 -0.8540 -0.2313
14812TIP3    H265852   3.158   1.246  16.545 -0.1327  0.5171 -1.5523
14813TIP3   OH265853   4.920   1.977   0.233  0.2634 -0.0289 -0.0071
14813TIP3    H165854   4.902   2.048   0.295  0.6896  0.6660 -0.6552
14813TIP3    H265855   4.935   2.022   0.150 -1.2020 -1.0002 -0.8258
14814TIP3   OH265856   6.563   5.579  11.243 -0.6317  0.0162  0.2778
14814TIP3    H165857   6.616   5.499  11.252 -0.6992  0.0123  0.6832
14814TIP3    H265858   6.495   5.555  11.180 -0.7469 -0.3016  0.5180
14815TIP3   OH265859   1.627   6.522  12.416 -0.0734 -0.5357 -0.3033
14815TIP3    H165860   1.605   6.540  12.324  0.9952  0.1544 -0.4451
14815TIP3    H265861   1.611   6.606  12.460 -1.7440 -1.1869  0.3927
14816TIP3   OH265862   6.058   1.518   4.325  0.3859  0.6376  0.6235
14816TIP3    H165863   6.144   1.535   4.361  0.6160  1.0091 -0.0739
14816TIP3    H265864   5.998   1.566   4.381  0.7040  0.9631  0.6861
14817TIP3   OH265865   1.385   6.119   2.928 -0.0269 -0.4256  0.6546
14817TIP3    H165866   1.304   6.141   2.883  0.6279  0.8301  0.0278
14817TIP3    H265867   1.364   6.127   3.021 -0.9593 -1.4396  0.5431
14818TIP3   OH265868   0.412   1.863   1.474  0.6411  0.3186 -0.4340
14818TIP3    H165869   0.435   1.858   1.567 -0.2728 -0.3107 -0.2324
14818TIP3    H265870   0.488   1.906   1.433  1.5573 -0.4329  0.4185
14819TIP3   OH265871   2.230   6.154   5.521 -0.2996 -0.2196  0.5837
14819TIP3    H165872   2.280   6.199   5.453 -0.2646 -1.8591 -0.5330
14819TIP3    H265873   2.296   6.107   5.572 -0.4986 -0.7394  0.3744
14820TIP3   OH265874   0.703   6.512   0.017 -0.3011 -0.1773 -0.2367
14820TIP3    H165875   0.652   6.461   0.080 -0.3593 -0.0201 -0.1571
14820TIP3    H265876   0.732   6.589   0.066 -0.6982  0.1557 -0.5182
14821TIP3   OH265877   1.369   6.524   0.905  0.2607 -0.2801  0.4512
14821TIP3    H165878   1.296   6.496   0.960 -1.0909 -0.1163 -1.1980
14821TIP3    H265879   1.436   6.455   0.918 -0.8450 -1.3492  0.6716
14822TIP3   OH265880   5.170   2.709  11.828  0.5313  0.3871 -0.0911
14822TIP3    H165881   5.079   2.683  11.837  0.5874  0.3691  0.4685
14822TIP3    H265882   5.181   2.729  11.735 -0.3706  1.6072  0.0473
14823TIP3   OH265883   3.975   0.872  13.554  0.1084  0.0921 -0.0545
14823TIP3    H165884   3.908   0.834  13.611  0.0986  1.7121  1.0965
14823TIP3    H265885   3.938   0.957  13.527  0.1733 -0.5553 -2.4177
14824TIP3   OH265886   0.643   5.505   4.832  0.1590 -0.0470 -1.1146
14824TIP3    H165887   0.722   5.533   4.878 -0.1312  0.1124 -0.7052
14824TIP3    H265888   0.645   5.410   4.836 -0.3268 -0.0206  0.0381
14825TIP3   OH265889   4.356   4.162  12.684 -0.3981  0.5237  0.4340
14825TIP3    H165890   4.419   4.097  12.717 -0.8175  0.9993  2.3164
14825TIP3    H265891   4.401   4.206  12.612  0.7562 -0.3074  0.6257
14826TIP3   OH265892   5.762   0.492   0.317 -0.2679  0.1648  0.2610
14826TIP3    H165893   5.711   0.573   0.315  0.2779  0.5349 -2.0392
14826TIP3    H265894   5.847   0.516   0.279  0.3223 -1.2341  0.6179
14827TIP3   OH265895   3.411   2.296   6.308  0.0147 -0.0976 -0.1055
14827TIP3    H165896   3.412   2.341   6.393  0.7961  0.4589 -0.3990
14827TIP3    H265897   3.499   2.261   6.298 -1.2228 -4.1860  1.3503
14828TIP3   OH265898   1.194   1.687  10.684  0.1640  1.0397 -0.2728
14828TIP3    H165899   1.124   1.629  10.654  0.6242  0.8213 -0.9444
14828TIP3    H265900   1.149   1.752  10.739 -0.2809 -0.2469  0.9410
14829TIP3   OH265901   4.426   0.057   1.683 -0.1442  0.9685  0.0696
14829TIP3    H165902   4.394  -0.007   1.747 -0.2671 -0.5506 -1.4655
14829TIP3    H265903   4.504   0.016   1.645  0.2228  2.0796 -0.4167
14830TIP3   OH265904   2.249   4.057   0.273  0.6619  0.3557  0.2006
14830TIP3    H165905   2.173   4.111   0.296  0.0631 -0.1330 -0.6044
14830TIP3    H265906   2.318   4.120   0.255  0.4429  0.8097  0.9075
14831TIP3   OH265907   2.897   2.012   1.619 -0.5387 -0.5123 -0.1191
14831TIP3    H165908   2.839   2.038   1.548 -0.7693 -0.2540  0.1642
14831TIP3    H265909   2.972   2.072   1.613 -1.7362  1.2728  1.4481
14832TIP3   OH265910   3.395   4.526   3.452  0.1242  0.2530  0.0873
14832TIP3    H165911   3.366   4.542   3.542 -2.4316 -0.5169 -0.5192
14832TIP3    H265912   3.489   4.511   3.460 -0.1171 -0.4100  2.7333
14833TIP3   OH265913   2.644   5.754   4.720  0.3728 -0.6331 -0.1601
14833TIP3    H165914   2.588   5.676   4.723  0.8571 -0.9582  1.6983
14833TIP3    H265915   2.662   5.767   4.626 -2.4175 -0.7517 -0.8007
14834TIP3   OH265916   1.270   4.332   4.495 -0.2538  0.1294  0.2741
14834TIP3    H165917   1.186   4.347   4.539 -0.7571 -0.9141 -0.2829
14834TIP3    H265918   1.246   4.305   4.407  0.6472 -0.6706  0.2541
14835TIP3   OH265919   4.036   4.139  15.830 -0.0973 -0.3018 -0.0374
14835TIP3    H165920   4.063   4.108  15.743  0.7994  0.4817 -0.0482
14835TIP3    H265921   3.964   4.081  15.854  1.2297 -2.1192 -0.2386
14836TIP3   OH265922   4.815   3.816   1.560 -0.4132 -0.0842 -0.1554
14836TIP3    H165923   4.831   3.760   1.484 -1.4960  0.0419 -0.5059
14836TIP3    H265924   4.791   3.901   1.522 -0.2736  0.1764  0.3391
14837TIP3   OH265925   5.946   1.210   0.921  0.2679  0.1066  0.8769
14837TIP3    H165926   6.010   1.167   0.864 -1.4569 -0.7439 -0.5236
14837TIP3    H265927   5.952   1.303   0.899 -0.6354 -0.2523 -1.0444
14838TIP3   OH265928   4.497   1.851   2.282  0.0705 -0.0006 -0.2908
14838TIP3    H165929   4.457   1.891   2.359  0.4997 -0.2988  0.0909
14838TIP3    H265930   4.440   1.878   2.209 -0.1356  0.5814  0.0731
14839TIP3   OH265931   5.524   1.357   5.519  0.0905  0.3353 -0.5788
14839TIP3    H165932   5.545   1.323   5.432 -2.3126 -0.6006 -0.8615
14839TIP3    H265933   5.438   1.397   5.509 -0.9163 -1.0932  1.6704
14840TIP3   OH265934   6.463   3.385  16.782  0.3991  0.0679  0.6623
14840TIP3    H165935   6.449   3.423  16.695  0.9836  0.2327  0.6383
14840TIP3    H265936   6.380   3.342  16.803 -0.2577  1.3244  0.6724
14841TIP3   OH265937   3.363   4.074   4.195  0.2426 -0.4350 -0.2979
14841TIP3    H165938   3.351   4.073   4.289 -2.1740 -0.9667 -0.5696
14841TIP3    H265939   3.354   4.166   4.170 -0.6340 -0.4890 -0.1786
14842TIP3   OH265940   4.236   6.080  15.360 -0.3758 -0.3902 -0.4021
14842TIP3    H165941   4.258   6.021  15.288  0.6936 -0.9145  0.3317
14842TIP3    H265942   4.265   6.034  15.438 -1.2068  0.3234  0.3459
14843TIP3   OH265943   0.938   4.289  16.477  0.3828  0.6024 -0.2410
14843TIP3    H165944   0.858   4.274  16.528  1.0051  1.4024  1.0267
14843TIP3    H265945   0.946   4.385  16.473  3.2324  0.7182  3.0209
14844TIP3   OH265946   3.777   0.450   0.554 -0.4831 -0.0814  0.1163
14844TIP3    H165947   3.825   0.489   0.481 -0.5806  1.9902  1.0904
14844TIP3    H265948   3.840   0.450   0.626 -0.6253 -1.3918  0.2627
14845TIP3   OH265949   1.560   1.704  13.301  0.6186  0.0455 -0.0843
14845TIP3    H165950   1.490   1.698  13.237  1.5437  0.0821 -1.1410
14845TIP3    H265951   1.616   1.628  13.283  0.0303 -0.9159  1.8071
14846TIP3   OH265952   2.837   2.130  14.597 -0.5917 -0.2786 -0.0601
14846TIP3    H165953   2.752   2.086  14.598 -0.3984 -0.6453  0.3755
14846TIP3    H265954   2.891   2.080  14.658 -0.9681  1.6896  2.0388
14847TIP3   OH265955   5.315   1.532   5.501  0.4535  0.0850 -0.3603
14847TIP3    H165956   5.333   1.626   5.509 -0.7479  0.2443  0.8002
14847TIP3    H265957   5.278   1.507   5.586  0.3434 -1.3516 -0.7967
14848TIP3   OH265958   4.132   2.256   4.108  0.1156 -0.4872  0.4140
14848TIP3    H165959   4.093   2.243   4.194 -3.7216 -2.7770 -1.3895
14848TIP3    H265960   4.118   2.349   4.089 -1.8362 -0.5928  1.1339
14849TIP3   OH265961   3.679   2.046  15.670  0.0557 -0.3836  0.0532
14849TIP3    H165962   3.773   2.029  15.658 -0.0626 -1.3000  0.3704
14849TIP3    H265963   3.636   1.968  15.635 -0.6114  0.1767 -0.3981
14850TIP3   OH265964   3.982   3.877   3.403  0.5680  0.1624  0.2246
14850TIP3    H165965   3.962   3.961   3.446  1.2184  0.8465 -0.7656
14850TIP3    H265966   3.910   3.865   3.341  1.6236  1.1750 -1.2727
14851TIP3   OH265967   6.350   4.597  12.466 -0.4313 -0.3603  0.3304
14851TIP3    H165968   6.356   4.613  12.372 -0.2958 -3.4029 -0.2834
14851TIP3    H265969   6.314   4.678  12.502  1.8305  1.8440 -1.9481
14852TIP3   OH265970   6.408   5.993   2.726  0.7555 -0.1456  0.3737
14852TIP3    H165971   6.344   6.016   2.794 -0.0860 -0.1341 -0.3931
14852TIP3    H265972   6.379   5.908   2.694  1.0080 -0.0526 -0.1141
14853TIP3   OH265973   5.174   2.818  15.699 -0.3685 -0.2462 -0.3632
14853TIP3    H165974   5.176   2.750  15.631 -1.0610  0.6172 -1.2832
14853TIP3    H265975   5.265   2.846  15.707 -0.4862  0.8332 -2.2233
14854TIP3   OH265976   6.413   0.877   4.250 -0.0883 -0.0352  0.6735
14854TIP3    H165977   6.420   0.816   4.323 -2.2842 -1.4779 -0.2354
14854TIP3    H265978   6.416   0.822   4.172 -0.3619  1.2057 -0.2439
14855TIP3   OH265979   2.272   2.565  12.842 -0.3539  0.6214 -0.0914
14855TIP3    H165980   2.292   2.563  12.748 -0.5433  2.1446 -0.1874
14855TIP3    H265981   2.214   2.490  12.855  1.6101 -1.1079 -0.6912
14856TIP3   OH265982   1.698   2.093   5.152 -0.2783  0.4974  0.4284
14856TIP3    H165983   1.623   2.034   5.153 -0.4505  0.7043  0.0440
14856TIP3    H265984   1.664   2.175   5.187 -0.1316  0.4785  0.6180
14857TIP3   OH265985   4.966   2.227   3.495  0.1553 -0.4943  0.4360
14857TIP3    H165986   4.976   2.137   3.524  0.0111 -0.3946  0.8048
14857TIP3    H265987   4.890   2.260   3.543 -0.0580 -0.3067 -0.0194
14858TIP3   OH265988   1.028   2.656   2.309 -0.1487  0.0713  0.0344
14858TIP3    H165989   1.066   2.665   2.396 -0.1226  1.7736 -0.1140
14858TIP3    H265990   0.958   2.722   2.307 -0.7227 -0.5486 -0.9293
14859TIP3   OH265991   5.014   2.200   2.565 -0.9401  0.5545 -0.1160
14859TIP3    H165992   5.026   2.118   2.515 -2.2024  0.1355  0.2461
14859TIP3    H265993   5.084   2.198   2.630  0.0887  0.5987 -1.1801
14860TIP3   OH265994   6.720   2.580  11.534 -0.5152 -0.2015 -0.2430
14860TIP3    H165995   6.795   2.639  11.535 -0.7334  0.3382 -3.6328
14860TIP3    H265996   6.744   2.510  11.595  2.3108  0.4163 -0.4952
14861TIP3   OH265997   6.136   4.685  11.909 -0.3241 -0.0794 -0.1545
14861TIP3    H165998   6.217   4.643  11.880  0.7593  0.8583  1.3571
14861TIP3    H265999   6.163   4.774  11.934 -1.9105  0.4001 -0.0340
14862TIP3   OH266000   0.804   6.040  15.724 -0.6425  0.0917 -0.3325
14862TIP3    H166001   0.879   5.982  15.735  0.9499  2.2766  1.1512
14862TIP3    H266002   0.758   6.036  15.808 -0.0257  1.5390  0.1076
14863TIP3   OH266003   2.647   5.062   4.649 -0.0352 -0.6437 -0.8045
14863TIP3    H166004   2.726   5.097   4.690 -0.5790 -0.9880  0.5972
14863TIP3    H266005   2.659   5.079   4.556  1.3150  0.0450 -0.5333
14864TIP3   OH266006   6.044   3.718   4.544  0.3242 -0.8764  0.4779
14864TIP3    H166007   6.134   3.740   4.521  0.3273 -0.1139  1.1535
14864TIP3    H266008   6.051   3.640   4.600  0.5966 -0.6129  0.8125
14865TIP3   OH266009   4.571   0.899  13.334  0.0090  0.3888  0.2529
14865TIP3    H166010   4.515   0.823  13.351 -1.7989  1.8787  1.3302
14865TIP3    H266011   4.545   0.928  13.247 -0.2905  0.5471  0.3904
14866TIP3   OH266012   5.672   3.825   2.171  0.3225  0.4551 -0.4734
14866TIP3    H166013   5.688   3.731   2.167 -0.1521  0.3329  0.3602
14866TIP3    H266014   5.577   3.833   2.179  0.5000  0.9144  1.6232
14867TIP3   OH266015   1.215   5.937  12.812  0.2369  0.5483  0.3174
14867TIP3    H166016   1.252   5.893  12.888  1.0932  1.0366  0.1902
14867TIP3    H266017   1.121   5.916  12.816  0.4024 -0.1125  1.0330
14868TIP3   OH266018   5.931   0.516   5.464  0.3501  0.2214  0.0955
14868TIP3    H166019   5.988   0.488   5.536 -0.5544  3.1955  2.1558
14868TIP3    H266020   5.972   0.479   5.386  3.3862 -0.3205  1.7758
14869TIP3   OH266021   5.227   2.315   5.292  0.3502 -0.1102  0.0262
14869TIP3    H166022   5.299   2.370   5.323  0.4550  0.0714 -0.5374
14869TIP3    H266023   5.151   2.346   5.341  0.1621  1.3509 -1.1276
14870TIP3   OH266024   6.706   1.314  13.984  0.1891 -0.1616 -0.4573
14870TIP3    H166025   6.751   1.322  13.900  3.4657 -0.1495  1.1667
14870TIP3    H266026   6.698   1.219  13.997  1.3752 -0.2107  0.0130
14871TIP3   OH266027   5.323   0.470  16.503 -0.0352  0.5610 -0.1524
14871TIP3    H166028   5.416   0.492  16.491 -0.0896  1.1425  0.4609
14871TIP3    H266029   5.276   0.543  16.464 -0.2230  1.1203  1.0991
14872TIP3   OH266030   1.828   1.805   2.161 -0.4451  0.1457 -0.4723
14872TIP3    H166031   1.881   1.882   2.180 -0.4315  0.7676 -2.7558
14872TIP3    H266032   1.876   1.733   2.202  0.0245  1.1994  0.9112
14873TIP3   OH266033   6.014   1.093   0.117  0.1938 -0.0743 -0.0550
14873TIP3    H166034   6.058   1.174   0.144 -0.2388  0.9518 -2.2061
14873TIP3    H266035   5.966   1.117   0.037 -0.8232 -2.2061 -0.1644
14874TIP3   OH266036   0.372   0.524  11.198  0.0959  0.4658 -0.4995
14874TIP3    H166037   0.405   0.591  11.137 -0.4187 -0.5704 -1.9678
14874TIP3    H266038   0.277   0.538  11.200 -0.0061 -0.1604 -0.7526
14875TIP3   OH266039   3.539   2.594   5.702 -0.3130  0.7611  0.6331
14875TIP3    H166040   3.513   2.597   5.794  0.2114 -0.0466  0.8261
14875TIP3    H266041   3.598   2.518   5.697 -2.2831 -0.7984 -0.8476
14876TIP3   OH266042   6.698   2.101   5.965 -0.1081  0.2774  0.2077
14876TIP3    H166043   6.630   2.062   5.910 -0.3920 -0.5501  1.1043
14876TIP3    H266044   6.649   2.153   6.029  0.1437  0.3351  0.3529
14877TIP3   OH266045   2.583   4.788   0.557  0.1902 -0.0294  0.3955
14877TIP3    H166046   2.543   4.875   0.549  1.1821  0.5024  0.9572
14877TIP3    H266047   2.594   4.758   0.467 -2.2788 -0.6061  0.2249
14878TIP3   OH266048   5.858   4.366  16.399  0.0274 -0.5575 -0.6654
14878TIP3    H166049   5.813   4.368  16.483  0.2785  1.2853 -0.5352
14878TIP3    H266050   5.925   4.299  16.409  0.2691 -0.1378  0.7324
14879TIP3   OH266051   5.866   2.222  10.653  0.0032 -0.4376 -0.1686
14879TIP3    H166052   5.960   2.205  10.645  0.1922 -0.2657  1.4335
14879TIP3    H266053   5.824   2.142  10.623  0.7250 -1.3193  1.0960
14880TIP3   OH266054   2.248   5.344  14.116 -0.3620  0.5214 -0.5239
14880TIP3    H166055   2.245   5.369  14.024  0.0283  0.4600 -0.5567
14880TIP3    H266056   2.211   5.256  14.118  0.4932  0.1380 -0.7708
14881TIP3   OH266057   1.677   0.586  13.021 -0.2495 -0.2175  0.1317
14881TIP3    H166058   1.701   0.675  13.047 -1.5830  0.0227  0.5880
14881TIP3    H266059   1.760   0.547  12.992  0.3949  1.0853  0.1465
14882TIP3   OH266060   5.338   1.854  12.927  0.7339 -0.5417 -0.0328
14882TIP3    H166061   5.350   1.857  12.832 -1.2318 -0.0296 -0.3150
14882TIP3    H266062   5.364   1.766  12.952  0.8986 -0.8111 -1.0958
14883TIP3   OH266063   5.177   0.787   0.487 -0.2603  0.0501  0.1392
14883TIP3    H166064   5.143   0.699   0.473 -1.5135  0.5314  0.0255
14883TIP3    H266065   5.265   0.773   0.523 -2.1974 -1.4063  5.1071
14884TIP3   OH266066   5.843   1.281  17.063 -0.1352  0.5745  0.1788
14884TIP3    H166067   5.802   1.288  16.977 -0.0031  0.1237  0.0763
14884TIP3    H266068   5.799   1.346  17.117 -1.8831 -0.7494  0.4352
14885TIP3   OH266069   2.426   0.841  14.685  0.2454  0.2157  0.4776
14885TIP3    H166070   2.508   0.842  14.635 -0.2072 -0.8585 -0.3341
14885TIP3    H266071   2.450   0.875  14.771  1.4222  0.4546  0.0787
14886TIP3   OH266072   5.369   3.366  10.892 -0.6256 -0.3870 -0.1410
14886TIP3    H166073   5.281   3.379  10.855  0.0991  1.0688 -1.4878
14886TIP3    H266074   5.413   3.450  10.878  1.8760 -1.8765 -2.0140
14887TIP3   OH266075   1.100   6.760  16.079 -0.1774  0.3749 -0.4119
14887TIP3    H166076   1.167   6.722  16.022 -0.9443  0.2505 -1.2659
14887TIP3    H266077   1.093   6.851  16.050 -0.6578  0.2779 -0.6086
14888TIP3   OH266078   1.361   3.261  13.478 -0.3332 -0.3006 -0.3217
14888TIP3    H166079   1.448   3.282  13.444 -1.2676  0.9260 -2.0892
14888TIP3    H266080   1.349   3.321  13.551  0.1115 -0.1355 -0.3785
14889TIP3   OH266081   2.951   0.772   0.084  0.1484  0.2199  0.0831
14889TIP3    H166082   2.947   0.844   0.021 -1.1173  0.2170  0.1356
14889TIP3    H266083   3.043   0.745   0.084  0.1414  0.0361 -1.9764
14890TIP3   OH266084   0.955   1.113   1.187 -0.4032  0.4161  0.4937
14890TIP3    H166085   0.957   1.059   1.108 -1.9025  0.3625  0.4517
14890TIP3    H266086   1.044   1.147   1.196  0.4672 -1.6698  0.2676
14891TIP3   OH266087   3.479   6.761   0.392  0.8684 -0.6946 -0.1355
14891TIP3    H166088   3.418   6.777   0.464  1.3846  2.9367 -0.3086
14891TIP3    H266089   3.560   6.735   0.435  0.6881 -0.2233  0.5148
14892TIP3   OH266090   2.033   4.820   5.306  0.4269 -0.0314 -0.4496
14892TIP3    H166091   2.045   4.813   5.211  0.1115 -0.6140 -0.4523
14892TIP3    H266092   2.103   4.766   5.343  1.1602  0.9957 -0.3201
14893TIP3   OH266093   3.354   3.797  12.888 -0.2820  0.5372  0.5019
14893TIP3    H166094   3.293   3.723  12.888  0.1066  0.1648  2.1325
14893TIP3    H266095   3.299   3.873  12.868 -0.8414 -0.0716 -0.3286
14894TIP3   OH266096   3.966   1.703  12.371 -0.1635  0.0009 -0.3833
14894TIP3    H166097   3.947   1.609  12.376  0.6064 -0.0990  1.4869
14894TIP3    H266098   4.028   1.718  12.442  0.9021  1.6676 -1.6061
14895TIP3   OH266099   6.300   6.626   5.710 -0.7836 -0.2429  0.2949
14895TIP3    H166100   6.369   6.580   5.663  0.1697  1.1417  0.2602
14895TIP3    H266101   6.326   6.619   5.802  0.1579  1.3738  0.1914
14896TIP3   OH266102   5.975   4.532   3.949 -0.5995  0.3146  0.1677
14896TIP3    H166103   5.962   4.587   4.026  2.6239 -1.9333  2.5956
14896TIP3    H266104   6.053   4.566   3.906 -0.8843  0.0054 -0.6278
14897TIP3   OH266105   1.250   0.230  12.624  0.0662  0.7631 -0.6121
14897TIP3    H166106   1.176   0.290  12.633 -0.8844 -0.4912  0.2939
14897TIP3    H266107   1.285   0.248  12.537 -1.0145  1.7187 -0.8721
14898TIP3   OH266108   2.877   0.168   4.777 -0.0528 -0.0538  0.2148
14898TIP3    H166109   2.851   0.169   4.685  0.3361 -1.4419  0.0553
14898TIP3    H266110   2.796   0.146   4.824 -0.6900  2.4921  0.4279
14899TIP3   OH266111   6.175   2.895  15.112 -0.1348 -0.0432 -0.5623
14899TIP3    H166112   6.101   2.914  15.054 -1.1976  1.7793  1.2468
14899TIP3    H266113   6.201   2.806  15.090 -3.0916 -0.8714 -1.0923
14900TIP3   OH266114   3.336   2.523   1.010 -0.3731  0.0425 -0.1862
14900TIP3    H166115   3.330   2.616   0.988 -0.1768  0.3471  0.9936
14900TIP3    H266116   3.256   2.505   1.060  1.1031  0.4249  2.4970
14901TIP3   OH266117   5.010   0.468   4.912  0.4058 -0.8196  0.1784
14901TIP3    H166118   5.036   0.381   4.942  0.9403 -0.6093  0.3331
14901TIP3    H266119   5.063   0.484   4.834 -1.6187 -1.7339 -1.4810
14902TIP3   OH266120   6.472   2.530  15.072 -0.3641  0.3561  0.4381
14902TIP3    H166121   6.500   2.465  15.136 -0.2167 -1.2059 -1.1224
14902TIP3    H266122   6.545   2.536  15.010 -1.0922  0.6540 -0.4153
14903TIP3   OH266123   1.708   3.371   3.947  0.5511  0.4767  0.5524
14903TIP3    H166124   1.714   3.304   4.015 -1.2860 -1.7808 -1.3272
14903TIP3    H266125   1.778   3.349   3.886 -0.9473 -0.8028 -0.8247
14904TIP3   OH266126   2.367   1.910   5.114  0.1695  0.1848 -0.3266
14904TIP3    H166127   2.287   1.957   5.138 -1.2794 -2.1592 -0.2610
14904TIP3    H266128   2.390   1.860   5.192 -0.4358 -1.9489 -1.4389
14905TIP3   OH266129   5.826   0.241   4.161 -0.0290  0.0402  0.4104
14905TIP3    H166130   5.782   0.176   4.217  1.5755  0.0316  1.7332
14905TIP3    H266131   5.860   0.191   4.088 -0.0237 -0.3757  0.6932
14906TIP3   OH266132   0.861   4.340  13.575  0.5054 -0.0667  0.5777
14906TIP3    H166133   0.873   4.344  13.481 -1.5121 -1.1462  0.2154
14906TIP3    H266134   0.792   4.274  13.588  0.2497  0.5370  2.7477
14907TIP3   OH266135   0.813   6.228   2.537 -0.3158  0.1940 -0.2834
14907TIP3    H166136   0.883   6.284   2.570  0.1326 -0.2075 -0.5397
14907TIP3    H266137   0.792   6.170   2.610 -0.5262  0.4464 -0.1402
14908TIP3   OH266138   3.438   2.130  13.439 -0.1440  0.0242  0.4521
14908TIP3    H166139   3.492   2.052  13.454  0.9045  0.2022 -1.9573
14908TIP3    H266140   3.354   2.109  13.480  0.9078 -1.3023  2.1007
14909TIP3   OH266141   6.140   2.078   2.637 -0.3883  0.2161 -0.8363
14909TIP3    H166142   6.057   2.118   2.663 -0.1225 -0.6366  1.6167
14909TIP3    H266143   6.180   2.141   2.577 -1.8607  1.6219 -0.3980
14910TIP3   OH266144   1.520   4.696  15.935 -0.5117  0.0951  0.1282
14910TIP3    H166145   1.568   4.752  15.997  0.7491 -1.2452  0.4134
14910TIP3    H266146   1.576   4.694  15.857 -0.4601 -0.8596  0.1777
14911TIP3   OH266147   0.213   4.196   1.689 -0.4321 -0.1775  0.3227
14911TIP3    H166148   0.241   4.131   1.626  1.8483  0.8084  0.2237
14911TIP3    H266149   0.248   4.166   1.773  0.7822  0.9377  0.2525
14912TIP3   OH266150   0.586   1.179  14.438  0.0118 -0.1489  0.7001
14912TIP3    H166151   0.585   1.123  14.360  2.5830  1.6609 -0.7708
14912TIP3    H266152   0.625   1.124  14.506  1.8767 -0.4575 -0.5316
14913TIP3   OH266153   6.437   2.278  13.052 -0.2819  0.1201 -0.4527
14913TIP3    H166154   6.344   2.258  13.043 -0.1714 -0.5057 -0.3011
14913TIP3    H266155   6.443   2.373  13.044 -0.9043  0.1406 -0.7029
14914TIP3   OH266156   5.465   5.850   1.031  0.2140 -0.2361 -0.0612
14914TIP3    H166157   5.463   5.883   1.121  1.9412  0.4284 -0.2379
14914TIP3    H266158   5.378   5.871   0.996  1.0199  3.9434 -0.0435
14915TIP3   OH266159   2.934   5.657  17.113 -0.1228 -0.5414 -0.5737
14915TIP3    H166160   2.898   5.693  17.032 -0.1758 -0.3580 -0.4726
14915TIP3    H266161   3.003   5.719  17.138  1.1596 -1.5722 -1.4454
14916TIP3   OH266162   6.445   0.476  16.349 -0.9380 -0.9636  0.0335
14916TIP3    H166163   6.416   0.431  16.270 -1.0866  0.4954 -0.7735
14916TIP3    H266164   6.536   0.500  16.332 -1.3223  0.3990 -0.2042
14917TIP3   OH266165   2.574   2.776   6.665 -0.5344 -0.2374 -0.3552
14917TIP3    H166166   2.555   2.739   6.579 -0.3829 -1.2271  0.0297
14917TIP3    H266167   2.566   2.703   6.726 -1.7739  0.6673  0.6483
14918TIP3   OH266168   0.080   0.899   3.077 -0.0602 -0.4029  0.3454
14918TIP3    H166169   0.138   0.899   3.154  1.0554  0.3676 -0.4605
14918TIP3    H266170  -0.008   0.909   3.113  0.4698  0.2758  1.5094
14919TIP3   OH266171   5.160   5.800   5.297 -0.4247 -0.4389  0.3690
14919TIP3    H166172   5.151   5.750   5.378 -1.3985  1.0583  1.2337
14919TIP3    H266173   5.244   5.844   5.305  0.8670 -2.5290 -0.7967
14920TIP3   OH266174   3.203   0.610  11.225 -0.5404  0.6134 -0.3165
14920TIP3    H166175   3.114   0.645  11.212 -0.7778  0.1981  0.1516
14920TIP3    H266176   3.232   0.649  11.307 -1.0279 -0.7055  0.5049
14921TIP3   OH266177   0.428   3.301  16.008 -0.1571  0.0029  0.5923
14921TIP3    H166178   0.345   3.343  16.027 -0.9877 -1.8883  1.4720
14921TIP3    H266179   0.467   3.284  16.094 -0.1410 -1.4878  0.3239
14922TIP3   OH266180   6.209   2.818  13.091  0.4742 -0.0743 -0.3682
14922TIP3    H166181   6.235   2.747  13.032 -0.9758 -0.4945 -0.5352
14922TIP3    H266182   6.136   2.861  13.047  0.3316  0.5406  0.4426
14923TIP3   OH266183   3.672   1.268   4.163  0.4446 -0.2405 -0.6294
14923TIP3    H166184   3.643   1.187   4.204 -1.7896 -0.8045 -3.1174
14923TIP3    H266185   3.641   1.337   4.222 -0.8822 -1.0728 -0.3216
14924TIP3   OH266186   2.342   1.807   4.457 -0.5585  0.1213 -0.2440
14924TIP3    H166187   2.322   1.831   4.367 -0.3422 -0.7593 -0.5255
14924TIP3    H266188   2.258   1.813   4.503 -0.2787  2.9926  0.0862
14925TIP3   OH266189   6.429   5.632   0.172  0.2135 -0.1666  0.3864
14925TIP3    H166190   6.471   5.609   0.090  3.6236 -0.1635  1.9352
14925TIP3    H266191   6.500   5.669   0.226 -1.9543  0.4154  3.1119
14926TIP3   OH266192   1.505   4.072   1.530 -0.4353 -0.1663  0.0362
14926TIP3    H166193   1.444   4.006   1.564  0.1411 -0.4561  0.5400
14926TIP3    H266194   1.486   4.076   1.436 -0.4837 -1.0466  0.0005
14927TIP3   OH266195   2.001   1.902  12.816 -0.0377  0.0212 -0.1810
14927TIP3    H166196   2.026   1.812  12.797 -0.2100  0.1267 -0.9128
14927TIP3    H266197   2.085   1.949  12.820 -0.0088  0.0360 -0.8879
14928TIP3   OH266198   4.588   0.749   2.145 -0.1277 -0.6213  0.4049
14928TIP3    H166199   4.496   0.774   2.154  0.1871  0.2181  1.5345
14928TIP3    H266200   4.597   0.668   2.196 -0.1170 -0.3497  0.8439
14929TIP3   OH266201   4.966   2.229   3.887 -0.7262 -0.4140 -0.8705
14929TIP3    H166202   4.950   2.286   3.963 -0.5210  0.9237 -1.8012
14929TIP3    H266203   4.892   2.246   3.829 -0.6885 -1.1528 -1.1329
14930TIP3   OH266204   5.522   5.023   0.761 -0.7798 -0.2675  0.4024
14930TIP3    H166205   5.525   4.954   0.826 -1.5797 -1.6131 -0.9210
14930TIP3    H266206   5.528   4.977   0.677 -1.8225  1.2200 -0.5447
14931TIP3   OH266207   6.604   1.182  15.915  0.0922 -0.2623  0.3092
14931TIP3    H166208   6.544   1.110  15.893 -0.0550 -0.1111  0.2140
14931TIP3    H266209   6.691   1.147  15.897  0.2361 -1.3609  2.7779
14932TIP3   OH266210   1.222   3.275   1.778 -0.1476  0.1976  0.5194
14932TIP3    H166211   1.229   3.319   1.693  0.4619 -1.5463 -0.3689
14932TIP3    H266212   1.305   3.228   1.788 -1.6373 -2.6938  0.2671
14933TIP3   OH266213   2.045   5.405   3.398 -0.1551 -0.2490  0.1214
14933TIP3    H166214   1.968   5.351   3.378  0.4790 -1.3733  0.5988
14933TIP3    H266215   2.081   5.367   3.478  1.0397  0.0851 -0.2321
14934TIP3   OH266216   1.058   5.104  12.879 -0.0349 -0.0995  0.9546
14934TIP3    H166217   0.966   5.133  12.879 -0.0170  0.0074 -0.4345
14934TIP3    H266218   1.054   5.010  12.894 -0.5567 -0.4939 -1.2733
14935TIP3   OH266219   0.726   5.517  16.325  0.0178  0.1657 -0.4350
14935TIP3    H166220   0.647   5.463  16.325 -0.7739  1.2588 -1.4956
14935TIP3    H266221   0.768   5.500  16.409 -0.6042 -1.4876 -0.4265
14936TIP3   OH266222   5.607   1.358  14.717 -0.9967 -0.5731 -0.0746
14936TIP3    H166223   5.560   1.298  14.774 -0.9559 -0.1409  0.4184
14936TIP3    H266224   5.607   1.441  14.764  0.1052 -0.5148 -0.1464
14937TIP3   OH266225   0.335   5.541   0.858  0.8192 -0.2058  0.7067
14937TIP3    H166226   0.276   5.580   0.922  1.0453  1.4916 -0.0709
14937TIP3    H266227   0.283   5.473   0.815 -0.4162  0.9146  0.3871
14938TIP3   OH266228   3.401   1.979   5.685  0.4141 -0.3299 -0.1110
14938TIP3    H166229   3.475   1.958   5.628  1.1668  0.7567  0.4169
14938TIP3    H266230   3.429   1.952   5.773 -0.0531 -0.4442  0.0066
14939TIP3   OH266231   5.322   4.427   1.746 -0.0392  0.2077 -0.2770
14939TIP3    H166232   5.402   4.454   1.700  0.6837  1.3697  1.5537
14939TIP3    H266233   5.345   4.430   1.839 -1.3033 -2.5410  0.2178
14940TIP3   OH266234   1.953   2.731  15.913  0.5387 -0.1596  0.4737
14940TIP3    H166235   2.028   2.777  15.877 -0.4024  0.6287 -0.5544
14940TIP3    H266236   1.896   2.800  15.947 -0.7238 -0.5484 -0.7616
14941TIP3   OH266237   1.227   5.794  13.414 -0.4977 -0.6696 -0.1935
14941TIP3    H166238   1.180   5.771  13.494  0.1388  0.1935  0.4596
14941TIP3    H266239   1.259   5.711  13.380 -1.1362 -1.0927  0.2153
14942TIP3   OH266240   0.805   3.478  12.058 -0.0683  0.7008 -0.1998
14942TIP3    H166241   0.721   3.441  12.030 -0.2208  1.4414 -0.7432
14942TIP3    H266242   0.834   3.420  12.129 -0.5312 -0.1764 -0.7063
14943TIP3   OH266243   0.630   6.335   0.508  0.2758  0.1035 -0.2831
14943TIP3    H166244   0.719   6.299   0.512  1.1115  2.1108  0.8021
14943TIP3    H266245   0.604   6.344   0.600 -1.6908 -1.7985 -0.5770
14944TIP3   OH266246   0.714   3.860   4.381 -0.3495 -0.2421  0.2737
14944TIP3    H166247   0.742   3.831   4.468 -0.1079 -0.4890  0.1151
14944TIP3    H266248   0.692   3.952   4.392 -0.8158 -0.4002  0.7139
14945TIP3   OH266249   5.151   2.157  11.042 -0.1044  0.2859  0.1881
14945TIP3    H166250   5.181   2.166  11.133  1.7012 -0.7039 -0.2461
14945TIP3    H266251   5.134   2.246  11.013  3.0832  1.0909  0.3736
14946TIP3   OH266252   2.587   1.004   4.528 -0.3137  0.5334  0.2692
14946TIP3    H166253   2.508   1.012   4.474 -0.4758 -0.5915  0.3245
14946TIP3    H266254   2.626   0.921   4.502 -0.0646  0.2660  1.4438
14947TIP3   OH266255   1.210   2.588   1.305  0.3023  0.2970 -0.0515
14947TIP3    H166256   1.177   2.498   1.303 -0.1068  0.4309  0.3430
14947TIP3    H266257   1.303   2.579   1.323  0.3992 -0.0739 -0.7300
14948TIP3   OH266258   1.077   2.795   1.179 -0.1275 -0.6567 -0.7413
14948TIP3    H166259   1.115   2.744   1.250 -1.0245  1.9355  1.7673
14948TIP3    H266260   0.991   2.756   1.164 -0.6963 -0.1237  0.9487
14949TIP3   OH266261   2.779   4.937  14.107 -0.1544 -0.2320  0.4933
14949TIP3    H166262   2.856   4.937  14.051 -0.6133 -1.4107 -0.1768
14949TIP3    H266263   2.809   4.897  14.189 -0.7031 -3.6127 -0.8178
14950TIP3   OH266264   0.675   5.607   1.271  0.3199  0.3998  0.1158
14950TIP3    H166265   0.661   5.628   1.364 -2.4094  2.6993 -0.6492
14950TIP3    H266266   0.590   5.575   1.241  1.0732 -0.0235 -1.6717
14951TIP3   OH266267   6.567   5.164  11.859  0.2684 -0.3593 -0.2438
14951TIP3    H166268   6.525   5.086  11.824  1.2156 -0.7933 -0.4246
14951TIP3    H266269   6.562   5.228  11.788 -0.2250 -0.3513 -0.2069
14952TIP3   OH266270   2.456   2.886   3.655  0.2795  0.0846  0.2312
14952TIP3    H166271   2.471   2.858   3.565 -0.9314 -1.1206  0.3755
14952TIP3    H266272   2.480   2.811   3.708 -0.6570  0.1645  0.7949
14953TIP3   OH266273   4.243   1.921   1.843  0.4182 -0.6003 -0.2244
14953TIP3    H166274   4.312   1.905   1.779  1.5346 -1.8091  1.1894
14953TIP3    H266275   4.236   2.016   1.849  0.3146 -0.4691 -2.0583
14954TIP3   OH266276   0.730   4.942  16.331  0.1419  0.4129  0.9245
14954TIP3    H166277   0.701   4.977  16.247 -0.1899  0.5300  1.0875
14954TIP3    H266278   0.677   4.988  16.396 -0.4935 -0.5899  1.1323
14955TIP3   OH266279   4.974   0.398  16.819 -0.1240 -0.0964  0.0391
14955TIP3    H166280   4.894   0.417  16.869  1.1633  1.6648  1.5560
14955TIP3    H266281   5.022   0.481  16.819  1.2773 -0.8549 -1.6932
14956TIP3   OH266282   4.226   3.697   3.955 -0.5419 -0.7432  0.5279
14956TIP3    H166283   4.166   3.713   4.028 -0.3460  0.3690  0.4687
14956TIP3    H266284   4.248   3.784   3.923  0.4578 -1.1723  0.0111
14957TIP3   OH266285   5.767   5.002  11.692 -0.4996 -0.4782  0.3541
14957TIP3    H166286   5.740   5.077  11.639  2.1207  1.6469  1.7340
14957TIP3    H266287   5.812   4.945  11.630 -1.2821 -0.2305 -0.4728
14958TIP3   OH266288   6.494   2.959   4.083  0.0931  0.5675 -0.0530
14958TIP3    H166289   6.491   2.933   3.991 -1.3037  3.9002 -1.0989
14958TIP3    H266290   6.410   3.001   4.099  0.3085  0.1242  2.7875
14959TIP3   OH266291   2.997   5.321   4.879 -0.2996  0.2853  0.0511
14959TIP3    H166292   2.954   5.304   4.963  0.7835 -1.9607  0.2135
14959TIP3    H266293   2.979   5.244   4.826  0.9938  0.6322 -0.9415
14960TIP3   OH266294   6.522   6.606  12.931  0.6581  0.4861  0.1598
14960TIP3    H166295   6.541   6.567  12.845 -1.7649 -0.9422  0.1631
14960TIP3    H266296   6.463   6.679  12.911 -2.0474 -1.3965  0.6078
14961TIP3   OH266297   4.026   6.038  12.659 -0.5700  0.3782 -0.5530
14961TIP3    H166298   4.022   6.047  12.754  3.0701 -1.5914 -0.0209
14961TIP3    H266299   4.076   6.113  12.629  2.1617 -1.1768 -0.2061
14962TIP3   OH266300   4.104   0.025   5.549  0.1670  0.1438 -0.1457
14962TIP3    H166301   4.049   0.001   5.475  1.9174 -0.6697 -1.2674
14962TIP3    H266302   4.159  -0.052   5.564  1.9526  1.3812 -0.0148
14963TIP3   OH266303   1.564   3.986   5.109 -0.1455 -0.7087  0.1765
14963TIP3    H166304   1.547   4.066   5.158  0.8057  0.1316 -0.8092
14963TIP3    H266305   1.487   3.974   5.053  0.2106  0.2076 -0.5414
14964TIP3   OH266306   1.984   4.651   0.289  0.3649  0.4782  0.1524
14964TIP3    H166307   1.920   4.581   0.303  2.2692 -1.2687  0.7251
14964TIP3    H266308   1.953   4.724   0.342 -1.2676 -0.2170  0.2022
14965TIP3   OH266309   6.746   5.494   6.361  0.1877  0.3124  0.7782
14965TIP3    H166310   6.696   5.458   6.288  0.2335 -0.2278  1.0098
14965TIP3    H266311   6.783   5.417   6.405  2.1981  0.7493 -0.0643
14966TIP3   OH266312   3.233   3.471  13.157 -0.1200  0.2998 -0.8589
14966TIP3    H166313   3.322   3.454  13.127  0.0575 -1.7811  0.6440
14966TIP3    H266314   3.242   3.542  13.220  0.7262 -0.7269  0.2404
14967TIP3   OH266315   5.832   1.218  11.238  0.1313 -0.1639 -0.4735
14967TIP3    H166316   5.770   1.219  11.311 -0.3674  0.8357 -0.8862
14967TIP3    H266317   5.908   1.172  11.272  0.6450  1.8148  1.3332
14968TIP3   OH266318   3.489   6.063   1.887  0.6599  0.1893  0.4387
14968TIP3    H166319   3.429   6.105   1.948  1.7008  2.1839  0.1845
14968TIP3    H266320   3.559   6.028   1.942 -0.0412 -0.9719  0.6228
14969TIP3   OH266321   4.303   6.274  16.569 -0.0122  0.3411 -0.5701
14969TIP3    H166322   4.385   6.289  16.522 -0.1967 -0.1474 -1.0583
14969TIP3    H266323   4.321   6.303  16.658  0.6976  0.2299 -0.6702
14970TIP3   OH266324   4.807   5.201  16.421  0.3952  0.2011  0.2243
14970TIP3    H166325   4.810   5.264  16.494  0.0798  0.6315 -0.1278
14970TIP3    H266326   4.880   5.227  16.365  1.1481 -0.6393  0.7861
14971TIP3   OH266327   1.796   5.267  13.379 -0.2107  0.1053 -0.3478
14971TIP3    H166328   1.783   5.238  13.289 -1.7441  0.4017 -0.2435
14971TIP3    H266329   1.840   5.352  13.371  3.2098 -1.5591 -0.6786
14972TIP3   OH266330   4.408   4.590  16.154 -0.0513 -0.5462  0.3804
14972TIP3    H166331   4.465   4.537  16.210 -0.0046 -0.7463  0.1477
14972TIP3    H266332   4.417   4.679  16.188 -0.1850 -0.6990  0.8200
14973TIP3   OH266333   3.981   6.155  14.871  0.0944  0.1909 -0.0117
14973TIP3    H166334   4.014   6.078  14.826  0.2198  0.7623 -0.9312
14973TIP3    H266335   4.023   6.153  14.957  2.5358  0.8391 -1.0987
14974TIP3   OH266336   5.326   4.947   3.510 -0.1596 -0.2875 -0.3197
14974TIP3    H166337   5.287   4.870   3.553 -0.4555 -1.5645 -2.6851
14974TIP3    H266338   5.270   4.962   3.434  1.7050  0.2697 -1.6510
14975TIP3   OH266339   5.460   1.301  14.471 -0.3593 -0.3485 -0.2612
14975TIP3    H166340   5.480   1.211  14.445 -1.6148 -0.5170 -0.7559
14975TIP3    H266341   5.515   1.317  14.547  2.8620 -0.1232 -2.4394
14976TIP3   OH266342   3.551   5.617   3.739 -0.6008  0.0819  0.6756
14976TIP3    H166343   3.538   5.635   3.832  0.3927 -0.0848  0.8504
14976TIP3    H266344   3.490   5.676   3.694 -0.7691  0.4704  1.4082
14977TIP3   OH266345   5.926   4.424  12.079  0.0607  0.5636  0.2047
14977TIP3    H166346   6.000   4.407  12.137 -0.1404  1.0281  0.6183
14977TIP3    H266347   5.945   4.376  11.999  0.0850 -0.5408  0.8634
14978TIP3   OH266348   1.863   4.031   5.716 -0.1227 -0.6692 -0.3508
14978TIP3    H166349   1.923   3.956   5.715 -0.7883 -1.2808 -3.3102
14978TIP3    H266350   1.799   4.012   5.647 -1.0106  2.0853 -0.4120
14979TIP3   OH266351   0.488   1.340   3.279  0.4683  0.3387  0.4055
14979TIP3    H166352   0.405   1.362   3.236 -1.7589 -1.5516  3.3521
14979TIP3    H266353   0.499   1.246   3.264  0.4135 -0.0553  2.5524
14980TIP3   OH266354   3.002   2.380  15.611  1.1534  0.0076  0.1537
14980TIP3    H166355   3.076   2.322  15.627  0.3029 -1.2437 -0.2776
14980TIP3    H266356   2.974   2.408  15.698  0.6096 -1.5119  0.5034
14981TIP3   OH266357   2.425   5.981   5.265  0.1443 -0.1363  0.4202
14981TIP3    H166358   2.429   5.995   5.170  0.4293 -1.6175  0.1891
14981TIP3    H266359   2.448   6.066   5.303 -1.6295  0.9628 -0.8033
14982TIP3   OH266360   3.898   1.700  12.795 -0.0878 -0.2000  0.2752
14982TIP3    H166361   3.871   1.765  12.730  0.6433 -1.3907 -1.3099
14982TIP3    H266362   3.959   1.746  12.852  1.0063  0.3620 -1.2703
14983TIP3   OH266363   6.345   3.226  15.730  0.4245 -0.5688  0.1014
14983TIP3    H166364   6.385   3.142  15.707 -0.6347 -0.8645 -0.7550
14983TIP3    H266365   6.294   3.207  15.809 -0.8841 -1.0831 -0.8392
14984TIP3   OH266366   6.164   5.398   5.556 -0.5218 -0.0612  0.4728
14984TIP3    H166367   6.084   5.441   5.522 -1.0742  0.5377  2.3918
14984TIP3    H266368   6.231   5.417   5.490 -1.0583  2.7372  0.6074
14985TIP3   OH266369   5.766   2.494   0.130  0.5986  0.2226 -0.0813
14985TIP3    H166370   5.698   2.539   0.181 -1.1670 -2.9019  0.5953
14985TIP3    H266371   5.780   2.412   0.178  3.2341 -0.2377 -1.4959
14986TIP3   OH266372   3.817   6.405  11.431 -0.1050  0.6466  0.1097
14986TIP3    H166373   3.735   6.428  11.387  0.0483  0.4145 -0.2931
14986TIP3    H266374   3.884   6.411  11.364 -0.0644 -1.0292 -0.0378
14987TIP3   OH266375   4.252   5.573   0.363 -0.0265 -0.5334  0.5907
14987TIP3    H166376   4.206   5.632   0.423 -0.1638 -0.0495  0.0239
14987TIP3    H266377   4.311   5.630   0.314  0.0247 -0.9109  0.2070
14988TIP3   OH266378   6.763   0.995  15.293  0.0467 -0.3018 -0.5851
14988TIP3    H166379   6.736   1.079  15.257  1.9339  1.5502  1.9546
14988TIP3    H266380   6.859   0.999  15.296  0.0998 -1.4996  1.8010
14989TIP3   OH266381   4.444   1.869   4.541  0.2679 -0.4511  0.2808
14989TIP3    H166382   4.474   1.930   4.474 -1.4818  0.6241  0.4160
14989TIP3    H266383   4.497   1.889   4.618 -0.7641  1.4713  0.5488
14990TIP3   OH266384   0.122   1.253  15.389  0.0436  0.2046  0.7124
14990TIP3    H166385   0.148   1.344  15.400 -0.1454  0.5239 -1.1319
14990TIP3    H266386   0.198   1.210  15.351 -0.8473  0.3593 -1.4103
14991TIP3   OH266387   6.594   2.467  11.991 -0.1685 -0.0715  0.2865
14991TIP3    H166388   6.539   2.451  12.068 -0.8059  1.1088  0.1107
14991TIP3    H266389   6.552   2.419  11.920 -0.3346 -0.0827  0.3934
14992TIP3   OH266390   2.339   3.865  15.607  0.3179  0.3560 -0.1025
14992TIP3    H166391   2.332   3.855  15.512  0.2970 -1.6934  0.0690
14992TIP3    H266392   2.409   3.805  15.633 -0.4821 -0.0257  1.3051
14993TIP3   OH266393   4.826   1.653  15.220  0.0604 -0.2312 -0.5069
14993TIP3    H166394   4.873   1.736  15.230 -2.6689  1.2042  1.9468
14993TIP3    H266395   4.782   1.660  15.135 -0.3478  0.9968 -0.2194
14994TIP3   OH266396   1.345   2.681  13.519  0.5628 -0.2497 -0.4305
14994TIP3    H166397   1.418   2.741  13.535  0.4167 -0.2596  0.2959
14994TIP3    H266398   1.358   2.651  13.429  0.5363  1.0108 -0.8796
14995TIP3   OH266399   3.024   0.768  11.069  0.2872 -0.4115  0.4095
14995TIP3    H166400   2.964   0.838  11.042 -1.3068 -1.6554  0.5493
14995TIP3    H266401   3.061   0.736  10.987  1.0285  0.5774  0.3453
14996TIP3   OH266402   1.679   1.188   4.918  0.7745 -0.3708  0.2431
14996TIP3    H166403   1.705   1.266   4.966  2.4458 -0.1796 -0.8763
14996TIP3    H266404   1.672   1.217   4.827 -1.5649 -0.8880  0.1945
14997TIP3   OH266405   2.370   1.494  16.454  0.4537 -0.0480  0.3504
14997TIP3    H166406   2.398   1.486  16.545  1.0573  0.0066  0.1721
14997TIP3    H266407   2.316   1.573  16.453  0.7247  0.1428  0.5947
14998TIP3   OH266408   6.660   3.941  15.413 -0.4658  0.1394  0.7470
14998TIP3    H166409   6.648   3.884  15.490  0.0762 -1.7979 -0.5425
14998TIP3    H266410   6.598   4.013  15.428 -1.2447 -0.8030  2.4133
14999TIP3   OH266411   0.632   4.226   5.527 -0.0348  0.2056 -0.1095
14999TIP3    H166412   0.649   4.202   5.436  1.4925  2.3423 -0.4611
14999TIP3    H266413   0.539   4.204   5.540 -0.4636  0.3840 -2.3721
15000TIP3   OH266414   5.461   6.120  15.560 -0.2207 -1.0371  0.6180
15000TIP3    H166415   5.411   6.160  15.632 -1.8425 -0.9959 -0.4877
15000TIP3    H266416   5.462   6.027  15.582 -0.7738 -1.0365  0.6527
15001TIP3   OH266417   1.655   2.527   0.897  0.0981 -0.3908 -0.3137
15001TIP3    H166418   1.611   2.470   0.960  1.9682 -0.6007  0.9091
15001TIP3    H266419   1.620   2.614   0.915 -1.6922 -0.9038 -1.1786
15002TIP3   OH266420   5.526   6.426  14.711  0.6476 -0.3580  0.0619
15002TIP3    H166421   5.535   6.431  14.616 -0.9722  0.0398 -0.1087
15002TIP3    H266422   5.540   6.516  14.742 -0.0912 -0.2347  0.0536
15003TIP3   OH266423   2.078   6.001  13.810 -0.2544 -0.3865  0.3532
15003TIP3    H166424   2.139   5.959  13.748 -0.2899  1.4834 -1.0397
15003TIP3    H266425   2.135   6.034  13.880  0.4356  1.3898 -0.9616
15004TIP3   OH266426   0.978   0.538  14.969  0.0141  0.0116  0.5172
15004TIP3    H166427   1.019   0.452  14.958 -0.5364 -0.0662 -1.2128
15004TIP3    H266428   0.890   0.527  14.935  0.2618  1.5262 -0.7145
15005TIP3   OH266429   4.511   0.351   1.846  0.8637 -0.5097 -0.1442
15005TIP3    H166430   4.426   0.394   1.850  1.8523  1.5874 -0.4479
15005TIP3    H266431   4.491   0.260   1.824 -1.3199 -0.2228  0.4813
15006TIP3   OH266432   6.521   2.651  11.696 -0.1381  0.0071 -0.1098
15006TIP3    H166433   6.444   2.687  11.653  0.6628  1.5824 -0.2866
15006TIP3    H266434   6.584   2.638  11.626  0.0570 -0.4659  0.1483
15007TIP3   OH266435   1.971   2.768   1.141  0.9553 -0.6097 -0.3990
15007TIP3    H166436   2.050   2.797   1.187  0.1098 -0.0474  0.7624
15007TIP3    H266437   1.977   2.807   1.054  0.7567  1.5671  0.5055
15008TIP3   OH266438   5.300   4.780   1.551 -0.5207  0.3135 -0.5868
15008TIP3    H166439   5.248   4.857   1.573  1.8338  1.5297  1.1524
15008TIP3    H266440   5.362   4.811   1.485 -1.9181 -1.1232 -2.6805
15009TIP3   OH266441   4.121   5.428  13.869  0.1354 -0.4390 -0.1837
15009TIP3    H166442   4.161   5.360  13.923  1.0490  0.0569 -0.2200
15009TIP3    H266443   4.193   5.463  13.817 -0.5743 -0.3076 -1.0887
15010TIP3   OH266444   2.211   3.901   1.232  0.2046 -0.2117  0.3174
15010TIP3    H166445   2.290   3.863   1.271  0.7267  0.5092 -0.0123
15010TIP3    H266446   2.219   3.880   1.138  1.8004  2.8024 -0.3394
15011TIP3   OH266447   5.528   0.770  14.875 -0.2552  0.2769  0.3499
15011TIP3    H166448   5.596   0.726  14.925 -0.4784  1.2082  1.5306
15011TIP3    H266449   5.465   0.701  14.853  0.0207 -0.2221  1.0886
15012TIP3   OH266450   1.197   5.246  15.306 -0.5132 -0.0506 -0.2862
15012TIP3    H166451   1.248   5.270  15.383 -0.7847 -1.6887  0.4558
15012TIP3    H266452   1.111   5.285  15.321 -0.4239  0.0386 -0.0001
15013TIP3   OH266453   5.163   6.125  13.615 -0.3163 -0.3083 -0.7749
15013TIP3    H166454   5.172   6.174  13.697 -1.0180 -0.2091 -0.7519
15013TIP3    H266455   5.245   6.076  13.607 -0.6715 -1.1472  0.5279
15014TIP3   OH266456   1.026   0.497  17.041  0.7308  0.0007 -0.0245
15014TIP3    H166457   0.999   0.444  17.116  1.8871 -0.8769 -0.1871
15014TIP3    H266458   1.096   0.446  17.000  1.0505  1.0999 -0.9037
15015TIP3   OH266459   3.263   2.181  14.789 -0.0090 -0.1738  0.2343
15015TIP3    H166460   3.266   2.105  14.848  0.2867 -0.3575 -0.0138
15015TIP3    H266461   3.195   2.237  14.826 -0.4392 -0.6960  0.2606
15016TIP3   OH266462   2.327   3.170  14.948 -0.0847 -0.3093 -0.1927
15016TIP3    H166463   2.380   3.249  14.932 -1.4860  0.7287  0.1260
15016TIP3    H266464   2.285   3.152  14.865  0.2670 -0.7580 -0.2756
15017TIP3   OH266465   0.734   0.031   1.944  0.1753  0.1829 -0.3676
15017TIP3    H166466   0.803   0.087   1.978  0.1607  0.9838 -1.5875
15017TIP3    H266467   0.728   0.054   1.851 -0.2304 -1.4351 -0.7729
15018TIP3   OH266468   2.692   5.916   0.146  0.1853  0.0341 -0.0438
15018TIP3    H166469   2.669   5.897   0.055 -0.6909  0.5068  0.0744
15018TIP3    H266470   2.615   5.959   0.182  0.0540 -1.2130  1.2675
15019TIP3   OH266471   4.293   6.394  12.880 -0.0220 -0.1044  0.1638
15019TIP3    H166472   4.323   6.444  12.955 -0.0673  1.5551 -0.8804
15019TIP3    H266473   4.334   6.308  12.891  2.0018  0.8726  0.7965
15020TIP3   OH266474   3.166   1.217   6.103 -0.0914  0.2898  0.3622
15020TIP3    H166475   3.191   1.182   6.018  0.0537 -1.3435  1.0550
15020TIP3    H266476   3.080   1.180   6.120  0.0249  0.3298  1.0738
15021TIP3   OH266477   0.037   5.214  13.773  0.3823  0.7133  0.6013
15021TIP3    H166478   0.113   5.187  13.722 -0.0165 -1.3896  1.0459
15021TIP3    H266479  -0.023   5.250  13.708  0.8683  0.3524 -0.0577
15022TIP3   OH266480   0.499   6.726  11.155  0.1675  1.0407 -0.1947
15022TIP3    H166481   0.557   6.671  11.103  1.9143  0.7267  1.9312
15022TIP3    H266482   0.518   6.815  11.127 -0.9393  0.7833 -1.9563
15023TIP3   OH266483   6.004   5.880   5.588 -0.5799  0.2614 -0.5738
15023TIP3    H166484   6.028   5.797   5.630 -0.3782  0.5138 -0.1814
15023TIP3    H266485   6.070   5.942   5.619 -0.3674  0.4347 -1.3506
15024TIP3   OH266486   2.758   2.239  16.032 -0.0777 -0.5777  0.3732
15024TIP3    H166487   2.676   2.239  16.081 -0.8053 -2.7646 -0.6954
15024TIP3    H266488   2.741   2.180  15.958  1.6404  0.9290 -1.3278
15025TIP3   OH266489   0.672   5.966  16.900  0.5851 -0.1917 -0.1355
15025TIP3    H166490   0.659   6.049  16.854  0.5393 -0.4230 -0.5430
15025TIP3    H266491   0.612   5.905  16.857  1.7660 -0.8435 -0.9192
15026TIP3   OH266492   5.331   3.351  14.447  0.6169  0.4062 -0.1178
15026TIP3    H166493   5.352   3.263  14.477  0.8096  1.1282  1.9889
15026TIP3    H266494   5.375   3.410  14.508 -3.1032  1.9812  1.3910
15027TIP3   OH266495   6.039   2.923   3.926  0.0124  0.2041 -0.1389
15027TIP3    H166496   5.985   2.988   3.972 -1.1282 -0.5130 -0.4250
15027TIP3    H266497   6.077   2.870   3.996  1.7012  1.7229  0.1430
15028TIP3   OH266498   1.499   3.847   3.163 -0.0804 -0.1986  0.2494
15028TIP3    H166499   1.457   3.915   3.110  0.5805  0.7271  0.8885
15028TIP3    H266500   1.563   3.808   3.104  0.3155  0.4971  0.2048
15029TIP3   OH266501   0.970   6.147   4.520  0.6290 -0.0267 -0.3196
15029TIP3    H166502   0.883   6.107   4.517  0.1349  1.0226 -0.4063
15029TIP3    H266503   0.991   6.168   4.429  1.4790 -1.2821 -0.4454
15030TIP3   OH266504   3.423   6.051   4.301  0.2760  0.2137 -0.2802
15030TIP3    H166505   3.446   6.121   4.362  2.4415  0.9918 -1.8875
15030TIP3    H266506   3.330   6.035   4.318  0.2608  1.9213  1.6619
15031TIP3   OH266507   1.620   1.281  14.538  0.2678  0.0146  0.5047
15031TIP3    H166508   1.658   1.236  14.462  1.2727  2.0709 -0.3067
15031TIP3    H266509   1.696   1.299  14.594 -0.4551 -1.4136  2.0325
15032TIP3   OH266510   6.419   6.487   0.580  0.7784  0.3406 -0.3523
15032TIP3    H166511   6.364   6.475   0.658  1.2208  0.2048 -0.0555
15032TIP3    H266512   6.357   6.501   0.509  0.3801  1.4938  0.1944
15033TIP3   OH266513   2.599   1.197   2.336 -0.1289  0.1893  0.0264
15033TIP3    H166514   2.536   1.198   2.264 -0.6315 -0.6688  0.4349
15033TIP3    H266515   2.613   1.104   2.353  1.0749  0.3779  0.1031
15034TIP3   OH266516   1.549   4.017   2.601  0.3634  0.1903  0.0950
15034TIP3    H166517   1.555   4.095   2.547 -1.1564  0.3548  0.1140
15034TIP3    H266518   1.540   3.945   2.539  2.6033 -0.1314  0.0427
15035TIP3   OH266519   4.395   1.942   1.381  0.1480 -0.6213 -0.0985
15035TIP3    H166520   4.426   1.907   1.465  0.5995 -0.0872 -0.0410
15035TIP3    H266521   4.427   1.880   1.315  1.4181 -0.0316 -0.0522
15036TIP3   OH266522   3.133   4.060  12.816  0.1749 -0.3343 -0.7139
15036TIP3    H166523   3.083   4.014  12.883  0.9542 -0.0515  0.0910
15036TIP3    H266524   3.067   4.092  12.754 -0.4108 -2.2624 -1.1623
15037TIP3   OH266525   4.458   2.115  15.122 -0.1968  0.1417 -0.5473
15037TIP3    H166526   4.443   2.171  15.046 -1.7614  0.6166  0.0696
15037TIP3    H266527   4.432   2.169  15.197 -0.5755 -0.9837  0.1627
15038TIP3   OH266528   1.248   2.191   1.958  0.2532  0.4314  0.0215
15038TIP3    H166529   1.169   2.144   1.931 -1.1064  2.6213 -0.0149
15038TIP3    H266530   1.316   2.123   1.960 -1.6918 -1.6528  0.5315
15039TIP3   OH266531   2.960   0.132  13.827 -0.1474  0.0205 -0.5604
15039TIP3    H166532   3.010   0.205  13.864  0.5207 -0.5603 -0.2723
15039TIP3    H266533   2.885   0.173  13.785  1.2614  1.0710 -2.2060
15040TIP3   OH266534   2.045   6.602  11.975 -0.0867  0.6158  0.8026
15040TIP3    H166535   2.115   6.563  11.922 -1.5478  0.3555 -1.0245
15040TIP3    H266536   2.025   6.535  12.041  0.6510  0.2667  0.6876
15041TIP3   OH266537   0.651   2.196  12.857 -0.3059  0.4512  0.9314
15041TIP3    H166538   0.710   2.207  12.932  0.2792 -0.9698  0.7105
15041TIP3    H266539   0.705   2.154  12.790 -0.7073  2.0406 -0.4615
15042TIP3   OH266540   5.624   3.974  13.478  0.3498  0.4115 -0.0605
15042TIP3    H166541   5.707   3.932  13.452  1.2326  1.5839  0.7373
15042TIP3    H266542   5.637   4.067  13.457 -1.3179  0.4300 -1.2014
15043TIP3   OH266543   1.121   6.317  15.697  0.1149 -0.6952 -0.3768
15043TIP3    H166544   1.035   6.313  15.655  0.7358  0.9050 -1.8964
15043TIP3    H266545   1.184   6.304  15.626  1.1732  0.4571  0.3098
15044TIP3   OH266546   1.109   4.151   1.054  0.2000  0.3849  0.3453
15044TIP3    H166547   1.049   4.163   0.981  1.2190 -1.8657 -0.9807
15044TIP3    H266548   1.052   4.132   1.129 -0.8375  2.3240  0.1142
15045TIP3   OH266549   4.007   0.955   2.858 -0.2992 -0.5856  0.3133
15045TIP3    H166550   3.976   0.866   2.874 -0.1292 -0.4118  1.6973
15045TIP3    H266551   3.938   0.995   2.804 -1.8953 -0.6211  2.2206
15046TIP3   OH266552   2.725   1.852  12.056 -0.1173  0.2666 -0.5081
15046TIP3    H166553   2.731   1.879  11.964  0.9583  1.4149 -0.1236
15046TIP3    H266554   2.726   1.934  12.105 -0.4478 -0.3418  0.5539
15047TIP3   OH266555   0.511   6.469  13.868  0.4722  0.4001 -0.6113
15047TIP3    H166556   0.465   6.538  13.916  1.1532  1.9247 -2.0584
15047TIP3    H266557   0.478   6.476  13.779  1.8844  0.0821 -1.1878
15048TIP3   OH266558   3.687   6.391  15.930 -0.4106 -0.1521  0.7595
15048TIP3    H166559   3.712   6.381  16.022 -0.4969  0.6039  0.8733
15048TIP3    H266560   3.678   6.301  15.898 -2.0387 -0.4521  1.9280
15049TIP3   OH266561   5.912   0.668   3.149 -0.2665 -0.0113  0.5102
15049TIP3    H166562   5.996   0.642   3.110  0.7878  1.6588  1.5528
15049TIP3    H266563   5.866   0.585   3.164  1.5689 -1.0497  0.7296
15050TIP3   OH266564   4.793   6.645  15.288 -0.2191  0.0801 -0.0044
15050TIP3    H166565   4.865   6.582  15.291 -1.2373 -1.0902  0.9236
15050TIP3    H266566   4.789   6.673  15.197  0.6063 -0.7850 -0.3155
15051TIP3   OH266567   5.768   3.346   6.126 -0.0482 -0.4518 -0.2352
15051TIP3    H166568   5.754   3.275   6.063 -0.0443  0.9237 -1.8629
15051TIP3    H266569   5.862   3.341   6.146 -0.3262 -1.8393  0.9016
15052TIP3   OH266570   3.142   4.707  11.638 -0.1620 -0.0063 -0.3617
15052TIP3    H166571   3.137   4.704  11.734  0.8396 -0.7242 -0.3242
15052TIP3    H266572   3.153   4.800  11.618  1.6024 -0.0294  0.3475
15053TIP3   OH266573   2.878   2.433  12.973 -0.2023 -0.2581  0.1704
15053TIP3    H166574   2.945   2.502  12.983  0.7624 -0.8361 -1.6967
15053TIP3    H266575   2.798   2.472  13.007  0.7434  1.0610  0.9842
15054TIP3   OH266576   4.349   1.619  12.231 -0.1453  0.2963  0.1275
15054TIP3    H166577   4.271   1.576  12.195 -0.0695  2.0803 -2.3854
15054TIP3    H266578   4.422   1.577  12.186  0.3445 -0.7578  1.8277
15055TIP3   OH266579   1.275   1.507   5.405 -0.5006  0.6633  0.1566
15055TIP3    H166580   1.209   1.462   5.351 -0.0408  1.6877 -1.3156
15055TIP3    H266581   1.233   1.589   5.430  0.4967  1.7713 -1.6080
15056TIP3   OH266582   2.471   4.348   1.374  0.2268  0.1050 -0.1405
15056TIP3    H166583   2.524   4.363   1.296 -0.6234  1.5269 -0.4806
15056TIP3    H266584   2.498   4.261   1.405  0.8709 -0.3184 -1.7654
15057TIP3   OH266585   6.773   1.249  12.184  0.2100 -0.4897  0.7051
15057TIP3    H166586   6.797   1.341  12.173  1.3493 -0.5400  2.2757
15057TIP3    H266587   6.796   1.230  12.276  0.5323 -2.4717  0.2573
15058TIP3   OH266588   5.997   1.306  15.067  0.1365 -0.3118 -0.1416
15058TIP3    H166589   5.977   1.301  14.973  2.4860  0.7405 -0.7936
15058TIP3    H266590   6.011   1.400  15.083 -0.7765 -0.4120  1.4166
15059TIP3   OH266591   2.478   2.060  15.503  0.1874 -0.1629  0.4157
15059TIP3    H166592   2.546   2.106  15.453 -1.6235  1.1651 -0.9512
15059TIP3    H266593   2.469   1.975  15.458 -0.2172  0.3288 -0.4514
15060TIP3   OH266594   3.027   6.220  14.820 -0.1148 -0.3388 -0.4863
15060TIP3    H166595   2.970   6.178  14.884 -0.5623  0.8011 -0.1112
15060TIP3    H266596   3.105   6.244  14.870 -0.4079  0.4326 -0.3826
15061TIP3   OH266597   4.338   1.685   3.039  1.2874 -0.0948  0.3506
15061TIP3    H166598   4.333   1.590   3.050  0.5179 -0.1189 -0.1611
15061TIP3    H266599   4.429   1.706   3.058  1.2689 -0.8202  1.3474
15062TIP3   OH266600   2.283   5.098  12.936 -0.1027 -0.1551 -0.4026
15062TIP3    H166601   2.236   5.015  12.936  0.2608 -0.3606 -0.1425
15062TIP3    H266602   2.289   5.123  12.844 -1.8294  0.4938 -0.3832
15063TIP3   OH266603   1.896   4.212   3.320  0.1311  1.0612 -0.2600
15063TIP3    H166604   1.802   4.216   3.335  0.1440  0.5003 -0.0353
15063TIP3    H266605   1.926   4.139   3.373  0.7542  1.4800 -0.0186
15064TIP3   OH266606   5.772   0.414   2.178  0.2444  0.0382  0.1210
15064TIP3    H166607   5.794   0.400   2.086  2.8283  2.2163  0.2638
15064TIP3    H266608   5.834   0.359   2.226  0.7144  0.8908  0.5232
15065TIP3   OH266609   2.767   6.806   5.823 -0.5053  0.0224 -0.6165
15065TIP3    H166610   2.768   6.806   5.919  1.9009 -0.7876 -0.5767
15065TIP3    H266611   2.693   6.749   5.800  0.8077 -2.4779  0.8595
15066TIP3   OH266612   5.856   4.925   4.975 -0.0697  0.0419 -0.0490
15066TIP3    H166613   5.829   4.834   4.989  0.8204  0.0606  2.0315
15066TIP3    H266614   5.916   4.921   4.900 -1.8725 -0.6964 -1.5239
15067TIP3   OH266615   6.047   3.235   3.937  0.3923  0.3898 -0.1640
15067TIP3    H166616   5.980   3.237   4.005  0.9928  1.6623  0.4408
15067TIP3    H266617   6.002   3.263   3.858 -0.3606 -1.2991 -0.3700
15068TIP3   OH266618   2.710   5.774  16.627 -1.3863  0.6176 -0.3612
15068TIP3    H166619   2.643   5.739  16.569 -0.7546 -0.5015 -0.4560
15068TIP3    H266620   2.695   5.730  16.711 -0.2938 -0.2967 -0.6078
15069TIP3   OH266621   1.643   1.481  11.690  0.1921 -0.3476 -0.3562
15069TIP3    H166622   1.590   1.499  11.612 -4.1180  0.8039  2.5446
15069TIP3    H266623   1.625   1.553  11.749  4.1725 -0.6001  1.4620
15070TIP3   OH266624   0.773   1.212  15.730  0.1929  0.4663 -0.6394
15070TIP3    H166625   0.704   1.190  15.793  0.1790 -0.3936 -0.9422
15070TIP3    H266626   0.817   1.288  15.769 -0.8517  0.9679 -0.3876
15071TIP3   OH266627   6.427   3.765   1.234  0.0796  0.1162 -0.4118
15071TIP3    H166628   6.470   3.786   1.151 -1.7426 -0.0830 -1.4391
15071TIP3    H266629   6.369   3.839   1.252  1.0775  0.5800  1.1844
15072TIP3   OH266630   5.487   5.338  14.243 -0.2448 -0.0897 -0.5792
15072TIP3    H166631   5.519   5.248  14.245 -0.6309 -0.2258  1.1911
15072TIP3    H266632   5.392   5.330  14.234 -0.2992  0.1230 -0.2314
15073TIP3   OH266633   6.379   5.629  11.474 -0.1720  0.1110  0.0783
15073TIP3    H166634   6.380   5.556  11.537 -3.2902 -1.4339 -1.4292
15073TIP3    H266635   6.429   5.596  11.399 -0.4170  0.0350 -0.0557
15074TIP3   OH266636   3.943   5.254   4.476 -1.1271  0.5621 -0.1611
15074TIP3    H166637   3.974   5.234   4.388 -1.9788  0.6554 -0.4938
15074TIP3    H266638   4.020   5.242   4.532 -0.2356  1.8062 -1.0749
15075TIP3   OH266639   2.784   2.148   2.044 -0.3904 -0.9120 -0.4313
15075TIP3    H166640   2.725   2.099   1.987  0.7963 -0.7689 -1.8419
15075TIP3    H266641   2.846   2.082   2.077 -0.8265 -0.9229  0.3993
15076TIP3   OH266642   3.515   3.288   3.678  0.2328 -0.3935  0.3040
15076TIP3    H166643   3.432   3.265   3.637  0.9575 -0.7675 -1.0164
15076TIP3    H266644   3.577   3.222   3.646  2.3118  2.8938 -3.2560
15077TIP3   OH266645   1.821   2.192   3.254 -0.6514  0.3246 -0.0279
15077TIP3    H166646   1.917   2.192   3.255 -0.6450 -0.4107  1.2996
15077TIP3    H266647   1.798   2.231   3.169  0.8059  1.8968  0.2502
15078TIP3   OH266648   2.493   4.577  13.369 -0.2106 -0.2364 -0.0609
15078TIP3    H166649   2.563   4.537  13.421  0.3204  0.3269 -0.3221
15078TIP3    H266650   2.506   4.542  13.281 -1.4566 -1.6291  0.2815
15079TIP3   OH266651   3.651   5.446  16.956 -0.0413 -0.1693 -0.4328
15079TIP3    H166652   3.654   5.525  17.011 -0.3387  0.1972 -0.9356
15079TIP3    H266653   3.742   5.431  16.931 -0.0125  0.1505 -0.5243
15080TIP3   OH266654   0.815   1.918  16.287 -0.1420 -0.6544 -0.3713
15080TIP3    H166655   0.896   1.866  16.290  0.8180  0.7982  0.5190
15080TIP3    H266656   0.760   1.873  16.224  2.2580 -0.4884 -2.7932
15081TIP3   OH266657   3.194   1.395   4.007 -0.3166  0.1138 -0.2131
15081TIP3    H166658   3.268   1.340   3.981  0.2098  0.3756  0.6810
15081TIP3    H266659   3.212   1.417   4.099 -0.4865  1.7983 -0.5495
15082TIP3   OH266660   4.151   1.416  13.447 -0.2371  0.3592 -0.3937
15082TIP3    H166661   4.141   1.373  13.362  1.0097 -1.2834  0.2427
15082TIP3    H266662   4.213   1.361  13.495  1.9980  3.2032  0.2714
15083TIP3   OH266663   3.112   5.483  15.382  0.2455  0.7263 -0.2012
15083TIP3    H166664   3.200   5.467  15.346  0.0836 -0.3284 -0.1728
15083TIP3    H266665   3.123   5.560  15.437  1.4321 -0.0504  0.7152
15084TIP3   OH266666   0.062   3.085   2.593 -0.0711 -0.4009 -0.0704
15084TIP3    H166667   0.019   3.064   2.510 -2.0350  2.5297  0.0425
15084TIP3    H266668  -0.002   3.060   2.660  0.6853 -0.9531  0.4548
15085TIP3   OH266669   2.685   1.151  16.709  0.1235  1.0405 -0.2503
15085TIP3    H166670   2.694   1.142  16.804 -0.8992 -1.5948 -0.3313
15085TIP3    H266671   2.724   1.236  16.690  2.1443  0.7975  2.2621
15086TIP3   OH266672   4.275   3.566   4.543  0.0416 -0.6099 -0.3197
15086TIP3    H166673   4.368   3.558   4.522 -0.2539 -0.9841 -1.5904
15086TIP3    H266674   4.230   3.542   4.462 -1.1559  0.2610  0.0554
15087TIP3   OH266675   2.866   3.520   1.103  0.3956  1.0994 -0.5705
15087TIP3    H166676   2.833   3.589   1.045 -0.8227 -0.1639 -1.4568
15087TIP3    H266677   2.914   3.461   1.045 -1.4199 -0.5493 -0.4886
15088TIP3   OH266678   3.015   1.203  12.996 -0.6064  0.3879  0.1943
15088TIP3    H166679   3.105   1.168  12.996 -0.6260  0.3093 -0.5284
15088TIP3    H266680   3.014   1.266  13.068 -0.1156  0.0300  0.5257
15089TIP3   OH266681   5.357   2.899   0.742  0.0569 -0.4503  0.4201
15089TIP3    H166682   5.410   2.978   0.744  0.2914 -0.5627 -0.7010
15089TIP3    H266683   5.320   2.897   0.654 -0.5690 -1.1861  0.6844
15090TIP3   OH266684   5.908   6.208   0.097  0.3187  0.0550 -0.0688
15090TIP3    H166685   5.954   6.233   0.177  1.7425 -0.8297 -0.5842
15090TIP3    H266686   5.951   6.127   0.068 -0.5060  0.0751 -1.4549
15091TIP3   OH266687   5.467   6.456   2.600  0.1475 -0.2468 -0.1621
15091TIP3    H166688   5.505   6.493   2.680  0.0649 -0.4296 -0.0386
15091TIP3    H266689   5.449   6.533   2.545  0.9685 -0.1679 -0.3479
15092TIP3   OH266690   6.307   4.608   0.756  0.0597  0.2255 -0.6050
15092TIP3    H166691   6.277   4.532   0.807 -1.8143  0.8300 -0.7393
15092TIP3    H266692   6.342   4.668   0.822 -2.5755  1.1064  0.1164
15093TIP3   OH266693   1.958   5.257   5.098  0.5134  0.6097 -0.2985
15093TIP3    H166694   2.052   5.240   5.095  0.2110 -1.1948 -0.6987
15093TIP3    H266695   1.941   5.311   5.022  1.1140  0.2342 -0.7068
15094TIP3   OH266696   4.552   2.883  13.054  0.1170  0.3116  0.2143
15094TIP3    H166697   4.641   2.867  13.025  0.4688  2.4129 -0.0418
15094TIP3    H266698   4.525   2.801  13.095  2.2287 -0.2973  0.5029
15095TIP3   OH266699   0.174   6.290   2.704  0.4131 -0.0090 -0.4843
15095TIP3    H166700   0.178   6.349   2.779  1.2412 -0.3366 -0.2713
15095TIP3    H266701   0.176   6.348   2.628 -1.1697  0.3717 -0.2731
15096TIP3   OH266702   1.027   0.207  15.974  0.6751 -0.1944 -0.6913
15096TIP3    H166703   0.940   0.218  16.013  1.8753  0.9082  1.9025
15096TIP3    H266704   1.009   0.171  15.887 -2.4017  0.8358 -0.6179
15097TIP3   OH266705   2.574   2.295   3.167 -0.5085 -0.0510  0.3564
15097TIP3    H166706   2.652   2.293   3.112 -0.2584  0.6374  0.6721
15097TIP3    H266707   2.519   2.224   3.134  0.1029 -0.3263 -0.0846
15098TIP3   OH266708   6.738   6.091   5.477  0.7991 -0.1089 -0.0317
15098TIP3    H166709   6.730   6.178   5.439  0.5523 -0.6958 -1.3558
15098TIP3    H266710   6.720   6.105   5.571  0.3475  1.1851 -0.2865
15099TIP3   OH266711   6.107   5.096  15.137  0.4187  0.3266 -0.0936
15099TIP3    H166712   6.064   5.022  15.180  1.6382 -0.0168  0.5853
15099TIP3    H266713   6.071   5.096  15.048  0.5491 -1.2286 -0.1799
15100TIP3   OH266714   2.836   3.286   6.106  0.2540  0.0294 -0.3445
15100TIP3    H166715   2.928   3.262   6.098  0.3440  0.1324  0.3205
15100TIP3    H266716   2.826   3.363   6.051 -0.0000 -1.3972 -2.4045
15101TIP3   OH266717   5.285   0.854  14.363 -0.1508  0.2899 -0.1452
15101TIP3    H166718   5.265   0.824  14.452  1.7356 -1.5034 -0.2741
15101TIP3    H266719   5.250   0.785  14.306 -0.6441  1.0417 -0.7717
15102TIP3   OH266720   2.593   5.753   0.919  0.4511  0.1740 -0.1626
15102TIP3    H166721   2.669   5.786   0.872  1.9877 -1.0622  1.3335
15102TIP3    H266722   2.628   5.720   1.002 -1.6248 -0.9759  0.3323
15103TIP3   OH266723   1.620   6.309   6.154  0.2109 -0.4114 -0.8257
15103TIP3    H166724   1.618   6.393   6.109  0.9591 -0.4448 -0.9328
15103TIP3    H266725   1.613   6.331   6.247 -0.1635 -0.2743 -0.8828
15104TIP3   OH266726   2.982   6.653  14.996 -0.1304 -0.2659  0.2036
15104TIP3    H166727   2.944   6.731  15.036  1.5620  0.2379  0.8681
15104TIP3    H266728   2.975   6.586  15.064 -1.0210 -0.5650 -0.1559
15105TIP3   OH266729   5.473   2.888   1.086  0.1579 -0.5680 -0.2949
15105TIP3    H166730   5.513   2.807   1.054 -1.4328 -1.4320 -0.2228
15105TIP3    H266731   5.547   2.947   1.103  1.4781 -2.4964  1.0816
15106TIP3   OH266732   3.577   4.643   4.380  0.1592  0.3634  0.0690
15106TIP3    H166733   3.513   4.630   4.450  1.0104 -3.8352  0.3527
15106TIP3    H266734   3.655   4.677   4.424 -0.1099  0.1864  0.6941
15107TIP3   OH266735   1.461   2.989   6.193 -0.0442  0.0185  0.1909
15107TIP3    H166736   1.536   2.934   6.168  0.7214  1.4666 -0.8423
15107TIP3    H266737   1.393   2.926   6.219  1.8452 -1.3272  2.2229
15108TIP3   OH266738   1.414   6.766  15.473  0.0492  0.4578 -0.3126
15108TIP3    H166739   1.465   6.686  15.486  0.3396  0.7356  0.2630
15108TIP3    H266740   1.421   6.784  15.379  1.2637  0.6600 -0.1929
15109TIP3   OH266741   1.108   3.176   2.831 -0.3110  0.0895 -0.6179
15109TIP3    H166742   1.194   3.204   2.798 -0.0431 -1.1443 -1.0538
15109TIP3    H266743   1.128   3.102   2.889 -1.0756 -0.2611 -0.7827
15110TIP3   OH266744   4.474   4.174   2.200  0.3049  0.5091  0.1013
15110TIP3    H166745   4.443   4.264   2.202  1.4271  0.9128  0.5757
15110TIP3    H266746   4.440   4.138   2.118 -0.7256  1.1381  0.2354
15111TIP3   OH266747   4.707   6.502  11.066  0.9629  0.6690  0.7478
15111TIP3    H166748   4.734   6.418  11.027 -1.2896  0.5610 -0.7836
15111TIP3    H266749   4.736   6.568  11.004 -0.8609  0.6507 -0.1943
15112TIP3   OH266750   3.340   3.710  16.848 -0.1434 -0.4282  0.1365
15112TIP3    H166751   3.283   3.634  16.843  0.3933 -0.8048 -0.3444
15112TIP3    H266752   3.286   3.783  16.818  0.2719 -1.1427 -2.5845
15113TIP3   OH266753   4.507   3.445   6.131 -0.4466  0.2060  0.1214
15113TIP3    H166754   4.592   3.412   6.161 -0.1320  0.6365 -0.2855
15113TIP3    H266755   4.453   3.366   6.121 -0.3225 -0.0036  1.0826
15114TIP3   OH266756   0.060   0.129  11.959  0.5400 -0.3259  0.1953
15114TIP3    H166757   0.058   0.113  11.865  0.3253 -2.7064  0.5558
15114TIP3    H266758   0.126   0.198  11.970  1.6401 -1.0315 -1.5801
15115TIP3   OH266759   4.233   0.397   5.107  0.2568 -0.0251  0.2217
15115TIP3    H166760   4.268   0.457   5.173 -1.2301 -0.2057  1.2278
15115TIP3    H266761   4.222   0.314   5.154  1.3230 -0.8221 -0.8831
15116TIP3   OH266762   2.618   3.980   4.911 -0.2033 -0.7119  0.1737
15116TIP3    H166763   2.602   3.919   4.983 -1.2412  1.0348  1.5089
15116TIP3    H266764   2.533   3.989   4.869  0.0289 -0.4666 -0.2397
15117TIP3   OH266765   2.209   6.129   2.045 -0.3242 -0.2957  0.1509
15117TIP3    H166766   2.280   6.079   2.086 -1.2384 -1.8837 -0.0970
15117TIP3    H266767   2.243   6.156   1.961 -0.3324 -2.0091 -0.4447
15118TIP3   OH266768   0.048   4.107   2.151  0.0742  0.1835  0.2552
15118TIP3    H166769   0.061   4.201   2.149 -0.4826  0.2544 -0.9624
15118TIP3    H266770  -0.037   4.095   2.193  0.5406  0.1489  1.2324
15119TIP3   OH266771   6.474   2.597  13.498 -0.4326 -0.0716 -0.1555
15119TIP3    H166772   6.464   2.568  13.407 -0.6616 -2.8411  0.6567
15119TIP3    H266773   6.386   2.593  13.534 -0.4268  1.5205  0.0935
15120TIP3   OH266774   1.871   0.241  11.046 -0.0309  0.8656  0.0350
15120TIP3    H166775   1.850   0.315  11.103 -0.5679  0.0587  0.9215
15120TIP3    H266776   1.842   0.268  10.959  0.1801  1.8543  0.2656
15121TIP3   OH266777   1.982   0.037   6.345 -0.3351 -0.4442 -0.0978
15121TIP3    H166778   1.946  -0.052   6.348 -0.6542 -0.3014  0.7545
15121TIP3    H266779   1.923   0.088   6.400  1.3631 -0.2907  1.7157
15122TIP3   OH266780   6.810   1.949  12.676  0.2030  0.0550  0.2270
15122TIP3    H166781   6.870   2.011  12.635  0.3192 -1.2458 -1.6731
15122TIP3    H266782   6.726   1.966  12.634  0.6178 -2.2182 -1.7236
15123TIP3   OH266783   3.629   1.949   5.554  0.6692 -0.1535 -0.2417
15123TIP3    H166784   3.640   1.890   5.480  0.8270  0.4273 -0.6862
15123TIP3    H266785   3.666   2.032   5.524  2.7544 -0.4535  1.2123
15124TIP3   OH266786   3.546   3.183  16.947  0.2177 -0.2805 -0.0445
15124TIP3    H166787   3.572   3.264  16.903  0.8884 -0.9773 -0.9889
15124TIP3    H266788   3.619   3.122  16.930  0.1454 -0.8210  1.3998
15125TIP3   OH266789   0.956   6.522  16.042  0.0889  0.5939  0.3692
15125TIP3    H166790   0.991   6.611  16.035 -1.3640  1.1012 -1.0157
15125TIP3    H266791   0.862   6.532  16.023  0.0720 -1.3474 -0.7781
15126TIP3   OH266792   0.601   3.845   1.073  1.1546  0.6764  0.8319
15126TIP3    H166793   0.548   3.765   1.064  2.5914 -0.3711  1.3055
15126TIP3    H266794   0.554   3.897   1.138  0.1737  0.2586  0.4893
15127TIP3   OH266795   0.033   2.908   0.495 -0.2878  0.1628 -0.9653
15127TIP3    H166796  -0.033   2.974   0.474 -0.1338 -0.1576 -2.5957
15127TIP3    H266797   0.084   2.946   0.566 -1.6105  0.8259 -0.3307
15128TIP3   OH266798   0.511   1.881  11.382  0.8309  0.2718 -0.4078
15128TIP3    H166799   0.563   1.850  11.456  0.6054  0.7089 -0.0583
15128TIP3    H266800   0.422   1.854  11.402  0.5264  1.6543  0.2128
15129TIP3   OH266801   2.576   0.562  14.372  0.6052  0.5072 -0.4238
15129TIP3    H166802   2.587   0.656  14.365 -0.7309  0.6094 -1.4435
15129TIP3    H266803   2.655   0.532  14.417  0.5998  2.2175  0.8282
15130TIP3   OH266804   6.631   0.853   3.784  0.5626  0.2173 -0.0074
15130TIP3    H166805   6.649   0.901   3.704  0.4234  1.0826  0.4722
15130TIP3    H266806   6.640   0.918   3.854 -2.0855  0.1941  0.4603
15131TIP3   OH266807   0.552   4.795   3.399  0.6430  0.3700  0.3179
15131TIP3    H166808   0.573   4.872   3.451  0.5666 -0.5567  1.7574
15131TIP3    H266809   0.466   4.767   3.431  0.5315 -0.1438 -0.4052
15132TIP3   OH266810   1.149   0.072   5.905  0.7494 -0.7455 -0.5489
15132TIP3    H166811   1.211   0.125   5.854  1.9170 -0.3745  1.1966
15132TIP3    H266812   1.164  -0.017   5.874 -1.4186 -0.1943 -3.7156
15133TIP3   OH266813   0.630   3.630   2.071  0.2469  0.0493  0.3956
15133TIP3    H166814   0.552   3.684   2.085  1.8256  2.7069 -0.3671
15133TIP3    H266815   0.692   3.659   2.138  2.6576  2.4336 -2.5999
15134TIP3   OH266816   4.166   2.433   5.334  0.1115  0.0884  0.1288
15134TIP3    H166817   4.127   2.413   5.420 -1.9019 -2.5797 -1.2505
15134TIP3    H266818   4.229   2.362   5.320 -1.6282 -1.1907 -1.7037
15135TIP3   OH266819   4.968   2.728   0.623  0.1292  0.3199  0.2442
15135TIP3    H166820   4.907   2.661   0.655 -0.9487  1.5663  0.8469
15135TIP3    H266821   5.055   2.695   0.649 -0.3285 -1.0900  0.0609
15136TIP3   OH266822   2.183   6.195  15.393 -0.0566 -0.3895  0.4624
15136TIP3    H166823   2.231   6.195  15.310 -1.7995 -0.4517 -0.6132
15136TIP3    H266824   2.209   6.114  15.437  1.7391  0.1909  0.5213
15137TIP3   OH266825   3.782   5.452  12.032  0.0739  0.2331  0.2067
15137TIP3    H166826   3.719   5.400  12.082 -0.1306  2.0565  1.9760
15137TIP3    H266827   3.728   5.499  11.968 -0.0205 -0.0146  0.0997
15138TIP3   OH266828   4.027   3.348  13.516  0.1906  0.4236 -0.0617
15138TIP3    H166829   4.061   3.428  13.557  0.5625 -0.1690  0.8211
15138TIP3    H266830   4.104   3.307  13.477  0.6995 -1.2235  2.4455
15139TIP3   OH266831   3.837   1.306  16.416  0.3643  0.2096  0.0786
15139TIP3    H166832   3.928   1.311  16.447  0.2640  0.8390  0.2845
15139TIP3    H266833   3.845   1.304  16.321  0.6711 -1.6669  0.1119
15140TIP3   OH266834   3.516   3.986  13.066 -0.0462 -0.6815  0.3410
15140TIP3    H166835   3.591   3.928  13.058  0.2735 -0.2668  0.2681
15140TIP3    H266836   3.454   3.954  13.001  0.2114 -0.8198  0.1608
15141TIP3   OH266837   2.316   3.593  14.893  0.1912  0.1677 -0.4045
15141TIP3    H166838   2.361   3.523  14.940 -1.6929 -0.3657  0.7088
15141TIP3    H266839   2.305   3.662  14.959 -0.8523  0.1623 -0.5630
15142TIP3   OH266840   4.421   5.040  15.813 -0.4068  0.4380  0.3467
15142TIP3    H166841   4.484   5.100  15.772 -0.2284  0.7121  1.0110
15142TIP3    H266842   4.386   5.090  15.886 -1.1472  0.1583  0.1854
15143TIP3   OH266843   3.951   0.020  14.725 -0.0073 -0.3556 -0.4110
15143TIP3    H166844   3.879  -0.039  14.747  1.1496 -1.5472  0.3382
15143TIP3    H266845   4.028  -0.037  14.719  1.1143  1.0341  0.1455
15144TIP3   OH266846   3.244   6.368   1.853  0.0269  0.4190 -0.0455
15144TIP3    H166847   3.217   6.279   1.834 -0.9375  0.9319 -1.2467
15144TIP3    H266848   3.320   6.382   1.796 -1.6111  1.2808 -2.1436
15145TIP3   OH266849   5.061   5.674  12.840  0.6016 -0.3273 -0.5200
15145TIP3    H166850   5.153   5.676  12.814  0.5293  0.7572 -0.7333
15145TIP3    H266851   5.058   5.726  12.920 -0.0811  1.0295 -1.3961
15146TIP3   OH266852   5.435   0.752   3.593 -0.1861  0.4478 -0.5038
15146TIP3    H166853   5.344   0.722   3.596 -0.3406  0.9566 -0.0867
15146TIP3    H266854   5.429   0.847   3.598  0.4779  0.4084  2.0672
15147TIP3   OH266855   5.586   0.527  16.434 -0.5452 -0.1213 -0.4772
15147TIP3    H166856   5.676   0.495  16.426  0.0555  1.0506  1.1170
15147TIP3    H266857   5.594   0.622  16.433 -1.5541  0.0281  1.2903
15148TIP3   OH266858   0.201   5.754  16.391  0.8576 -0.5454  0.5198
15148TIP3    H166859   0.122   5.710  16.361  1.3004 -1.4113  0.6094
15148TIP3    H266860   0.195   5.842  16.353  0.2148 -0.8395 -0.0854
15149TIP3   OH266861   5.199   5.845  17.054 -0.1570  0.1823  0.3792
15149TIP3    H166862   5.203   5.760  17.010  1.8325  0.4205 -0.0319
15149TIP3    H266863   5.238   5.906  16.991  0.4118  0.9948  1.4843
15150TIP3   OH266864   6.588   0.037   2.653  0.8667  0.1536 -0.0940
15150TIP3    H166865   6.524   0.097   2.614 -1.2646 -1.1491  1.2598
15150TIP3    H266866   6.638   0.092   2.714  1.4340  1.2790 -1.4991
15151TIP3   OH266867   2.250   3.436   2.502 -0.0548 -0.3632 -0.0292
15151TIP3    H166868   2.227   3.523   2.470 -2.1469  0.0789  2.3633
15151TIP3    H266869   2.184   3.378   2.465 -0.9151 -0.2638  1.2685
15152TIP3   OH266870   1.453   5.016   0.934  0.0628  0.8859 -0.4729
15152TIP3    H166871   1.414   4.995   0.849  1.3783 -1.0829 -0.6643
15152TIP3    H266872   1.499   4.936   0.959 -0.8046  1.1765  2.4160
15153TIP3   OH266873   2.855   3.031  11.090 -0.6890 -0.0746  0.2841
15153TIP3    H166874   2.900   2.948  11.077 -0.9480 -0.2491  0.4945
15153TIP3    H266875   2.834   3.034  11.183 -2.0055 -0.4679  0.0279
15154TIP3   OH266876   6.689   0.800  13.041  0.2362 -0.4072  0.2444
15154TIP3    H166877   6.628   0.808  12.967  1.9412 -1.0970 -1.2921
15154TIP3    H266878   6.638   0.754  13.108 -1.6894  1.1648 -0.0406
15155TIP3   OH266879   4.408   2.243   3.854  0.1318 -0.2790  0.3700
15155TIP3    H166880   4.340   2.184   3.888  0.2630  0.6328  2.3630
15155TIP3    H266881   4.361   2.322   3.828  0.2808 -0.1784  0.4037
15156TIP3   OH266882   3.103   0.296  15.818  0.2916  0.0299  0.1792
15156TIP3    H166883   3.063   0.218  15.857  1.2481 -0.5564  0.0175
15156TIP3    H266884   3.045   0.368  15.844 -0.1181 -0.6049  1.0931
15157TIP3   OH266885   4.309   3.735  14.034  0.0843  0.4976 -0.3151
15157TIP3    H166886   4.329   3.813  14.085 -0.0397  0.8718 -0.8319
15157TIP3    H266887   4.291   3.667  14.099 -4.3955  1.9401  0.3016
15158TIP3   OH266888   0.890   0.729   4.620 -0.2842 -0.4412  0.5410
15158TIP3    H166889   0.861   0.701   4.534 -1.0497 -0.7139  0.8794
15158TIP3    H266890   0.968   0.676   4.638  0.4378  0.2796 -0.3634
15159TIP3   OH266891   3.461   4.023  14.536  0.0460  0.4721  0.1808
15159TIP3    H166892   3.435   3.976  14.458 -1.6795  0.8586  0.4823
15159TIP3    H266893   3.547   4.059  14.515 -0.2827  0.3791 -1.4493
15160TIP3   OH266894   1.376   4.694  16.504 -0.2098  0.4193  0.1970
15160TIP3    H166895   1.381   4.788  16.490  1.2046  0.2335 -0.7964
15160TIP3    H266896   1.289   4.679  16.542 -0.5165  2.0858  0.2007
15161TIP3   OH266897   4.358   1.411  13.896 -0.1589 -0.1599 -0.0709
15161TIP3    H166898   4.387   1.323  13.922  1.9175  0.7771  1.0032
15161TIP3    H266899   4.381   1.467  13.970  2.2001  1.9216 -2.1664
15162TIP3   OH266900   1.864   6.238  13.773 -0.3380 -0.3344 -0.1875
15162TIP3    H166901   1.916   6.210  13.698  2.3142  0.0510  1.3550
15162TIP3    H266902   1.779   6.195  13.762  0.1808 -0.8167 -2.9887
15163TIP3   OH266903   4.646   4.396   0.547 -0.5838 -0.1761 -0.2210
15163TIP3    H166904   4.704   4.448   0.603 -0.9809 -0.1187  0.1345
15163TIP3    H266905   4.706   4.343   0.494 -0.2100 -0.1923  0.2134
15164TIP3   OH266906   6.811   3.644   0.400 -0.5454 -0.1360 -0.1911
15164TIP3    H166907   6.780   3.704   0.332  1.8856  1.1190 -0.3012
15164TIP3    H266908   6.891   3.606   0.364 -0.5527 -1.3675  1.0008
15165TIP3   OH266909   0.029   0.458  11.500  0.1835  0.3526  0.0381
15165TIP3    H166910  -0.047   0.480  11.447 -0.1201 -0.0807  0.2909
15165TIP3    H266911   0.101   0.509  11.462  0.3568 -1.2044 -1.8302
15166TIP3   OH266912   3.223   1.504  16.946 -0.2846 -0.6010  0.7809
15166TIP3    H166913   3.144   1.469  16.903  0.3373 -0.2712 -0.6869
15166TIP3    H266914   3.206   1.597  16.955  0.6430 -0.1853 -1.2541
15167TIP3   OH266915   6.452   5.595   5.280 -0.0224  0.3902  0.3665
15167TIP3    H166916   6.450   5.503   5.307  1.9368 -0.6091 -2.4797
15167TIP3    H266917   6.367   5.610   5.239 -1.2122  0.5935  2.7408
15168TIP3   OH266918   6.699   2.793   0.846  0.4937  0.1376 -0.3680
15168TIP3    H166919   6.778   2.776   0.896 -0.7764 -0.5581  1.4918
15168TIP3    H266920   6.665   2.875   0.882  1.2319  1.3858 -2.3544
15169TIP3   OH266921   0.842   0.697   0.091 -0.0328 -0.5372  0.3019
15169TIP3    H166922   0.890   0.628   0.138  0.4919 -0.4008 -0.0215
15169TIP3    H266923   0.791   0.650   0.025 -0.6588 -0.7183  0.9027
15170TIP3   OH266924   4.332   0.497  14.588 -0.1910 -0.0208 -0.1196
15170TIP3    H166925   4.266   0.532  14.648  0.1543  1.3713 -0.5228
15170TIP3    H266926   4.375   0.574  14.552  1.5592 -0.8969  0.0047
15171TIP3   OH266927   3.001   6.520   1.493 -0.5959 -0.2534 -0.5773
15171TIP3    H166928   3.052   6.588   1.536  0.5099 -2.2158  1.4068
15171TIP3    H266929   2.968   6.466   1.564 -0.2759 -2.5921 -2.1060
15172TIP3   OH266930   4.901   4.538   4.097 -0.3106 -0.1017  0.2172
15172TIP3    H166931   4.944   4.546   4.012  0.6781  1.2368  0.8032
15172TIP3    H266932   4.909   4.445   4.119  0.0942 -0.3253 -0.8154
15173TIP3   OH266933   1.293   3.795   1.060 -0.4867 -0.4572  0.1835
15173TIP3    H166934   1.324   3.868   1.007  0.3722 -0.2257  0.9787
15173TIP3    H266935   1.347   3.720   1.033 -0.7938 -0.6036 -0.0348
15174TIP3   OH266936   4.165   2.982   1.799  0.2346  0.1584  0.5563
15174TIP3    H166937   4.196   2.898   1.765  3.5178  0.3798  2.6197
15174TIP3    H266938   4.106   2.959   1.871 -0.9752 -0.2890 -0.5337
15175TIP3   OH266939   5.966   1.334  15.757  0.1025  0.0079  0.7818
15175TIP3    H166940   5.937   1.420  15.725 -0.1654  0.3583  1.9199
15175TIP3    H266941   6.054   1.350  15.791  0.4322 -0.3872  0.1346
15176TIP3   OH266942   6.398   6.102   0.852  0.0352  0.0683 -0.0739
15176TIP3    H166943   6.398   6.183   0.902  2.3015  1.1945 -1.6961
15176TIP3    H266944   6.340   6.119   0.778  0.6627  0.3404 -0.5209
15177TIP3   OH266945   1.762   5.061  10.537 -0.1039 -0.8547 -0.3991
15177TIP3    H166946   1.716   5.128  10.486 -0.5856  0.1337  1.2369
15177TIP3    H266947   1.754   5.091  10.628  0.9089 -2.4165  0.2473
15178TIP3   OH266948   0.759   3.959  12.851  0.2677 -0.7527  0.1410
15178TIP3    H166949   0.682   3.985  12.800  0.4064 -2.5161 -1.0548
15178TIP3    H266950   0.780   4.036  12.904 -1.4413  0.2580 -0.5686
15179TIP3   OH266951   6.512   2.702  11.017 -0.2451  0.4892 -1.0246
15179TIP3    H166952   6.607   2.713  11.015 -0.2572  0.5465 -1.3230
15179TIP3    H266953   6.477   2.791  11.005 -0.3407  0.7269  0.7705
15180TIP3   OH266954   1.392   0.043  12.755 -0.2207 -0.2346 -0.5855
15180TIP3    H166955   1.329   0.092  12.702 -0.5281 -0.4353 -0.4125
15180TIP3    H266956   1.362  -0.048  12.750 -1.4694 -0.0093  1.5524
15181TIP3   OH266957   5.192   4.772   1.956  0.1481  0.1331  0.0544
15181TIP3    H166958   5.142   4.729   1.887 -0.2972  0.8912 -0.1114
15181TIP3    H266959   5.277   4.729   1.955  0.8026  1.3213 -2.2243
15182TIP3   OH266960   6.704   5.779   2.956 -0.3997 -0.4593 -0.2550
15182TIP3    H166961   6.610   5.766   2.947 -0.3513 -1.7561  0.8295
15182TIP3    H266962   6.726   5.745   3.043  1.0083  0.1989 -0.3152
15183TIP3   OH266963   6.135   0.580   3.399  0.5792 -0.5032 -0.9112
15183TIP3    H166964   6.158   0.667   3.368  0.3420 -0.3872 -0.7674
15183TIP3    H266965   6.163   0.520   3.330  1.0534 -0.3419 -0.8601
15184TIP3   OH266966   4.333   4.064  11.708 -0.2884 -0.0419  0.1462
15184TIP3    H166967   4.320   3.983  11.757 -1.1236  0.2643  0.4652
15184TIP3    H266968   4.420   4.056  11.669  0.8184  0.1031  2.4388
15185TIP3   OH266969   5.800   5.125   0.740 -0.2370  0.5864 -0.4269
15185TIP3    H166970   5.786   5.219   0.750 -2.6560  0.4252 -1.5635
15185TIP3    H266971   5.717   5.086   0.768  0.7866 -1.2546  0.2180
15186TIP3   OH266972   4.687   2.395  11.558 -0.0863 -0.1039 -0.2499
15186TIP3    H166973   4.673   2.324  11.494  0.4340 -1.7006  1.3311
15186TIP3    H266974   4.612   2.388  11.617  0.5913 -0.1345  0.6185
15187TIP3   OH266975   6.250   5.117  12.875 -0.4708  0.6976  0.2913
15187TIP3    H166976   6.219   5.029  12.855  0.2025  0.5779 -0.2940
15187TIP3    H266977   6.333   5.103  12.921 -0.3998  1.0144  0.2633
15188TIP3   OH266978   6.095   3.401   5.562  0.2907 -0.0124 -0.1849
15188TIP3    H166979   6.083   3.310   5.538 -1.4284 -0.0942  0.8586
15188TIP3    H266980   6.072   3.406   5.654  3.6111  0.8878  0.7350
15189TIP3   OH266981   1.965   2.691   2.305  0.8117  0.0441 -0.0615
15189TIP3    H166982   2.038   2.658   2.356  0.9798 -0.6823 -0.7555
15189TIP3    H266983   1.942   2.619   2.246  1.7560  1.4067 -2.2260
15190TIP3   OH266984   6.255   5.516   0.332  0.1568  0.2034 -0.7229
15190TIP3    H166985   6.317   5.460   0.379  0.6137  0.6322 -0.8086
15190TIP3    H266986   6.308   5.564   0.269 -0.1863  0.9171 -0.4823
15191TIP3   OH266987   2.423   6.312  14.760  0.1331 -0.0356  0.1407
15191TIP3    H166988   2.426   6.407  14.773  0.0585 -0.2213  1.7331
15191TIP3    H266989   2.488   6.294  14.692  0.1094  1.1578 -0.2104
15192TIP3   OH266990   6.054   5.035  14.361  0.0482  0.4062  0.1727
15192TIP3    H166991   6.046   5.100  14.291  0.5881  0.2160 -0.0701
15192TIP3    H266992   5.980   5.053  14.419  0.0271  1.0554 -0.0457
15193TIP3   OH266993   6.112   3.956   0.627 -0.0052  0.1463  0.0092
15193TIP3    H166994   6.133   4.022   0.693 -0.3093 -1.5930  1.9256
15193TIP3    H266995   6.017   3.960   0.618 -0.1251 -0.6407  0.8283
15194TIP3   OH266996   0.447   6.230  14.222  0.0877  0.3041 -0.8567
15194TIP3    H166997   0.454   6.152  14.277 -0.7253  1.5135  1.0961
15194TIP3    H266998   0.355   6.255  14.229 -0.0761  0.4299 -2.9644
15195TIP3   OH266999   5.843   0.839   3.346 -0.7824 -0.8124  0.2190
15195TIP3    H167000   5.753   0.807   3.351 -0.6453 -1.2034  0.2208
15195TIP3    H267001   5.885   0.781   3.282 -0.5001 -0.7078  0.3089
15196TIP3   OH267002   5.641   4.286  16.937 -0.6220  0.1812 -0.5812
15196TIP3    H167003   5.625   4.296  17.031 -1.9690 -3.3423 -0.2595
15196TIP3    H267004   5.715   4.225  16.932 -0.8108  0.0342 -1.7742
15197TIP3   OH267005   4.636   6.097   1.643  0.3705 -0.1870  0.1228
15197TIP3    H167006   4.586   6.033   1.693  0.7992 -0.7075 -0.1130
15197TIP3    H267007   4.703   6.127   1.704  0.5328 -0.3962  0.0493
15198TIP3   OH267008   2.744   0.622  15.809  0.3713 -0.3661  0.4791
15198TIP3    H167009   2.666   0.605  15.756  0.8299  0.1281 -0.3631
15198TIP3    H267010   2.788   0.537  15.814  0.9485 -0.1766 -0.9593
15199TIP3   OH267011   4.638   3.762  11.516  0.5522  0.1283  0.6197
15199TIP3    H167012   4.619   3.686  11.461  2.2044  0.9531 -1.2041
15199TIP3    H267013   4.680   3.725  11.594  0.3531 -0.8893  0.2669
15200TIP3   OH267014   3.194   6.642   5.094 -0.3444 -0.7878  0.5272
15200TIP3    H167015   3.196   6.627   4.999  1.3331  1.3318  0.1525
15200TIP3    H267016   3.107   6.678   5.110 -0.6932 -1.2861 -0.1812
15201TIP3   OH267017   4.671   0.909  10.623 -0.5821 -0.4503  0.1476
15201TIP3    H167018   4.734   0.856  10.575  0.5787  0.7072  0.3437
15201TIP3    H267019   4.589   0.899  10.574 -0.0851 -1.4007 -0.5239
15202TIP3   OH267020   3.348   3.103  11.664  0.0170 -0.1307 -0.1359
15202TIP3    H167021   3.363   3.166  11.735 -2.4697 -0.4471  0.7663
15202TIP3    H267022   3.365   3.018  11.704  1.1044 -0.1808 -0.6842
15203TIP3   OH267023   3.818   3.840   5.583  0.3605 -1.1014 -0.3106
15203TIP3    H167024   3.861   3.815   5.665  0.9255  0.7915  0.0130
15203TIP3    H267025   3.809   3.935   5.588 -2.6092 -1.2408 -1.0249
15204TIP3   OH267026   4.864   4.083   5.906 -0.4576 -0.3447 -0.0319
15204TIP3    H167027   4.782   4.108   5.947 -0.1775  0.0711  0.2859
15204TIP3    H267028   4.872   3.989   5.924  0.0708 -0.0130  1.6384
15205TIP3   OH267029   2.899   6.343   1.662 -0.3410 -0.2800 -0.1638
15205TIP3    H167030   2.864   6.256   1.644  1.6517 -1.1489 -0.1005
15205TIP3    H267031   2.905   6.347   1.758  3.5077 -1.8927 -0.1279
15206TIP3   OH267032   3.283   4.373  15.721  0.3664 -0.1432  0.0930
15206TIP3    H167033   3.252   4.284  15.735 -0.3782  0.1671  0.4535
15206TIP3    H267034   3.219   4.413  15.662  1.6161 -0.3603 -1.4738
15207TIP3   OH267035   1.425   3.916  15.485  0.0245 -0.2974  0.5426
15207TIP3    H167036   1.434   3.821  15.485  2.6463 -0.1221  0.3139
15207TIP3    H267037   1.445   3.942  15.575  2.9354  0.1815 -0.1246
15208TIP3   OH267038   2.527   5.028   3.373 -0.1167  0.2246  0.1207
15208TIP3    H167039   2.534   5.104   3.316  0.0387 -0.3738 -0.6789
15208TIP3    H267040   2.570   4.957   3.325 -0.2342 -0.3683  0.8559
15209TIP3   OH267041   3.508   5.772   4.282 -0.6198 -0.4219 -0.7197
15209TIP3    H167042   3.458   5.725   4.349  2.4598 -1.2082  1.2543
15209TIP3    H267043   3.471   5.861   4.282  0.0042  0.0342  3.1372
15210TIP3   OH267044   1.886   5.598  15.575  0.9303  0.2017  0.3025
15210TIP3    H167045   1.967   5.622  15.620  0.8479  0.4737  0.3104
15210TIP3    H267046   1.912   5.590  15.483  1.0949 -0.3367  0.3921
15211TIP3   OH267047   5.292   6.314   2.400 -0.6086 -0.1259 -0.7006
15211TIP3    H167048   5.320   6.244   2.342 -0.8138 -1.5831  0.8799
15211TIP3    H267049   5.367   6.372   2.407  1.2464 -2.5376  1.3608
15212TIP3   OH267050   1.372   0.357  11.671  0.2919  0.1299  0.1205
15212TIP3    H167051   1.457   0.328  11.638 -0.8426 -1.1690 -1.8364
15212TIP3    H267052   1.383   0.451  11.687  2.2158 -0.1118  0.4273
15213TIP3   OH267053   5.514   5.148   4.666 -0.0066 -0.2217 -0.2711
15213TIP3    H167054   5.570   5.111   4.599 -1.1810  0.6794 -1.8173
15213TIP3    H267055   5.556   5.123   4.749  1.8924 -0.7207 -1.3228
15214TIP3   OH267056   1.199   1.847   2.425  0.0018 -0.3231 -0.3372
15214TIP3    H167057   1.291   1.824   2.416  0.3070  0.6562  0.1314
15214TIP3    H267058   1.184   1.849   2.520 -0.4514 -0.2939 -0.4058
15215TIP3   OH267059   0.198   6.448   2.957  0.5814 -0.1729  0.9854
15215TIP3    H167060   0.203   6.388   3.032 -2.0111 -0.1901  1.2523
15215TIP3    H267061   0.198   6.535   2.996  0.9313 -0.1170  0.8632
15216TIP3   OH267062   5.000   3.385   4.514  0.6463 -0.1619  0.0405
15216TIP3    H167063   5.065   3.341   4.569  0.1486 -2.1403 -0.8783
15216TIP3    H267064   4.916   3.346   4.539  0.2937 -0.3474 -1.3586
15217TIP3   OH267065   1.767   3.674   3.998 -0.0395  0.2076  0.0588
15217TIP3    H167066   1.747   3.581   3.994  0.9931 -0.0172 -0.1970
15217TIP3    H267067   1.823   3.683   4.076 -1.1728  0.8326  0.8342
15218TIP3   OH267068   5.122   1.454  12.121  0.1237 -0.2530  0.0249
15218TIP3    H167069   5.087   1.400  12.191  0.1061 -0.2548  0.0150
15218TIP3    H267070   5.046   1.480  12.069  0.1187 -0.1225  0.0987
15219TIP3   OH267071   3.507   3.712  12.311 -0.1394 -0.0994  0.1467
15219TIP3    H167072   3.467   3.797  12.331  0.5270 -0.0445  1.4072
15219TIP3    H267073   3.545   3.723  12.224 -2.4978 -0.0433 -0.9365
15220TIP3   OH267074   3.692   0.717   5.951  0.1966  0.1251  0.6967
15220TIP3    H167075   3.671   0.663   6.028 -0.5589  0.8481  1.0170
15220TIP3    H267076   3.716   0.802   5.988  0.6992  0.2123  0.1673
15221TIP3   OH267077   1.820   5.313  16.409 -0.2601 -0.0632 -0.1816
15221TIP3    H167078   1.756   5.341  16.343 -0.8644 -1.0532 -0.0462
15221TIP3    H267079   1.770   5.311  16.491 -0.2805 -1.5393 -0.1945
15222TIP3   OH267080   3.406   0.960  10.909  0.2843 -0.3658  0.3349
15222TIP3    H167081   3.428   1.014  10.834  0.7716  0.1473  0.8395
15222TIP3    H267082   3.376   0.877  10.871  1.3867 -0.4402 -0.4125
15223TIP3   OH267083   1.345   3.006   4.935 -0.4870 -0.1729  0.0001
15223TIP3    H167084   1.313   3.076   4.878  0.2470 -0.3076 -0.5951
15223TIP3    H267085   1.343   2.928   4.880  0.5461 -0.2441  0.0440
15224TIP3   OH267086   0.348   6.361   1.838  0.0864 -0.2462  0.1792
15224TIP3    H167087   0.342   6.383   1.745 -1.1017  0.0782  0.3234
15224TIP3    H267088   0.417   6.419   1.872  0.3923 -0.2325 -0.4548
15225TIP3   OH267089   4.304   1.943  14.585  0.1108 -0.1467  0.0228
15225TIP3    H167090   4.239   1.990  14.534 -0.8578 -0.4395  0.9539
15225TIP3    H267091   4.302   1.985  14.671  0.4973 -0.7556  0.3375
15226TIP3   OH267092   2.943   4.620   3.164  0.3881  0.7528 -0.6098
15226TIP3    H167093   2.951   4.546   3.104  0.0696  1.3150 -1.3549
15226TIP3    H267094   3.031   4.631   3.200  0.0829 -1.1459  0.9527
15227TIP3   OH267095   6.504   5.735  10.682 -0.2458 -0.1648 -0.0272
15227TIP3    H167096   6.565   5.685  10.626 -0.4766 -1.2366  0.6447
15227TIP3    H267097   6.481   5.674  10.752  1.0393  1.5350  2.0017
15228TIP3   OH267098   6.104   1.407  12.775 -0.1412  0.8040 -0.1504
15228TIP3    H167099   6.109   1.476  12.710  1.4976 -0.3332 -1.3025
15228TIP3    H267100   6.122   1.326  12.727 -1.2634 -0.3801  1.2811
15229TIP3   OH267101   3.453   0.764   4.512  0.2318 -0.2352  0.2085
15229TIP3    H167102   3.524   0.790   4.570 -1.5044  0.1565  2.2994
15229TIP3    H267103   3.455   0.669   4.511 -0.5282 -0.3025  2.0815
15230TIP3   OH267104   1.624   1.115  16.944  0.0390 -0.6738 -0.2163
15230TIP3    H167105   1.720   1.109  16.950 -0.0956 -2.1258  1.3347
15230TIP3    H267106   1.599   1.038  16.893 -0.1729  1.3413 -3.3789
15231TIP3   OH267107   6.096   0.506  16.098 -0.0522 -0.5681  0.0510
15231TIP3    H167108   6.186   0.522  16.068 -0.0850  0.4734  0.4727
15231TIP3    H267109   6.077   0.417  16.069  0.8718 -0.5542 -0.6481
15232TIP3   OH267110   2.348   2.394   2.052  0.6636 -0.0684  0.3911
15232TIP3    H167111   2.266   2.394   2.001 -0.2500  0.0027  1.8030
15232TIP3    H267112   2.325   2.441   2.133  2.4489  1.0501  0.2965
15233TIP3   OH267113   4.435   4.291   1.315  0.0386 -0.0900 -0.6904
15233TIP3    H167114   4.376   4.363   1.290 -0.2163  0.1330  0.4907
15233TIP3    H267115   4.519   4.334   1.332 -0.1901 -0.0139  0.3019
15234TIP3   OH267116   2.739   1.441   0.910  0.3312 -0.0765  0.0801
15234TIP3    H167117   2.745   1.487   0.994  0.9432 -1.1293  0.6382
15234TIP3    H267118   2.824   1.455   0.869  1.7947 -3.2562  1.6768
15235TIP3   OH267119   0.806   1.921  12.795 -0.8917 -0.7996  0.4366
15235TIP3    H167120   0.806   1.901  12.701 -0.7784  0.7428  0.0799
15235TIP3    H267121   0.898   1.920  12.820 -0.9012 -0.9205  0.4676
15236TIP3   OH267122   4.517   2.050  13.480  0.3361  0.3151 -0.2714
15236TIP3    H167123   4.583   1.983  13.497 -0.4130 -0.8494 -1.7434
15236TIP3    H267124   4.568   2.130  13.464  1.3731 -0.4418 -0.8981
15237TIP3   OH267125   5.772   6.586  10.118  0.4631 -0.8558 -0.4980
15237TIP3    H167126   5.733   6.518  10.173 -0.6019  0.0636 -0.0859
15237TIP3    H267127   5.860   6.598  10.154 -0.8578  1.1503  2.3966
15238TIP3   OH267128   3.918   1.268  14.838  0.3999 -0.0005  0.0535
15238TIP3    H167129   3.847   1.327  14.865 -0.4024 -1.4850  1.3942
15238TIP3    H267130   3.872   1.192  14.801  1.2362 -1.2125  1.4132
15239TIP3   OH267131   3.278   1.855   3.920  0.2954 -0.1066 -0.0954
15239TIP3    H167132   3.352   1.912   3.900  1.1806 -0.8880  0.7927
15239TIP3    H267133   3.296   1.774   3.871 -0.2972 -0.0729 -0.3720
15240TIP3   OH267134   0.126   4.817  15.671 -0.0329  0.0947  0.1774
15240TIP3    H167135   0.165   4.904  15.660  0.2143 -0.1117 -0.6411
15240TIP3    H267136   0.032   4.833  15.662 -0.4092  0.8473  3.6834
15241TIP3   OH267137   4.292   2.809  11.471  0.1703  0.7579 -0.0731
15241TIP3    H167138   4.260   2.740  11.529  2.4115  0.2262  0.6264
15241TIP3    H267139   4.270   2.779  11.383 -0.4881  0.0402  0.3277
15242TIP3   OH267140   5.635   2.439  15.341 -0.5105 -0.5154  0.0643
15242TIP3    H167141   5.672   2.369  15.286  0.7276 -0.1243  0.3621
15242TIP3    H267142   5.686   2.517  15.317 -0.6866 -0.1042  0.9847
15243TIP3   OH267143   0.601   4.078   5.203 -0.7260 -0.2803 -0.3262
15243TIP3    H167144   0.630   4.169   5.198 -1.5636 -0.0338 -0.7478
15243TIP3    H267145   0.506   4.083   5.215 -1.1078 -1.0967 -2.4784
15244TIP3   OH267146   2.731   0.509  13.764 -0.5569  0.2642 -0.3633
15244TIP3    H167147   2.699   0.526  13.676  1.5429 -1.0427 -1.4588
15244TIP3    H267148   2.824   0.533  13.761 -0.2260 -0.6481  1.1982
15245TIP3   OH267149   5.205   3.556   0.603 -0.0417 -0.0576  0.0580
15245TIP3    H167150   5.130   3.529   0.655  1.8495 -1.9316  2.0690
15245TIP3    H267151   5.247   3.474   0.576  1.4948  0.8939 -0.6419
15246TIP3   OH267152   2.712   0.880  13.626 -0.5916  0.0637 -0.1446
15246TIP3    H167153   2.706   0.820  13.551 -1.8906  0.1846 -0.1635
15246TIP3    H267154   2.777   0.839  13.683  0.1388 -0.2302 -1.1473
15247TIP3   OH267155   3.635   1.528   5.153  0.4688  0.5481 -0.2703
15247TIP3    H167156   3.654   1.436   5.173  0.6243  0.6508  0.0711
15247TIP3    H267157   3.647   1.573   5.237 -2.4849  0.4502  0.3168
15248TIP3   OH267158   3.260   1.790   6.095 -0.2719 -0.6509 -0.1244
15248TIP3    H167159   3.295   1.868   6.137  0.6825 -1.5969  0.9124
15248TIP3    H267160   3.222   1.739   6.167  1.0095 -2.1043 -0.4073
15249TIP3   OH267161   4.753   1.805  13.082  0.2252 -0.3528  0.8699
15249TIP3    H167162   4.804   1.774  13.157  0.3510  2.0772  1.8908
15249TIP3    H267163   4.664   1.816  13.117  0.0967 -0.0218  0.4480
15250TIP3   OH267164   4.916   1.716   2.495  0.0248 -0.7614  0.5481
15250TIP3    H167165   4.974   1.669   2.555 -0.3709 -1.0162  0.7367
15250TIP3    H267166   4.881   1.789   2.547 -1.8208 -2.0732  1.2696
15251TIP3   OH267167   0.421   5.941   4.872  0.8399  0.4425  0.2802
15251TIP3    H167168   0.463   5.948   4.958  1.9003  1.3979 -0.2831
15251TIP3    H267169   0.334   5.906   4.890  1.6808 -1.1369  1.5569
15252TIP3   OH267170   6.677   0.550   0.509  0.3096 -0.0830  0.1166
15252TIP3    H167171   6.624   0.626   0.533 -1.2588 -0.4423 -1.9183
15252TIP3    H267172   6.741   0.542   0.579 -1.2519  1.4217  1.8152
15253TIP3   OH267173   1.212   4.681   0.219  0.3544 -0.0786 -0.0341
15253TIP3    H167174   1.157   4.669   0.142  2.7204 -0.2620 -1.8203
15253TIP3    H267175   1.301   4.661   0.189  1.5439  0.8852  2.4777
15254TIP3   OH267176   4.927   3.382   6.042  0.0860  0.6808 -0.6588
15254TIP3    H167177   4.906   3.309   6.101 -1.5547  1.3665 -0.3263
15254TIP3    H267178   4.982   3.441   6.095  0.1903  0.3887 -0.4416
15255TIP3   OH267179   2.862   2.537  12.485  0.0358  0.2307 -0.3520
15255TIP3    H167180   2.926   2.568  12.421 -1.1043 -0.0511 -1.6620
15255TIP3    H267181   2.912   2.531  12.567  1.4357  0.9511 -1.1099
15256TIP3   OH267182   2.501   1.726  11.061 -0.1679  0.5770 -0.0088
15256TIP3    H167183   2.497   1.672  10.982  1.6394  0.7059 -0.2378
15256TIP3    H267184   2.439   1.685  11.122  0.8337 -1.5227 -0.3098
15257TIP3   OH267185   3.491   5.396  16.571 -0.5860  0.0977  0.0199
15257TIP3    H167186   3.409   5.346  16.572 -0.8142  0.3789 -1.7866
15257TIP3    H267187   3.560   5.331  16.576 -0.8991 -0.2374 -0.0034
15258TIP3   OH267188   4.775   2.245  12.671 -0.7161 -0.0530  0.5347
15258TIP3    H167189   4.736   2.159  12.686  0.7807 -0.7130  0.8773
15258TIP3    H267190   4.791   2.280  12.758 -0.5698  0.2199  0.4008
15259TIP3   OH267191   4.928   1.498  11.927 -0.6860  0.1371 -0.1255
15259TIP3    H167192   4.839   1.507  11.891 -1.1226 -0.8782  0.6412
15259TIP3    H267193   4.986   1.513  11.852 -1.5284 -0.3959 -0.9024
15260TIP3   OH267194   2.163   0.788  16.345 -0.1506 -0.5216  0.0679
15260TIP3    H167195   2.181   0.695  16.336  1.7302 -0.4649  2.4397
15260TIP3    H267196   2.247   0.831  16.332 -1.1060  0.9813 -1.7163
15261TIP3   OH267197   1.424   6.793  14.536  0.0443  0.0537  0.1752
15261TIP3    H167198   1.504   6.759  14.578  0.0066  1.7348  1.7124
15261TIP3    H267199   1.456   6.859  14.475 -0.0880 -0.5275 -0.5412
15262TIP3   OH267200   5.685   1.028  15.705  0.3175  0.3346  0.0165
15262TIP3    H167201   5.774   1.055  15.724 -0.0940  1.0545  1.0227
15262TIP3    H267202   5.633   1.108  15.715 -0.7356 -0.4926  1.6929
15263TIP3   OH267203   4.398   3.888   2.753  0.1348  0.0928 -0.0233
15263TIP3    H167204   4.463   3.818   2.757 -1.5610 -1.5076  1.9786
15263TIP3    H267205   4.381   3.900   2.660  1.2882 -1.3752 -0.4602
15264TIP3   OH267206   5.056   6.422  13.691  0.0134 -0.8454  0.6895
15264TIP3    H167207   5.007   6.428  13.609  0.1309 -0.3214  0.6511
15264TIP3    H267208   5.147   6.433  13.665 -0.0545  0.7865  1.0368
15265TIP3   OH267209   3.116   3.380  14.485 -0.8093 -0.6795  0.1366
15265TIP3    H167210   3.160   3.310  14.437 -0.4444 -1.2554  1.2918
15265TIP3    H267211   3.023   3.371  14.461 -0.7053 -1.2947 -0.0401
15266TIP3   OH267212   2.934   1.100  13.534  0.0799  0.1816  0.4466
15266TIP3    H167213   2.879   1.025  13.511  0.0288  0.4896 -0.4798
15266TIP3    H267214   2.915   1.116  13.626 -0.0338 -0.8359  0.6115
15267TIP3   OH267215   6.623   5.867  14.625 -0.1001 -0.0071 -0.0581
15267TIP3    H167216   6.574   5.791  14.657  1.6286 -0.2125  2.3840
15267TIP3    H267217   6.689   5.829  14.567  0.9629 -0.5148  1.3962
15268TIP3   OH267218   5.553   5.741  10.931  0.2576 -0.1907  0.0297
15268TIP3    H167219   5.572   5.647  10.928  2.3394  0.1403  0.9459
15268TIP3    H267220   5.559   5.769  10.839 -0.9530 -1.0161 -0.3306
15269TIP3   OH267221   4.903   3.690  16.345 -0.2747  0.1580  0.1900
15269TIP3    H167222   4.915   3.632  16.270 -0.1492  0.1884  0.1875
15269TIP3    H267223   4.870   3.632  16.414 -1.1958  0.2778 -0.1321
15270TIP3   OH267224   0.802   5.031  13.123  0.2444 -0.0827  0.3374
15270TIP3    H167225   0.886   5.050  13.166  1.0199 -0.1838 -1.0802
15270TIP3    H267226   0.799   5.093  13.050 -1.7533  1.1301  1.3675
15271TIP3   OH267227   6.664   5.465  13.748  0.5073  0.1904  0.4254
15271TIP3    H167228   6.602   5.404  13.787  0.2742  0.2118  0.0941
15271TIP3    H267229   6.746   5.449  13.794  0.8035 -1.2846 -0.5348
15272TIP3   OH267230   3.559   1.105  14.068  0.0856 -0.6110  0.5388
15272TIP3    H167231   3.493   1.109  13.998  0.5406  0.1758  0.1439
15272TIP3    H267232   3.548   1.188  14.115 -0.0448 -1.0280  1.2525
15273TIP3   OH267233   0.473   2.060   0.140 -0.7920 -0.4861  0.1206
15273TIP3    H167234   0.486   1.980   0.088  0.3608  1.2862 -2.5292
15273TIP3    H267235   0.379   2.078   0.132 -0.7838 -0.7248 -0.6295
15274TIP3   OH267236   5.069   5.615  14.109 -0.4752 -0.0650  0.0924
15274TIP3    H167237   5.152   5.645  14.145 -0.9906 -1.3150  2.5686
15274TIP3    H267238   5.082   5.522  14.090 -1.1344 -0.1463 -0.0086
15275TIP3   OH267239   5.838   3.032  11.479  0.1271 -0.1621 -0.1916
15275TIP3    H167240   5.786   3.003  11.554  0.1852  2.4463  0.9472
15275TIP3    H267241   5.773   3.058  11.414  0.0813 -1.8820 -0.8952
15276TIP3   OH267242   2.057   3.460  16.415 -0.0942  0.9498  0.2003
15276TIP3    H167243   2.139   3.504  16.391  2.0016 -2.2923  0.8290
15276TIP3    H267244   2.075   3.422  16.501 -0.9311 -2.6844 -1.0538
15277TIP3   OH267245   3.027   1.611  11.214  0.3737 -0.2518 -0.1075
15277TIP3    H167246   2.942   1.571  11.231  0.5094 -0.6758 -0.4040
15277TIP3    H267247   3.076   1.544  11.166  1.4651 -0.6565  1.4969
15278TIP3   OH267248   1.420   4.104   4.471  0.0742  0.0676 -0.2542
15278TIP3    H167249   1.376   4.046   4.409  0.4333  0.0270 -0.4751
15278TIP3    H267250   1.360   4.177   4.482 -0.5820 -0.5463  0.3651
15279TIP3   OH267251   4.177   2.172  15.851  0.3410  0.1732 -0.1824
15279TIP3    H167252   4.226   2.241  15.805  0.1184 -0.5077 -1.4563
15279TIP3    H267253   4.123   2.132  15.784 -0.1248 -0.7363  0.7194
15280TIP3   OH267254   0.252   2.814   2.689 -0.4955 -0.1230 -0.3412
15280TIP3    H167255   0.223   2.728   2.719  2.5847 -0.4321  2.2693
15280TIP3    H267256   0.176   2.871   2.702 -2.3368 -2.2084 -1.3409
15281TIP3   OH267257   2.305   0.904   1.213  0.1903  0.0853 -0.3811
15281TIP3    H167258   2.245   0.976   1.193  0.3708 -0.1701 -1.9368
15281TIP3    H267259   2.249   0.836   1.252 -0.2609  0.4236 -0.4405
15282TIP3   OH267260   2.856   4.041   3.302 -0.3476  0.0535  0.6960
15282TIP3    H167261   2.881   3.950   3.317 -0.2605  0.0800  0.7151
15282TIP3    H267262   2.797   4.062   3.374  0.4046  0.3136  1.2483
15283TIP3   OH267263   1.215   1.813   0.899 -0.1158 -0.0807 -0.5321
15283TIP3    H167264   1.153   1.885   0.887 -0.0818 -0.2764 -2.1575
15283TIP3    H267265   1.294   1.841   0.852  0.9611  0.0290  1.2364
15284TIP3   OH267266   3.065   6.354   3.982 -0.1339  0.1950 -0.4522
15284TIP3    H167267   3.123   6.430   3.988  1.4221 -1.0449  1.7797
15284TIP3    H267268   3.007   6.362   4.058  1.3244 -1.7699  0.9426
15285TIP3   OH267269   3.506   4.942   0.434  0.5279  0.5721  0.4382
15285TIP3    H167270   3.488   4.851   0.409  2.2765  0.2241  0.3353
15285TIP3    H267271   3.544   4.935   0.522 -0.6585  1.3467  1.0381
15286TIP3   OH267272   0.337   2.717  12.371  0.0839 -0.6801  0.2009
15286TIP3    H167273   0.304   2.747  12.456  1.4995 -1.0277  0.9169
15286TIP3    H267274   0.259   2.699  12.319 -0.8304  2.3293  0.3825
15287TIP3   OH267275   3.157   6.754   2.364 -0.1118  0.2548  0.5123
15287TIP3    H167276   3.136   6.680   2.420  1.3387 -1.8455 -1.5351
15287TIP3    H267277   3.137   6.725   2.275  0.3616  2.3829 -0.3735
15288TIP3   OH267278   4.599   3.474   0.862  0.2071 -0.4992 -0.2431
15288TIP3    H167279   4.570   3.474   0.953  1.3594  0.0671  0.1474
15288TIP3    H267280   4.693   3.455   0.867  0.2884 -0.4616 -1.3140
15289TIP3   OH267281   6.478   1.918   3.598 -0.1991  0.3600 -0.4666
15289TIP3    H167282   6.466   1.834   3.641  0.9145 -0.0072 -0.8477
15289TIP3    H267283   6.496   1.897   3.507 -1.0839  1.0708 -0.8265
15290TIP3   OH267284   1.713   1.003  11.455  0.2544  0.0704 -0.0479
15290TIP3    H167285   1.649   1.074  11.459  1.5724  1.2843  3.4018
15290TIP3    H267286   1.771   1.026  11.383 -1.2080  0.7068 -1.0722
15291TIP3   OH267287   1.508   3.918   2.005  0.5909  0.2992 -0.2408
15291TIP3    H167288   1.589   3.969   2.002 -0.2891  1.7322 -0.3612
15291TIP3    H267289   1.532   3.839   2.054  1.8299  1.1335  0.5787
15292TIP3   OH267290   2.981   2.979   6.101 -1.1069 -0.4493 -0.6039
15292TIP3    H167291   3.060   2.925   6.103 -1.3206 -0.7455  0.0899
15292TIP3    H267292   3.013   3.069   6.107 -0.8414 -0.5838  0.0100
15293TIP3   OH267293   3.780   4.044   1.597 -0.9766  0.6891 -0.3217
15293TIP3    H167294   3.727   3.966   1.610 -0.5715  0.5551  0.6500
15293TIP3    H267295   3.729   4.099   1.537 -1.0697 -0.4842 -1.3414
15294TIP3   OH267296   6.622   4.823   4.434  0.9920 -0.3231  0.1200
15294TIP3    H167297   6.650   4.807   4.524  0.8133  0.1631  0.2630
15294TIP3    H267298   6.581   4.909   4.437  1.6481  0.0242 -0.5726
15295TIP3   OH267299   5.132   6.188  16.438  0.3644  0.0055  0.4139
15295TIP3    H167300   5.075   6.261  16.464 -0.5025 -0.3754 -0.3764
15295TIP3    H267301   5.218   6.229  16.426  0.5688  0.3822  2.7829
15296TIP3   OH267302   6.187   0.392  12.065 -0.2700 -0.0790 -0.8446
15296TIP3    H167303   6.173   0.482  12.094 -0.8505 -0.3426 -0.2680
15296TIP3    H267304   6.262   0.362  12.116 -0.3286 -0.0567 -0.7464
15297TIP3   OH267305   1.396   4.734  13.503  0.4627 -1.1888 -0.6374
15297TIP3    H167306   1.396   4.642  13.475 -2.1398 -1.3851 -0.2785
15297TIP3    H267307   1.305   4.762  13.490  1.2781  1.4764 -1.1139
15298TIP3   OH267308   2.785   2.678  13.271 -0.5461  0.0630  0.1357
15298TIP3    H167309   2.797   2.592  13.313  0.6436 -1.4167 -2.9231
15298TIP3    H267310   2.874   2.710  13.256 -0.9593  2.5063  2.2550
15299TIP3   OH267311   2.781   1.773   0.781  0.4136 -0.2755  0.2730
15299TIP3    H167312   2.734   1.731   0.709  0.4964  1.3029 -0.7401
15299TIP3    H267313   2.749   1.729   0.859 -1.8861 -0.0613 -0.4842
15300TIP3   OH267314   5.522   6.585   2.322  0.3269 -0.0433  0.1269
15300TIP3    H167315   5.449   6.557   2.266  1.5193  0.3045 -1.6849
15300TIP3    H267316   5.574   6.505   2.334  1.0649  0.2747 -0.8551
15301TIP3   OH267317   2.964   2.340   5.350 -0.2925 -0.0224 -0.3162
15301TIP3    H167318   3.036   2.364   5.408 -0.7526  0.9656 -0.1184
15301TIP3    H267319   2.888   2.334   5.409 -0.3273 -1.3292 -0.4736
15302TIP3   OH267320   5.797   0.199  13.442 -0.8150 -0.2138 -0.4006
15302TIP3    H167321   5.811   0.245  13.360 -0.2207 -0.2486 -0.3260
15302TIP3    H267322   5.704   0.211  13.461 -0.4031  2.3603  0.4430
15303TIP3   OH267323   0.694   2.827   2.732 -0.6542 -0.5229  0.2337
15303TIP3    H167324   0.629   2.838   2.664  0.2419  1.1238 -0.4145
15303TIP3    H267325   0.672   2.894   2.798 -0.8183 -1.3167  1.0091
15304TIP3   OH267326   0.068   3.346   0.269  0.6810 -0.5158 -0.6758
15304TIP3    H167327   0.129   3.420   0.264  1.1479 -0.9298 -1.4312
15304TIP3    H267328   0.050   3.336   0.362 -0.0727  1.0823 -0.6029
15305TIP3   OH267329   3.391   3.283   6.211  0.5939  0.1682 -0.2337
15305TIP3    H167330   3.419   3.194   6.186 -0.2910 -0.4029  0.7310
15305TIP3    H267331   3.463   3.339   6.184  0.2925 -0.5452 -2.8747
15306TIP3   OH267332   3.176   0.444   1.047  0.4144 -0.1924  0.2078
15306TIP3    H167333   3.207   0.516   0.992  1.8752  0.0111  1.2288
15306TIP3    H267334   3.199   0.470   1.136 -2.0219 -0.4515  0.9795
15307TIP3   OH267335   0.967   0.843  12.713  0.2321  0.1492  0.2937
15307TIP3    H167336   0.880   0.805  12.728  0.4100 -0.9021 -1.1797
15307TIP3    H267337   1.028   0.777  12.748  0.4700  0.4290  0.4093
15308TIP3   OH267338   3.062   6.184   4.775  0.0151  0.4594  0.1592
15308TIP3    H167339   3.135   6.212   4.829 -0.4693 -0.0685  1.1050
15308TIP3    H267340   3.100   6.173   4.687  0.9853  0.5276  0.5579
15309TIP3   OH267341   0.057   4.368   5.023  0.1140 -0.6106  0.1609
15309TIP3    H167342   0.148   4.357   4.996  0.0364 -2.1711  0.4284
15309TIP3    H267343   0.058   4.353   5.118 -0.3345 -0.0115  0.2674
15310TIP3   OH267344   6.559   3.028   0.887  0.0600  0.0972 -0.9722
15310TIP3    H167345   6.631   3.091   0.877 -0.1775  0.7561  1.0412
15310TIP3    H267346   6.540   2.999   0.797  3.6604 -1.0853 -1.5251
15311TIP3   OH267347   5.535   6.448  13.451 -0.0434  0.0936 -0.4075
15311TIP3    H167348   5.625   6.447  13.483  0.0030  4.2229  0.2214
15311TIP3    H267349   5.543   6.448  13.355  0.7864  1.5017 -0.3712
15312TIP3   OH267350   2.380   3.273   5.765 -0.1919  0.2052 -0.4945
15312TIP3    H167351   2.438   3.252   5.692  0.4018  2.8119 -0.8430
15312TIP3    H267352   2.363   3.366   5.756 -2.0448  0.1053  1.3559
15313TIP3   OH267353   5.058   3.822   0.240 -0.1468 -0.2896  0.2433
15313TIP3    H167354   5.071   3.820   0.335  0.2398  0.1460  0.2035
15313TIP3    H267355   5.139   3.786   0.204  0.0871  0.4082  0.0557
15314TIP3   OH267356   6.010   4.671   5.314 -0.0559  0.4691  0.0064
15314TIP3    H167357   6.096   4.630   5.306 -0.4840 -0.6154  0.6495
15314TIP3    H267358   5.984   4.691   5.225  1.1873  1.5486 -0.1478
15315TIP3   OH267359   2.503   5.164  15.989  0.2915  0.8636 -0.0604
15315TIP3    H167360   2.477   5.162  15.896 -1.8732 -1.2973  0.4533
15315TIP3    H267361   2.573   5.100  15.995 -1.6766 -1.4331  0.1776
15316TIP3   OH267362   1.846   4.385   5.928 -0.0817  0.0887 -0.3077
15316TIP3    H167363   1.829   4.359   6.019  0.2278  0.4080 -0.1534
15316TIP3    H267364   1.774   4.443   5.905 -1.7439 -2.1931 -1.2337
15317TIP3   OH267365   1.762   5.463  11.046 -0.0368  0.2078  0.1978
15317TIP3    H167366   1.732   5.444  10.957 -0.8242  0.9579  0.2936
15317TIP3    H267367   1.781   5.376  11.084 -0.8967 -0.1999 -0.2838
15318TIP3   OH267368   2.371   2.742   3.942 -0.3719 -0.0908  0.1457
15318TIP3    H167369   2.334   2.661   3.977 -0.6852 -0.8362 -1.7918
15318TIP3    H267370   2.458   2.718   3.912 -1.0160 -0.1323 -1.8155
15319TIP3   OH267371   6.140   0.309  16.944  0.4144 -0.0152  0.7354
15319TIP3    H167372   6.231   0.328  16.967  0.9226 -1.1868 -0.2267
15319TIP3    H267373   6.112   0.387  16.896  0.2527  1.1980  2.6822
15320TIP3   OH267374   1.741   2.667   3.726  0.6373 -0.5497 -0.1877
15320TIP3    H167375   1.715   2.759   3.736  0.8187 -0.4905 -0.2532
15320TIP3    H267376   1.734   2.630   3.814  3.4392  0.2787  0.4854
15321TIP3   OH267377   4.062   2.557  16.912 -0.2276  0.0094 -0.4574
15321TIP3    H167378   4.046   2.602  16.995  1.1752 -1.1406  0.5039
15321TIP3    H267379   4.054   2.464  16.934 -2.0388 -0.2889 -2.1472
15322TIP3   OH267380   4.164   0.495  12.461  0.3942  0.0082  0.0626
15322TIP3    H167381   4.230   0.432  12.432 -0.0661 -0.9795  1.0892
15322TIP3    H267382   4.163   0.486  12.556 -0.4914  0.7532  0.1363
15323TIP3   OH267383   4.379   5.392   4.888  0.2954  0.3491 -0.5751
15323TIP3    H167384   4.321   5.425   4.957 -0.0759  0.3466 -0.8808
15323TIP3    H267385   4.327   5.399   4.807  0.1508 -1.1153 -0.6369
15324TIP3   OH267386   0.329   4.507  13.591 -0.3092  0.0129 -0.0563
15324TIP3    H167387   0.292   4.469  13.671 -0.1397 -1.0133 -0.4506
15324TIP3    H267388   0.253   4.527  13.537 -0.4026  0.2736  0.1705
15325TIP3   OH267389   0.188   2.798  15.876  0.4051  0.2190 -0.7718
15325TIP3    H167390   0.230   2.714  15.896 -1.1663 -1.5474 -3.9889
15325TIP3    H267391   0.258   2.863  15.881  1.8911 -1.4076  0.8887
15326TIP3   OH267392   6.183   6.330   1.446  0.6988 -0.9636 -0.4309
15326TIP3    H167393   6.254   6.268   1.433 -0.4001 -2.0262 -1.5558
15326TIP3    H267394   6.145   6.306   1.531  1.1930 -0.8584 -0.1730
15327TIP3   OH267395   1.396   3.650  15.433 -0.1662 -0.0137  0.3460
15327TIP3    H167396   1.384   3.664  15.339 -0.8128 -1.9183  0.0933
15327TIP3    H267397   1.469   3.588  15.438  0.0897  0.3413  1.1290
15328TIP3   OH267398   1.492   3.916  13.750 -0.0783  0.7379 -0.2042
15328TIP3    H167399   1.564   3.961  13.795 -1.2509  1.9005  0.5555
15328TIP3    H267400   1.450   3.864  13.817 -1.3368  1.8481 -0.0919
15329TIP3   OH267401   2.300   2.143   0.737  0.3444 -0.0722  0.7445
15329TIP3    H167402   2.299   2.052   0.767  1.1222  0.4887  2.6272
15329TIP3    H267403   2.242   2.144   0.661 -0.5981 -1.8948  1.3802
15330TIP3   OH267404   4.697   0.724   4.768 -0.2307 -0.3596 -0.1194
15330TIP3    H167405   4.774   0.777   4.746 -0.8968  0.6613 -0.0517
15330TIP3    H267406   4.688   0.735   4.863  0.7549 -2.1811  0.2412
15331TIP3   OH267407   1.661   1.414   4.188 -0.2743 -0.0913  0.1515
15331TIP3    H167408   1.569   1.396   4.166 -0.7650  2.1864  0.0766
15331TIP3    H267409   1.675   1.504   4.158  1.5678  0.1181  1.5063
15332TIP3   OH267410   3.152   1.840  15.572 -0.0336 -0.3758  0.1157
15332TIP3    H167411   3.100   1.858  15.493 -0.9651  1.7042  1.1381
15332TIP3    H267412   3.088   1.829  15.642  0.7875  2.1671  1.3893
15333TIP3   OH267413   2.851   4.275   3.994 -0.2947 -0.3061  0.2483
15333TIP3    H167414   2.792   4.244   3.925  0.8331 -0.7283 -0.5425
15333TIP3    H267415   2.888   4.356   3.959  0.0813 -0.3783  0.4735
15334TIP3   OH267416   2.583   1.989  16.600  0.1042  0.5778  0.2315
15334TIP3    H167417   2.628   2.068  16.631 -3.6937  3.1707 -0.1977
15334TIP3    H267418   2.589   1.995  16.504 -0.6126  0.6346  0.1871
15335TIP3   OH267419   2.952   3.740  14.081  0.0066 -0.3244 -0.3074
15335TIP3    H167420   2.970   3.810  14.019 -0.7202 -0.1059 -0.2812
15335TIP3    H267421   2.857   3.743  14.094  0.1921 -0.0607  1.1644
15336TIP3   OH267422   3.426   3.367   5.854 -0.9891  0.1734 -0.3629
15336TIP3    H167423   3.445   3.274   5.839 -1.4247  0.1133 -0.5465
15336TIP3    H267424   3.502   3.399   5.902 -0.5584 -0.1358 -0.8272
15337TIP3   OH267425   6.059   0.233  13.506  0.6044 -0.1958 -0.6092
15337TIP3    H167426   5.979   0.268  13.546  0.9508  0.1740 -0.2242
15337TIP3    H267427   6.033   0.149  13.469 -0.1217  0.2334 -1.0940
15338TIP3   OH267428   4.350   5.994  13.799 -1.1677  0.2189  0.4622
15338TIP3    H167429   4.411   5.965  13.731  0.6202  1.0347  1.6600
15338TIP3    H267430   4.385   5.958  13.880 -1.6932  1.5368  1.3122
15339TIP3   OH267431   1.087   1.668   0.337  0.0407  0.1738  0.8295
15339TIP3    H167432   1.004   1.621   0.344  0.4133 -0.4690  1.0044
15339TIP3    H267433   1.111   1.687   0.428  1.3672 -1.9532  0.9969
15340TIP3   OH267434   6.656   0.047   4.144 -0.8522  0.2919  0.1459
15340TIP3    H167435   6.740   0.065   4.187 -0.8714 -1.2928  0.9129
15340TIP3    H267436   6.680  -0.000   4.064 -1.0291 -1.2123  0.9472
15341TIP3   OH267437   3.312   5.408   6.045 -0.3087  0.7083  0.3872
15341TIP3    H167438   3.393   5.368   6.078 -1.0764 -1.3052 -0.0173
15341TIP3    H267439   3.246   5.386   6.111 -1.3879 -1.4279 -1.2804
15342TIP3   OH267440   0.206   2.467  14.784  0.2898  0.2238 -0.0436
15342TIP3    H167441   0.235   2.376  14.788 -0.2859 -0.0519 -1.5638
15342TIP3    H267442   0.184   2.481  14.692  1.3675  2.2195 -0.0580
15343TIP3   OH267443   0.522   1.116  11.919  0.6985 -0.9660 -0.1131
15343TIP3    H167444   0.522   1.020  11.919 -2.4075 -1.0701 -0.4595
15343TIP3    H267445   0.507   1.140  11.827  0.1812 -0.1952  0.1644
15344TIP3   OH267446   5.491   6.667   1.946 -0.2959 -0.4477  0.2646
15344TIP3    H167447   5.458   6.744   1.994  1.2732 -0.1935  0.9812
15344TIP3    H267448   5.495   6.696   1.855 -0.3679  0.1001  0.4294
15345TIP3   OH267449   4.076   1.509   0.933  0.3492  0.0806 -0.2172
15345TIP3    H167450   4.037   1.428   0.900  0.0233  0.1669 -0.0453
15345TIP3    H267451   4.138   1.536   0.865 -0.4970  0.3930 -0.8779
15346TIP3   OH267452   4.631   1.471  14.673 -0.1262  0.2011 -0.4242
15346TIP3    H167453   4.596   1.559  14.662 -0.5398 -0.0634 -1.3756
15346TIP3    H267454   4.605   1.445  14.761 -1.6131  0.3542 -0.7871
15347TIP3   OH267455   2.279   6.716   2.323  0.3789 -0.6432 -0.2810
15347TIP3    H167456   2.322   6.662   2.257  1.1274  0.2753 -0.5663
15347TIP3    H267457   2.306   6.806   2.302  0.5675 -0.3217  1.2211
15348TIP3   OH267458   2.015   1.811  16.960 -0.0467  0.0753  0.5972
15348TIP3    H167459   1.937   1.758  16.942  0.5302 -0.5453 -0.1455
15348TIP3    H267460   1.981   1.891  17.000 -1.1563  0.2812 -0.7064
15349TIP3   OH267461   4.237   3.240  13.399  0.1268 -0.0924 -0.0177
15349TIP3    H167462   4.254   3.250  13.305 -0.0943  0.3693 -0.0081
15349TIP3    H267463   4.323   3.218  13.436  0.0144 -1.4125 -0.4767
15350TIP3   OH267464   1.306   2.176   5.489 -0.1662 -0.9654 -0.7619
15350TIP3    H167465   1.358   2.255   5.475 -1.3737 -0.2342 -1.2516
15350TIP3    H267466   1.350   2.131   5.561  0.1193  0.5288  0.0309
15351TIP3   OH267467   2.691   2.711  16.547  0.0904  0.2028  0.0608
15351TIP3    H167468   2.671   2.635  16.493  0.0137 -0.7566  1.3875
15351TIP3    H267469   2.710   2.781  16.485 -0.6559 -0.6765 -1.1885
15352TIP3   OH267470   5.813   3.093  11.022 -0.0477  0.0577 -0.2376
15352TIP3    H167471   5.768   3.015  11.055  0.9345 -1.0393 -1.3733
15352TIP3    H267472   5.771   3.111  10.937  0.7539 -0.1877 -0.6947
15353TIP3   OH267473   1.914   2.251   0.780 -0.3840  0.0979 -0.1120
15353TIP3    H167474   1.961   2.217   0.704  1.0508 -0.7047  1.0699
15353TIP3    H267475   1.871   2.330   0.748  0.0100 -0.3209 -1.7899
15354TIP3   OH267476   0.052   0.014   1.154  0.4607 -0.2301  0.7231
15354TIP3    H167477   0.059  -0.078   1.183  0.4498 -0.0828  1.2103
15354TIP3    H267478  -0.037   0.021   1.120  0.6409 -0.5386  0.1790
15355TIP3   OH267479   3.944   3.048   1.165  0.1182  0.1481 -0.6564
15355TIP3    H167480   3.872   3.040   1.229  0.1548  0.6705 -0.5411
15355TIP3    H267481   4.001   3.115   1.203  0.8512 -0.5212 -0.5777
15356TIP3   OH267482   2.255   0.033   0.698 -0.3368  0.4074  0.3093
15356TIP3    H167483   2.281   0.111   0.649  1.3136  0.4664  1.2174
15356TIP3    H267484   2.288   0.048   0.787 -1.0142 -0.8207  0.7975
15357TIP3   OH267485   2.052   1.895  14.233  0.1203  0.4474  0.0400
15357TIP3    H167486   1.991   1.929  14.299  1.3665 -0.2890  1.6368
15357TIP3    H267487   2.137   1.931  14.259  1.1970 -2.4278  0.7854
15358TIP3   OH267488   1.127   4.760  12.563  0.6195  0.0833 -0.4427
15358TIP3    H167489   1.154   4.848  12.588 -0.0808  0.7911 -1.9806
15358TIP3    H267490   1.202   4.704  12.583  0.6905  0.8201  1.5583
15359TIP3   OH267491   4.711   1.379  15.824  0.1697  0.1530 -0.8303
15359TIP3    H167492   4.629   1.333  15.840  1.3225 -1.5359  0.6685
15359TIP3    H267493   4.698   1.467  15.861 -0.8976 -0.1345 -0.5104
15360TIP3   OH267494   5.937   0.458   2.771  0.4724  0.3621 -0.0145
15360TIP3    H167495   5.897   0.404   2.839  0.2115  1.5136  0.7599
15360TIP3    H267496   6.024   0.420   2.759  0.1846 -0.4233  0.2771
15361TIP3   OH267497   6.718   4.765   4.707  0.3625 -0.6988 -0.2486
15361TIP3    H167498   6.802   4.783   4.749  0.8765 -2.0108 -0.6572
15361TIP3    H267499   6.676   4.702   4.766 -0.8884  0.8653  0.5856
15362TIP3   OH267500   5.538   3.756  12.458 -0.7220 -0.2960 -0.6314
15362TIP3    H167501   5.472   3.810  12.415 -2.4205 -1.8175 -0.0463
15362TIP3    H267502   5.548   3.680  12.401  1.8428  0.6456 -1.5882
15363TIP3   OH267503   6.692   6.603  15.429 -0.2611 -0.4230  0.4776
15363TIP3    H167504   6.608   6.582  15.470 -0.6665 -1.9709 -1.0267
15363TIP3    H267505   6.745   6.524  15.441  0.4675 -0.0031  0.1378
15364TIP3   OH267506   0.697   6.610   5.711  0.2670  0.5999  0.1178
15364TIP3    H167507   0.667   6.593   5.800  0.9454 -0.0451  0.2321
15364TIP3    H267508   0.651   6.690   5.685 -0.6340  0.2929  0.7072
15365TIP3   OH267509   4.910   2.250   5.533  0.4925 -0.0088 -0.1947
15365TIP3    H167510   4.839   2.197   5.568  0.5075 -0.1297 -0.3488
15365TIP3    H267511   4.886   2.340   5.555  0.1195 -0.0197 -0.5594
15366TIP3   OH267512   1.972   4.536   4.275 -0.5047 -0.0127 -0.0942
15366TIP3    H167513   1.975   4.629   4.252 -1.9759 -0.2034 -1.1173
15366TIP3    H267514   2.064   4.512   4.289 -0.1804  1.8529  1.3440
15367TIP3   OH267515   0.766   6.091   2.297 -0.2101  0.9615 -0.1489
15367TIP3    H167516   0.778   6.164   2.358  0.0146  1.0480 -0.2919
15367TIP3    H267517   0.671   6.088   2.282 -0.1636  1.6755 -0.6773
15368TIP3   OH267518   0.869   6.573  11.576  0.0241 -0.6782 -0.2807
15368TIP3    H167519   0.860   6.643  11.512 -1.3208 -0.1367  0.4599
15368TIP3    H267520   0.802   6.509  11.551 -2.1866  0.6210  1.8587
15369TIP3   OH267521   5.361   4.042  15.467  0.2706  0.5967  0.3436
15369TIP3    H167522   5.372   4.136  15.450  0.6567  0.9075  2.1094
15369TIP3    H267523   5.266   4.029  15.464  0.0831  1.4262  1.7856
15370TIP3   OH267524   6.026   1.409  12.371  0.2849  0.0781 -0.1114
15370TIP3    H167525   5.969   1.347  12.416  1.2064 -1.4963 -0.9971
15370TIP3    H267526   5.988   1.417  12.283 -0.7797  2.1347  0.4746
15371TIP3   OH267527   2.992   2.346   0.430 -0.3459  0.2889  0.0275
15371TIP3    H167528   3.022   2.427   0.389  0.0511 -0.5012 -1.3115
15371TIP3    H267529   2.952   2.296   0.359 -1.6911 -0.1814  1.0783
15372TIP3   OH267530   0.758   1.277   4.601 -0.2028 -0.0619  0.3833
15372TIP3    H167531   0.824   1.235   4.546 -0.8336 -0.6483  0.0619
15372TIP3    H267532   0.748   1.365   4.563 -1.8405 -1.0044 -1.5334
15373TIP3   OH267533   4.228   4.776  15.506 -0.0357 -0.0478  0.2521
15373TIP3    H167534   4.146   4.730  15.524 -0.4385  0.7218  0.4515
15373TIP3    H267535   4.200   4.864  15.482  0.7364  0.2134  0.3005
15374TIP3   OH267536   2.205   5.598  13.447  0.7734  0.0496 -0.3373
15374TIP3    H167537   2.300   5.599  13.457  0.6084  0.8237  1.5663
15374TIP3    H267538   2.172   5.630  13.530 -1.2411 -2.5796  0.0236
15375TIP3   OH267539   2.162   5.742  12.282 -0.0774  0.1960  0.6441
15375TIP3    H167540   2.098   5.778  12.343  1.6488  0.7958  2.1804
15375TIP3    H267541   2.135   5.651  12.270 -1.0656  0.3650  1.4113
15376TIP3   OH267542   0.380   4.620  16.644 -0.2365  0.4617  0.1554
15376TIP3    H167543   0.297   4.656  16.612 -0.4389 -0.5706 -0.5346
15376TIP3    H267544   0.439   4.625  16.569  0.9175  2.8047  1.1119
15377TIP3   OH267545   3.890   1.057   4.242  0.2010  0.2794  0.3527
15377TIP3    H167546   3.853   1.031   4.157  1.0975 -1.1042  0.3594
15377TIP3    H267547   3.928   1.144   4.225 -0.9106  0.6654 -0.2652
15378TIP3   OH267548   5.177   3.069   3.445 -0.4612 -0.0504 -0.3866
15378TIP3    H167549   5.157   3.077   3.352 -0.3936 -2.7802 -0.7213
15378TIP3    H267550   5.227   2.988   3.452 -0.8867 -0.1854  2.0749
15379TIP3   OH267551   0.759   3.358  12.680  0.2267  0.2110  0.5352
15379TIP3    H167552   0.841   3.404  12.657  0.2107 -1.0067 -2.3916
15379TIP3    H267553   0.691   3.409  12.636 -0.2147 -0.4949  0.4017
15380TIP3   OH267554   4.460   5.684   4.748 -0.1945  0.2710 -0.3842
15380TIP3    H167555   4.398   5.651   4.813  1.4596 -0.8709  0.6972
15380TIP3    H267556   4.457   5.779   4.759 -1.1117  0.1793  0.2524
15381TIP3   OH267557   3.962   6.413   1.346 -0.5118 -0.3687  0.4716
15381TIP3    H167558   4.055   6.401   1.365  0.3693  1.5507 -1.9694
15381TIP3    H267559   3.938   6.337   1.293 -0.2993 -0.7948  0.9799
15382TIP3   OH267560   2.149   0.687  13.950 -0.3429  0.4723 -0.2322
15382TIP3    H167561   2.243   0.700  13.967 -0.5428  1.5058  0.1674
15382TIP3    H267562   2.134   0.594  13.966  0.1840  0.7024  1.8985
15383TIP3   OH267563   3.350   4.071   1.413 -0.4242 -0.8408  0.6900
15383TIP3    H167564   3.284   4.120   1.463 -1.3953 -0.0904 -1.2449
15383TIP3    H267565   3.433   4.092   1.456 -1.2345 -0.4070  2.1069
15384TIP3   OH267566   6.355   5.282  14.987 -0.5362 -0.0243  0.1656
15384TIP3    H167567   6.302   5.348  14.943  0.6772  0.7882 -0.1200
15384TIP3    H267568   6.330   5.288  15.079  0.6247  1.9308  0.4107
15385TIP3   OH267569   0.633   0.081   2.423  0.2328 -0.2400  0.0377
15385TIP3    H167570   0.691   0.007   2.406  1.1858  0.3013  0.8067
15385TIP3    H267571   0.558   0.044   2.467  0.7809 -0.7285  0.5745
15386TIP3   OH267572   1.754   2.425  14.410 -0.2705  0.0631  0.2642
15386TIP3    H167573   1.670   2.409  14.368  0.5287 -1.2202 -0.9322
15386TIP3    H267574   1.760   2.521  14.416 -0.6473  0.2983 -2.1654
15387TIP3   OH267575   0.969   0.543  13.745 -0.6313  0.0887 -0.1173
15387TIP3    H167576   0.949   0.579  13.659  1.0933 -0.6042 -0.8568
15387TIP3    H267577   0.884   0.520  13.782 -1.4681  1.2351 -1.2497
15388TIP3   OH267578   1.491   3.287   4.433  0.2630 -0.1285 -0.5617
15388TIP3    H167579   1.531   3.236   4.503 -0.4200 -0.1162 -0.1521
15388TIP3    H267580   1.442   3.223   4.381 -0.0979  0.0217 -0.4052
15389TIP3   OH267581   5.190   2.443   1.837 -0.2482  0.7189  0.3043
15389TIP3    H167582   5.237   2.487   1.767  1.2072  1.1869  1.5276
15389TIP3    H267583   5.103   2.427   1.801 -0.0406  2.3609 -1.0504
15390TIP3   OH267584   5.451   1.878   0.505  0.4128 -0.1144  0.2252
15390TIP3    H167585   5.404   1.957   0.531 -0.8563 -0.2364 -1.4929
15390TIP3    H267586   5.541   1.893   0.531 -0.1295  1.1399  1.5169
15391TIP3   OH267587   0.255   1.208  13.222 -0.2821  0.2992 -0.0146
15391TIP3    H167588   0.280   1.270  13.154 -0.1999 -0.1702 -0.4142
15391TIP3    H267589   0.179   1.162  13.186 -0.3826  0.2152  0.3041
15392TIP3   OH267590   5.498   4.955  13.652 -0.1080  0.0012  0.1352
15392TIP3    H167591   5.545   4.988  13.575 -0.2449 -1.7201 -0.7399
15392TIP3    H267592   5.556   4.974  13.725  0.1873  1.3689 -0.4190
15393TIP3   OH267593   5.773   1.214   5.361 -0.1396 -0.5385  0.4174
15393TIP3    H167594   5.681   1.197   5.338  0.0651  0.1507 -1.0222
15393TIP3    H267595   5.821   1.142   5.320  0.3142  1.1328 -2.2641
15394TIP3   OH267596   5.378   6.087   0.678  0.1587  0.1435 -0.0175
15394TIP3    H167597   5.463   6.102   0.636  0.5391 -0.9177  0.3498
15394TIP3    H267598   5.374   5.993   0.692 -1.7136 -0.0307 -1.3436
15395TIP3   OH267599   5.643   2.774   0.380  0.0416  0.2521  0.3696
15395TIP3    H167600   5.710   2.708   0.362 -0.3341  0.2340 -1.0827
15395TIP3    H267601   5.607   2.748   0.465  0.5365 -0.8779  0.2569
15396TIP3   OH267602   6.614   6.778  14.284  0.2079  0.4378 -0.3902
15396TIP3    H167603   6.548   6.842  14.257  0.5382  1.1771  0.5150
15396TIP3    H267604   6.575   6.734  14.359  0.9287  1.2175  0.4548
15397TIP3   OH267605   6.104   6.016  13.731  0.2561 -0.1010  0.5595
15397TIP3    H167606   6.075   6.017  13.822 -1.9268 -1.4513 -0.0332
15397TIP3    H267607   6.105   6.108  13.705  1.7065  0.3704  2.1186
15398TIP3   OH267608   0.015   1.708  14.905 -0.0445  0.3284 -0.5019
15398TIP3    H167609  -0.074   1.741  14.917  0.1944  1.0524 -0.6821
15398TIP3    H267610   0.026   1.644  14.975 -1.3290 -1.1109 -1.5539
15399TIP3   OH267611   6.632   5.287  10.954  0.2179 -0.2410 -0.7958
15399TIP3    H167612   6.553   5.284  11.009  0.6951  0.5250 -0.0440
15399TIP3    H267613   6.624   5.211  10.896 -0.7854 -0.5022 -0.3355
15400TIP3   OH267614   6.532   3.312  16.358  0.4455  0.3054  0.1687
15400TIP3    H167615   6.608   3.369  16.351  1.3791 -0.6449  1.7957
15400TIP3    H267616   6.480   3.351  16.429  1.3050 -1.0258  1.5866
15401TIP3   OH267617   5.006   0.414   0.003  0.0969 -0.3952  0.3803
15401TIP3    H167618   4.915   0.407  -0.025  0.4891 -1.7032 -0.6641
15401TIP3    H267619   5.056   0.364  -0.062  1.7868  1.7489 -0.0798
15402TIP3   OH267620   2.417   5.492   4.218 -0.0582  0.5769 -0.3197
15402TIP3    H167621   2.375   5.578   4.223 -0.6808  0.2725 -0.2946
15402TIP3    H267622   2.376   5.441   4.287 -0.8297 -0.2221 -1.3312
15403TIP3   OH267623   4.722   5.682  13.286  0.2555  0.4319 -0.2881
15403TIP3    H167624   4.797   5.738  13.302  0.4506  0.2533 -0.5579
15403TIP3    H267625   4.757   5.593  13.285 -0.4328  0.0351  2.6741
15404TIP3   OH267626   3.085   5.820   3.200 -0.0778  0.0784  0.6243
15404TIP3    H167627   3.022   5.835   3.129  0.0442 -0.4814  0.3985
15404TIP3    H267628   3.154   5.884   3.184 -0.4814  0.5543  0.7505
15405TIP3   OH267629   2.981   2.853   1.637 -0.1474 -0.0609  0.0810
15405TIP3    H167630   2.989   2.947   1.650  0.5342 -0.1228  0.1166
15405TIP3    H267631   3.008   2.815   1.721  2.6297 -0.3965 -0.8680
15406TIP3   OH267632   5.853   3.382   3.777 -0.2597 -0.2271 -0.3876
15406TIP3    H167633   5.769   3.360   3.735  0.9547 -0.3591 -2.9657
15406TIP3    H267634   5.848   3.477   3.790 -1.0298 -0.3161  0.0344
15407TIP3   OH267635   1.572   6.615   4.533  0.3716  0.1252 -0.3731
15407TIP3    H167636   1.655   6.640   4.491  1.5610 -0.0423  1.7257
15407TIP3    H267637   1.591   6.531   4.575 -0.9668 -0.0474 -0.0763
15408TIP3   OH267638   4.325   5.730  12.881 -0.0706 -0.3004 -0.3821
15408TIP3    H167639   4.345   5.637  12.869  0.4125 -0.2988  0.3696
15408TIP3    H267640   4.408   5.775  12.867  0.0507 -0.1265  0.7839
15409TIP3   OH267641   4.261   1.042  13.384  0.3420 -0.1895 -0.1577
15409TIP3    H167642   4.276   1.103  13.311  1.4000 -1.3027 -0.9082
15409TIP3    H267643   4.199   0.978  13.348  0.2341 -0.2812  0.1938
15410TIP3   OH267644   2.637   5.132   3.963  0.6191  0.0739 -0.2823
15410TIP3    H167645   2.699   5.105   3.895 -0.4317 -0.4593 -1.0623
15410TIP3    H267646   2.583   5.055   3.979 -0.2804  0.7072 -0.1249
15411TIP3   OH267647   3.505   3.968   5.094  0.2935  0.1003  0.1885
15411TIP3    H167648   3.553   3.891   5.123  0.0977 -0.2336 -0.3675
15411TIP3    H267649   3.563   4.011   5.031  0.1451  0.0643  0.0256
15412TIP3   OH267650   5.552   4.572   1.698 -0.1009 -0.0517  0.2175
15412TIP3    H167651   5.543   4.532   1.611 -0.8992  0.8899 -0.1517
15412TIP3    H267652   5.635   4.537   1.731  0.0802 -0.6505 -0.7987
15413TIP3   OH267653   5.664   6.079   4.463  0.4586 -0.4130  0.1431
15413TIP3    H167654   5.590   6.022   4.444  0.7168 -0.2909 -1.3350
15413TIP3    H267655   5.627   6.167   4.466  0.2731 -0.5169  1.1328
15414TIP3   OH267656   2.474   2.123  11.719  0.1352  0.3770  0.1147
15414TIP3    H167657   2.466   2.208  11.675 -1.0601 -0.3363 -1.1264
15414TIP3    H267658   2.532   2.072  11.662  1.0212  0.4017  0.9666
15415TIP3   OH267659   2.584   0.525   5.422  0.4309  0.1808  0.2957
15415TIP3    H167660   2.557   0.521   5.331  1.7395  1.7711 -0.2190
15415TIP3    H267661   2.679   0.513   5.419  0.5822  0.9329  1.3544
15416TIP3   OH267662   0.961   3.723   4.960  0.1110  0.4353  0.1575
15416TIP3    H167663   0.896   3.664   4.923  0.5068  1.1319 -1.7502
15416TIP3    H267664   1.033   3.666   4.988 -0.8596 -0.2434  1.3780
15417TIP3   OH267665   4.603   6.315   3.482  0.1006 -0.1495  0.5342
15417TIP3    H167666   4.581   6.260   3.408 -0.3888 -0.5741  0.9881
15417TIP3    H267667   4.576   6.403   3.455  0.4167 -0.2081  0.0088
15418TIP3   OH267668   6.668   6.617   1.448  0.0001  0.9602  0.5833
15418TIP3    H167669   6.574   6.616   1.432  0.2196 -0.4169 -0.8012
15418TIP3    H267670   6.676   6.629   1.543 -1.6387 -1.0815  1.0510
15419TIP3   OH267671   2.286   0.304  15.722 -0.6433  0.1788  0.5032
15419TIP3    H167672   2.229   0.316  15.798 -2.0867 -0.6773 -0.3869
15419TIP3    H267673   2.372   0.285  15.759 -1.4140 -0.6966  1.9310
15420TIP3   OH267674   0.255   2.140   2.068 -0.2272  0.1115 -0.1370
15420TIP3    H167675   0.345   2.150   2.037  0.4118  0.6243  1.7431
15420TIP3    H267676   0.208   2.213   2.029  0.7140  1.1561  0.6154
15421TIP3   OH267677   0.325   3.808  16.785  0.2305  0.0271  0.5844
15421TIP3    H167678   0.317   3.772  16.874  2.0992  1.3826  1.3753
15421TIP3    H267679   0.255   3.767  16.736  0.0488 -1.8918  2.3232
15422TIP3   OH267680   2.480   4.182  15.842 -0.1255 -0.6220  0.4133
15422TIP3    H167681   2.512   4.092  15.835 -0.6162 -0.7408 -0.4898
15422TIP3    H267682   2.461   4.194  15.935 -2.1429 -2.1833  0.2504
15423TIP3   OH267683   6.144   3.157  12.581  0.1209 -0.5132 -0.1919
15423TIP3    H167684   6.217   3.096  12.580  0.5377 -0.0195 -0.6887
15423TIP3    H267685   6.175   3.230  12.636  0.7353  0.5405 -1.8481
15424TIP3   OH267686   3.877   2.874  16.993 -0.6542 -0.0051 -0.4911
15424TIP3    H167687   3.896   2.956  17.037  0.8816 -0.1695 -0.7860
15424TIP3    H267688   3.928   2.808  17.041 -0.7707 -0.5532 -1.1002
15425TIP3   OH267689   5.999   3.170   2.750  0.4247 -0.0649 -0.1541
15425TIP3    H167690   5.980   3.113   2.824  1.9434 -2.1107 -1.2619
15425TIP3    H267691   6.091   3.195   2.762 -0.2729  2.5316  0.4806
15426TIP3   OH267692   3.594   2.479  11.675  0.4439 -0.0711 -0.5365
15426TIP3    H167693   3.624   2.410  11.615  0.2558 -2.4473  1.9098
15426TIP3    H267694   3.674   2.512  11.716  0.3827 -0.1810 -0.3297
15427TIP3   OH267695   5.264   6.669   0.853 -0.1002  0.4699 -0.2453
15427TIP3    H167696   5.258   6.671   0.948  0.1380  2.7405 -0.2264
15427TIP3    H267697   5.188   6.719   0.822  0.7394  1.2392 -1.1568
15428TIP3   OH267698   1.284   4.823   3.265 -0.2608 -0.1587 -0.2131
15428TIP3    H167699   1.306   4.867   3.183  0.5002  1.4541  0.8170
15428TIP3    H267700   1.353   4.758   3.277 -0.6417 -0.7460 -1.0592
15429TIP3   OH267701   1.073   4.103  12.596 -0.3388  0.0705  0.6990
15429TIP3    H167702   1.082   4.186  12.644  0.0594  0.7877 -0.5672
15429TIP3    H267703   0.999   4.117  12.537 -0.1056 -0.3938  0.2924
15430TIP3   OH267704   2.468   6.249  14.265 -0.0545 -0.0397 -0.0895
15430TIP3    H167705   2.485   6.242  14.359 -0.7824 -1.0986 -0.0200
15430TIP3    H267706   2.546   6.292  14.229 -0.0178  0.9297  1.0690
15431TIP3   OH267707   3.029   6.489   1.942  0.0107 -0.5389 -0.0168
15431TIP3    H167708   3.105   6.450   1.898  0.2302  1.5006 -1.6722
15431TIP3    H267709   2.969   6.417   1.956  1.7405 -2.0073  0.2051
15432TIP3   OH267710   2.412   1.528   1.684 -0.1933 -0.2158 -0.1891
15432TIP3    H167711   2.497   1.486   1.672  0.8046  1.9437 -1.2436
15432TIP3    H267712   2.396   1.572   1.601 -2.9406 -1.5099 -0.4406
15433TIP3   OH267713   0.658   0.956  11.006  0.3756 -0.5462  0.8218
15433TIP3    H167714   0.731   1.017  11.000 -0.7180  1.1497  3.3539
15433TIP3    H267715   0.646   0.925  10.916  2.1594  1.5126 -0.2240
15434TIP3   OH267716   4.743   0.090   3.185 -0.2325 -0.6223  0.1121
15434TIP3    H167717   4.679   0.044   3.131 -1.0617 -0.6910  1.1282
15434TIP3    H267718   4.821   0.034   3.183 -0.3266 -0.7383 -0.8052
15435TIP3   OH267719   5.579   0.959   0.103  0.0009  0.3208  0.3111
15435TIP3    H167720   5.563   0.868   0.076  1.8007 -0.1174  0.5849
15435TIP3    H267721   5.598   0.954   0.196 -0.0450  1.0143  0.3636
15436TIP3   OH267722   5.425   3.158  12.800  0.1854 -0.5134  0.6414
15436TIP3    H167723   5.331   3.175  12.798  0.1341 -0.8150 -1.8061
15436TIP3    H267724   5.457   3.212  12.872 -1.2245  3.3188 -1.3170
15437TIP3   OH267725   1.667   5.137  11.877 -0.4879 -0.0481  0.2653
15437TIP3    H167726   1.678   5.049  11.915 -0.6937  0.1890  0.8862
15437TIP3    H267727   1.629   5.189  11.948  2.4198  1.3284  0.9434
15438TIP3   OH267728   5.605   6.795   4.990  0.4907 -0.1027  0.2016
15438TIP3    H167729   5.518   6.827   5.015  0.3862 -0.7105  0.6279
15438TIP3    H267730   5.590   6.751   4.906  0.6225  0.8632 -0.3542
15439TIP3   OH267731   5.384   1.942  14.622 -0.2657 -0.1061 -0.0074
15439TIP3    H167732   5.413   1.884  14.551  0.1909  1.1070 -0.8684
15439TIP3    H267733   5.289   1.941  14.617 -0.2381  0.1362 -0.8141
15440TIP3   OH267734   1.038   3.911  12.784  0.2102 -0.1021  0.2781
15440TIP3    H167735   1.039   3.966  12.706  1.1905  1.2373  1.1613
15440TIP3    H267736   0.946   3.900  12.805 -0.0940 -0.9598 -1.3539
15441TIP3   OH267737   0.739   2.696  14.873  0.3419  0.1890 -0.3491
15441TIP3    H167738   0.731   2.730  14.963 -0.0938 -1.9254  0.4704
15441TIP3    H267739   0.649   2.688  14.843  0.4539  0.0451 -0.6443
15442TIP3   OH267740   2.933   1.664   0.225  0.4081 -0.4762 -0.3698
15442TIP3    H167741   2.848   1.705   0.207 -0.2828 -0.7374  1.9339
15442TIP3    H267742   2.920   1.572   0.205  0.5175 -0.3345 -1.1139
15443TIP3   OH267743   4.306   6.682  16.767  0.4973  0.2474  0.0722
15443TIP3    H167744   4.271   6.618  16.829  1.7340  0.8866  1.4956
15443TIP3    H267745   4.367   6.632  16.713 -0.8738 -0.3954 -0.9131
15444TIP3   OH267746   1.516   3.738   0.777 -0.3652  0.4566 -0.1424
15444TIP3    H167747   1.565   3.663   0.742  0.6083 -0.1936  2.4278
15444TIP3    H267748   1.434   3.738   0.728  0.0380 -1.6623 -0.9129
15445TIP3   OH267749   0.010   5.602  16.903  0.8777  0.1108 -0.0514
15445TIP3    H167750   0.003   5.585  16.809  0.3173  0.9129 -0.1662
15445TIP3    H267751   0.015   5.697  16.910 -2.7247  0.3451  0.9106
15446TIP3   OH267752   1.654   0.878   0.677 -0.0620  0.3288  0.3595
15446TIP3    H167753   1.604   0.839   0.605  1.5047  0.3920 -0.8144
15446TIP3    H267754   1.733   0.911   0.636  0.3514  1.4321  1.9493
15447TIP3   OH267755   6.175   1.500   0.911 -0.1955 -0.0135 -0.6360
15447TIP3    H167756   6.218   1.527   0.992 -1.2045  2.1662 -0.7523
15447TIP3    H267757   6.228   1.428   0.878  0.5216 -0.6283  1.6887
15448TIP3   OH267758   6.400   4.693  16.515 -0.1264  0.4689  0.3873
15448TIP3    H167759   6.482   4.710  16.560 -0.2875  1.0336  0.4654
15448TIP3    H267760   6.385   4.770  16.461 -0.6106  0.3713  0.3776
15449TIP3   OH267761   4.157   3.001  10.481 -0.4974  0.0374 -0.6069
15449TIP3    H167762   4.129   2.916  10.448 -0.2118 -0.6293  0.7845
15449TIP3    H267763   4.190   2.983  10.569  0.6870  1.4029 -0.7311
15450TIP3   OH267764   3.160   6.553   4.392  0.0456  0.1690  0.2683
15450TIP3    H167765   3.200   6.503   4.321  2.1103  0.1109  1.4162
15450TIP3    H267766   3.179   6.502   4.471 -2.3210  0.1605  0.9275
15451TIP3   OH267767   1.444   1.632   2.258 -0.2742 -0.6220 -0.4381
15451TIP3    H167768   1.446   1.551   2.309 -0.2453 -1.6053 -1.9399
15451TIP3    H267769   1.447   1.701   2.324 -2.7438 -1.7871  1.0393
15452TIP3   OH267770   1.253   2.485  15.413  0.5203  0.0942  0.4234
15452TIP3    H167771   1.227   2.541  15.340  0.8580 -1.3699 -0.8736
15452TIP3    H267772   1.189   2.504  15.482 -0.7799  0.3893 -0.8127
15453TIP3   OH267773   2.927   3.599  15.023 -0.4588  0.0613 -0.0478
15453TIP3    H167774   2.942   3.635  14.935  1.0068  0.0845  0.1817
15453TIP3    H267775   2.884   3.669  15.071 -1.1213  0.1097 -0.6992
15454TIP3   OH267776   3.286   3.618  15.220 -0.1139  0.3467  0.0282
15454TIP3    H167777   3.300   3.712  15.223  0.1314  0.3109  0.0250
15454TIP3    H267778   3.344   3.582  15.288  1.5319  0.0015 -1.4911
15455TIP3   OH267779   5.351   1.989  16.847 -0.0414 -0.0848  0.1259
15455TIP3    H167780   5.305   1.913  16.810 -1.3735  1.9164 -2.6659
15455TIP3    H267781   5.438   1.956  16.870 -0.4367 -2.3579 -1.3708
15456TIP3   OH267782   3.040   2.885   0.490 -0.4051 -0.0428  0.2008
15456TIP3    H167783   3.055   2.837   0.572  0.0223  2.4268  1.6685
15456TIP3    H267784   3.127   2.903   0.456 -0.2065  3.3014  2.0132
15457TIP3   OH267785   1.293   4.303  12.389  0.1641 -0.3937 -0.1923
15457TIP3    H167786   1.208   4.349  12.386 -1.7960 -3.4455  2.4690
15457TIP3    H267787   1.281   4.227  12.332  1.3898 -0.5232 -0.3045
15458TIP3   OH267788   3.940   0.666   3.428  0.1801  0.6202 -0.1697
15458TIP3    H167789   4.007   0.615   3.381 -0.9554  1.0307 -2.3795
15458TIP3    H267790   3.990   0.726   3.483  1.5901 -0.1644 -0.5320
15459TIP3   OH267791   4.649   1.138   2.471  0.0332  0.0393 -0.9760
15459TIP3    H167792   4.706   1.079   2.521  0.1040 -1.1913 -2.4172
15459TIP3    H267793   4.570   1.086   2.455 -0.1380  0.5339 -1.7996
15460TIP3   OH267794   2.328   2.816  17.101 -0.0532 -0.4589  0.2447
15460TIP3    H167795   2.390   2.830  17.172 -1.5393  1.3978  1.2881
15460TIP3    H267796   2.305   2.904  17.072  1.1637 -1.1557 -3.2268
15461TIP3   OH267797   4.834   4.061   3.222 -0.1632 -0.0741 -0.4687
15461TIP3    H167798   4.776   4.024   3.156 -1.2138 -0.2109  0.4985
15461TIP3    H267799   4.819   4.156   3.215  0.3478 -0.0217 -0.9671
15462TIP3   OH267800   4.135   0.602  16.601  0.1309  0.6218 -0.2021
15462TIP3    H167801   4.129   0.533  16.534  0.7647 -0.5170  0.8551
15462TIP3    H267802   4.203   0.661  16.569  0.7451 -0.1560 -0.3596
15463TIP3   OH267803   0.049   3.710  13.533  0.2948  0.7268 -0.4781
15463TIP3    H167804  -0.018   3.773  13.509 -0.0946  0.9788  1.1539
15463TIP3    H267805   0.112   3.760  13.585  1.4331  0.3529 -1.4391
15464TIP3   OH267806   0.260   1.918  16.566  0.4891  0.1965 -0.0059
15464TIP3    H167807   0.307   2.001  16.560 -0.3253  0.5644 -2.0004
15464TIP3    H267808   0.167   1.943  16.562  0.1979 -0.7377  0.6303
15465TIP3   OH267809   0.108   4.157   2.961  0.4781 -0.5858 -0.3291
15465TIP3    H167810   0.066   4.138   3.045 -0.5328  1.7128 -0.2327
15465TIP3    H267811   0.092   4.251   2.947  1.2004 -0.7539 -2.7727
15466TIP3   OH267812   6.458   4.300   0.929 -0.2371 -0.0199 -0.1762
15466TIP3    H167813   6.486   4.216   0.894 -0.4485 -0.6614  1.1427
15466TIP3    H267814   6.400   4.336   0.862  0.1730 -0.7365 -0.9256
15467TIP3   OH267815   2.877   4.043   0.688  0.1960  0.1105  0.3164
15467TIP3    H167816   2.808   4.071   0.748 -1.1340 -1.1957 -0.5386
15467TIP3    H267817   2.868   3.948   0.683  2.4483 -0.1765  0.6059
15468TIP3   OH267818   4.724   6.202  15.747  0.0130 -0.5024  0.0352
15468TIP3    H167819   4.773   6.279  15.719  1.6939 -1.8588 -0.9446
15468TIP3    H267820   4.715   6.213  15.842 -0.7622  1.4025 -0.2175
15469TIP3   OH267821   6.206   3.246   3.470  0.0290 -0.0576 -0.1111
15469TIP3    H167822   6.195   3.335   3.503  0.4223 -0.0428 -0.0162
15469TIP3    H267823   6.229   3.194   3.547  0.5997 -0.0885 -0.2952
15470TIP3   OH267824   1.578   4.224  17.104  0.0871  0.2233  0.5832
15470TIP3    H167825   1.528   4.245  17.025 -0.5299 -0.7304  0.7026
15470TIP3    H267826   1.668   4.213  17.073 -0.0631  0.3478  0.0889
15471TIP3   OH267827   0.625   0.955  14.268  0.0590 -0.2774 -0.1038
15471TIP3    H167828   0.626   0.870  14.311  0.5488 -0.5259 -0.6051
15471TIP3    H267829   0.708   0.960  14.220  0.2788  0.6936  0.3375
15472TIP3   OH267830   0.390   4.216   2.692 -0.8183 -0.0138  0.3677
15472TIP3    H167831   0.479   4.200   2.724 -0.5832  0.3098 -0.1106
15472TIP3    H267832   0.344   4.134   2.707 -0.1472 -0.5294 -0.3457
15473TIP3   OH267833   5.204   1.317   3.116 -0.1363  0.1833 -0.3163
15473TIP3    H167834   5.269   1.328   3.046 -0.2633  0.2425 -0.4258
15473TIP3    H267835   5.145   1.250   3.083  0.9420 -1.2641  0.5720
15474TIP3   OH267836   2.423   2.446   3.722  0.2402 -0.5379 -0.5150
15474TIP3    H167837   2.347   2.409   3.766  0.2109  0.8786  0.7081
15474TIP3    H267838   2.497   2.429   3.780  0.4085  0.3079 -0.4648
15475TIP3   OH267839   4.155   0.785   4.382  0.1144  0.6034  0.4395
15475TIP3    H167840   4.204   0.808   4.302 -1.4443 -1.6515 -1.2792
15475TIP3    H267841   4.191   0.701   4.409 -1.4423 -0.1552  0.2611
15476TIP3   OH267842   1.886   0.015   1.826  0.4036 -0.3118 -0.1079
15476TIP3    H167843   1.935   0.082   1.874  0.1930 -0.3859  0.2128
15476TIP3    H267844   1.914  -0.067   1.866 -0.3094 -0.3247  0.3714
15477TIP3   OH267845   1.477   3.168   1.734  0.3697  0.1235 -0.6975
15477TIP3    H167846   1.482   3.182   1.640  0.1692 -2.4434 -1.1712
15477TIP3    H267847   1.563   3.134   1.758 -0.5125 -2.2495 -0.6127
15478TIP3   OH267848   2.635   2.380  13.139  0.4426  0.2452 -0.2713
15478TIP3    H167849   2.573   2.319  13.098 -1.3689  0.1359  2.3629
15478TIP3    H267850   2.613   2.465  13.102  1.4196 -0.2923 -2.2370
15479TIP3   OH267851   2.352   3.079  12.722  0.1718  0.4090  0.0293
15479TIP3    H167852   2.435   3.033  12.737  0.2743  0.8933  1.0202
15479TIP3    H267853   2.329   3.116  12.808 -1.8713 -1.0373  0.2017
15480TIP3   OH267854   1.166   6.549   3.871  0.5340  0.1117 -0.4064
15480TIP3    H167855   1.141   6.539   3.780  0.9764  2.8719 -0.9349
15480TIP3    H267856   1.113   6.486   3.919 -1.4912  0.2669 -2.3275
15481TIP3   OH267857   5.043   5.409  13.917 -0.4199  0.8899 -0.0937
15481TIP3    H167858   5.068   5.368  13.834 -0.4454  0.2707  0.2027
15481TIP3    H267859   4.992   5.486  13.891 -1.4320  0.0508 -0.6423
15482TIP3   OH267860   0.350   1.116  15.310 -0.1949 -0.3353  0.6785
15482TIP3    H167861   0.374   1.122  15.218  1.3340 -1.2464  0.9730
15482TIP3    H267862   0.337   1.023  15.326  0.3203 -0.2787  1.5327
15483TIP3   OH267863   4.728   3.433  12.736 -0.4253  0.4124 -0.6418
15483TIP3    H167864   4.752   3.418  12.645 -0.6569 -1.8142 -0.3797
15483TIP3    H267865   4.710   3.346  12.771 -0.4298  1.2215  1.5186
15484TIP3   OH267866   3.844   4.384  12.206  0.3834  0.2344  0.1407
15484TIP3    H167867   3.827   4.433  12.286 -2.1173 -1.6664  0.9227
15484TIP3    H267868   3.893   4.308  12.234 -0.9407 -0.7024  0.0267
15485TIP3   OH267869   3.760   0.928  14.538  0.1164  0.5768 -0.2589
15485TIP3    H167870   3.730   0.882  14.616  2.7556  2.1414  1.8522
15485TIP3    H267871   3.813   0.863  14.491 -0.9987 -0.1987 -0.4718
15486TIP3   OH267872   0.118   0.718   4.820  0.2168  0.4193  0.4716
15486TIP3    H167873   0.190   0.670   4.862 -1.2312 -1.9803  0.4148
15486TIP3    H267874   0.129   0.701   4.727 -0.2717  0.2609  0.4405
15487TIP3   OH267875   0.936   1.760   1.391  0.2114  0.2739 -0.2983
15487TIP3    H167876   1.023   1.789   1.419  1.3376 -3.1469  0.1861
15487TIP3    H267877   0.932   1.783   1.298  1.5084  0.7729 -0.2549
15488TIP3   OH267878   6.141   0.086  15.927 -0.5587  0.0783 -0.4614
15488TIP3    H167879   6.114   0.027  15.997 -0.1877 -0.0051 -0.3855
15488TIP3    H267880   6.237   0.082  15.928 -0.4646  1.7146  0.4387
15489TIP3   OH267881   2.769   4.561  12.946 -0.0764  0.2404  0.3306
15489TIP3    H167882   2.843   4.595  12.897 -0.8363  1.2440 -0.1533
15489TIP3    H267883   2.801   4.555  13.036  0.6615  0.4067  0.0866
15490TIP3   OH267884   2.088   4.298   1.161  0.7019  0.4832  0.7050
15490TIP3    H167885   2.091   4.360   1.089 -0.2576 -0.3753 -0.1068
15490TIP3    H267886   2.136   4.340   1.232 -0.6443  2.5314  0.4760
15491TIP3   OH267887   5.745   0.314   5.546  0.4827 -0.6130 -0.2251
15491TIP3    H167888   5.801   0.385   5.516 -0.8822  0.3177 -0.6569
15491TIP3    H267889   5.715   0.341   5.633  1.0892 -1.3439  0.2241
15492TIP3   OH267890   6.782   1.400  12.660  0.2336 -0.2496 -0.3260
15492TIP3    H167891   6.804   1.480  12.612 -0.6496  0.1449 -0.0934
15492TIP3    H267892   6.809   1.417  12.750 -0.2728 -0.0760 -0.2053
15493TIP3   OH267893   2.278   3.248   5.141  0.1466  0.1641 -0.0295
15493TIP3    H167894   2.236   3.279   5.221  0.0330 -2.0961  0.8509
15493TIP3    H267895   2.236   3.164   5.122  1.0536  0.0464 -1.7586
15494TIP3   OH267896   4.129   0.886   1.250  0.2395  0.2366 -0.0538
15494TIP3    H167897   4.035   0.869   1.238  0.2627  0.9657 -1.5810
15494TIP3    H267898   4.166   0.801   1.271 -0.9357  0.1768  2.0892
15495TIP3   OH267899   3.967   4.272  13.053  0.0295  0.3871  0.2546
15495TIP3    H167900   3.907   4.208  13.016 -1.1220  1.4446  0.2340
15495TIP3    H267901   4.046   4.267  12.999 -0.3644 -0.4138 -0.2490
15496TIP3   OH267902   3.618   2.254   2.859 -0.3450 -0.0660  0.0685
15496TIP3    H167903   3.567   2.225   2.784 -0.4437 -0.7598  0.3872
15496TIP3    H267904   3.571   2.330   2.893  0.1090  0.7041 -0.9999
15497TIP3   OH267905   2.009   3.802  14.147 -0.0437 -0.3460 -0.0591
15497TIP3    H167906   1.952   3.817  14.222  0.4340 -1.0102  0.4482
15497TIP3    H267907   1.950   3.774  14.077 -0.8148  2.4715 -0.6649
15498TIP3   OH267908   4.410   5.435   1.675 -0.2502  0.3664 -0.1424
15498TIP3    H167909   4.504   5.434   1.690 -0.4074  0.6343  0.9110
15498TIP3    H267910   4.372   5.404   1.757 -1.1021  0.7919 -0.3629
15499TIP3   OH267911   0.796   4.750  13.170 -0.5765 -0.4645  0.5409
15499TIP3    H167912   0.888   4.753  13.197 -0.8926 -0.7134  1.6677
15499TIP3    H267913   0.779   4.838  13.136  0.1849 -0.5399 -0.0935
15500TIP3   OH267914   2.711   1.892   5.934  0.4087 -0.4336 -0.3618
15500TIP3    H167915   2.627   1.891   5.888  0.4167 -0.2232 -0.3791
15500TIP3    H267916   2.713   1.976   5.980 -0.3268 -1.3021  1.3518
15501TIP3   OH267917   1.417   0.568   5.401  0.1399  0.3611  0.4725
15501TIP3    H167918   1.507   0.600   5.409  0.4194 -0.2155 -0.2081
15501TIP3    H267919   1.383   0.612   5.323 -0.0709  0.3585  0.5632
15502TIP3   OH267920   1.216   3.656  12.090 -0.2997 -0.0921  0.2114
15502TIP3    H167921   1.184   3.566  12.084  2.2011 -1.2153  2.0906
15502TIP3    H267922   1.150   3.701  12.142 -1.5781 -0.8052 -0.7288
15503TIP3   OH267923   0.933   6.632  14.978  0.6034  0.0466 -0.1869
15503TIP3    H167924   0.992   6.615  15.052  0.2800 -0.9154 -0.1445
15503TIP3    H267925   0.872   6.698  15.012 -0.6190 -1.6201  1.0158
15504TIP3   OH267926   0.454   6.559  15.516 -0.2380  0.1932 -0.0408
15504TIP3    H167927   0.510   6.614  15.459  1.1460  0.1545  1.2092
15504TIP3    H267928   0.494   6.473  15.512 -2.0501 -0.6510 -1.5033
15505TIP3   OH267929   5.352   5.085   4.988 -0.5631 -0.4457 -0.0920
15505TIP3    H167930   5.352   5.045   5.075 -0.3386 -0.2480 -0.0015
15505TIP3    H267931   5.442   5.076   4.958 -0.7785 -1.0729 -0.5615
15506TIP3   OH267932   6.143   0.546   0.520  0.4613  0.5392 -0.3902
15506TIP3    H167933   6.172   0.523   0.608 -0.1230 -0.0607 -0.3499
15506TIP3    H267934   6.209   0.608   0.489  1.6403 -0.5844 -0.2004
15507TIP3   OH267935   6.132   6.000  10.806 -0.3786  0.0812  0.1783
15507TIP3    H167936   6.100   5.917  10.843  0.6154  0.0824  1.1038
15507TIP3    H267937   6.057   6.059  10.813 -1.3584 -0.9327 -1.2375
15508TIP3   OH267938   0.381   5.152  14.867 -0.6281  0.1932  0.0965
15508TIP3    H167939   0.314   5.181  14.805 -0.6117  0.4225  0.1854
15508TIP3    H267940   0.452   5.216  14.857 -0.3209 -0.1820 -0.1705
15509TIP3   OH267941   3.110   2.064   4.136  0.5540  0.4020 -0.0861
15509TIP3    H167942   3.058   2.136   4.099 -1.3678 -1.0209 -0.2909
15509TIP3    H267943   3.113   1.999   4.066  0.2505 -0.6789  0.8816
15510TIP3   OH267944   5.802   5.405   4.646 -0.3913  0.3625  0.1421
15510TIP3    H167945   5.872   5.447   4.596 -0.4587  1.7323  1.1532
15510TIP3    H267946   5.845   5.330   4.687  0.1295  0.3447 -0.4116
15511TIP3   OH267947   5.003   4.402  13.978  0.2432  0.4381 -0.3077
15511TIP3    H167948   5.084   4.452  13.966  1.2660 -1.3438 -1.1631
15511TIP3    H267949   4.989   4.359  13.894 -0.3980 -0.9912  0.5041
15512TIP3   OH267950   6.505   3.510  14.021 -0.2437  0.3448  0.3730
15512TIP3    H167951   6.445   3.455  13.971  0.1954 -0.6330  0.8973
15512TIP3    H267952   6.462   3.595  14.024 -1.8202 -0.4277  1.0828
15513TIP3   OH267953   1.674   4.445  12.992  0.2268 -0.3805  0.1378
15513TIP3    H167954   1.671   4.369  12.933 -1.1184 -0.9293  0.8663
15513TIP3    H267955   1.739   4.503  12.953 -0.4827 -0.8136 -1.8029
15514TIP3   OH267956   4.836   3.376   0.978 -0.6095  0.2429  0.0420
15514TIP3    H167957   4.807   3.315   1.046  0.7704 -0.7441 -0.2167
15514TIP3    H267958   4.913   3.334   0.939  1.0911  2.6113  0.5867
15515TIP3   OH267959   0.571   3.870  11.066 -0.0707 -0.3259 -0.6500
15515TIP3    H167960   0.524   3.954  11.069 -0.5792 -0.6360  0.9836
15515TIP3    H267961   0.663   3.895  11.052 -0.3392  0.4530 -1.0786
15516TIP3   OH267962   6.541   3.418   1.455 -0.6148  0.3116 -0.3874
15516TIP3    H167963   6.595   3.410   1.534  0.3585  1.1324 -0.9427
15516TIP3    H267964   6.523   3.328   1.429 -2.7049 -0.0271  1.9004
15517TIP3   OH267965   5.794   3.961   3.895 -0.4494  0.2497 -0.2150
15517TIP3    H167966   5.706   3.991   3.915 -1.4809 -0.1754 -3.5879
15517TIP3    H267967   5.836   4.036   3.852  0.3412 -0.0334  0.0372
15518TIP3   OH267968   0.878   4.278  12.466  0.0188 -0.4509 -0.2810
15518TIP3    H167969   0.862   4.250  12.376  2.8776 -1.1572 -0.6517
15518TIP3    H267970   0.921   4.363  12.457 -3.7575  1.8227  0.6889
15519TIP3   OH267971   1.466   1.766   0.061  0.2671 -0.0931 -0.1516
15519TIP3    H167972   1.489   1.728  -0.024 -2.2205  0.9722 -1.4252
15519TIP3    H267973   1.371   1.752   0.068 -0.0095  2.0327  1.2891
15520TIP3   OH267974   0.471   6.283  16.977  0.0766  0.0830  0.8675
15520TIP3    H167975   0.523   6.354  16.939  1.3963 -1.5065 -0.4179
15520TIP3    H267976   0.533   6.232  17.029 -1.2297  0.8431  3.3497
15521TIP3   OH267977   3.649   4.136   6.605 -0.3582 -0.1472 -0.0633
15521TIP3    H167978   3.682   4.117   6.693 -0.4490  1.2066  0.2907
15521TIP3    H267979   3.557   4.110   6.608  0.0468 -1.7145 -0.3191
15522TIP3   OH267980   3.700   2.675   0.543 -0.0238 -0.1116 -0.6036
15522TIP3    H167981   3.670   2.759   0.578 -0.9505 -0.4396 -0.5746
15522TIP3    H267982   3.791   2.669   0.569 -0.0356  0.7505 -0.3416
15523TIP3   OH267983   2.100   5.027   6.084 -0.1327 -0.2130 -0.7612
15523TIP3    H167984   2.041   4.990   6.150  0.8795  1.5788  1.2594
15523TIP3    H267985   2.054   5.104   6.050 -0.8377 -1.3597 -2.5794
15524TIP3   OH267986   3.043   3.500  12.593 -0.1349  0.5462  0.6101
15524TIP3    H167987   3.023   3.530  12.504 -0.8154  0.6755  0.8003
15524TIP3    H267988   3.125   3.544  12.615 -0.1797  0.8419  0.2040
15525TIP3   OH267989   2.784   1.042  14.720  0.1551 -0.5401 -0.0739
15525TIP3    H167990   2.854   0.991  14.763  0.8257  0.8902  0.5975
15525TIP3    H267991   2.715   0.978  14.704  0.7121 -1.5555  1.3153
15526TIP3   OH267992   4.143   2.098  15.070 -0.4832  0.1190 -0.2190
15526TIP3    H167993   4.206   2.067  15.136  0.5382  1.3413 -0.5754
15526TIP3    H267994   4.114   2.183  15.104 -0.3459  0.5186 -1.0929
15527TIP3   OH267995   5.497   6.802  14.026  0.8045 -0.3162 -0.7667
15527TIP3    H167996   5.482   6.734  14.092 -0.7485  1.6195  0.9969
15527TIP3    H267997   5.563   6.860  14.066 -1.9567  2.2885  0.3900
15528TIP3   OH267998   0.534   1.625  13.304 -0.3702 -0.3176  0.3774
15528TIP3    H167999   0.515   1.718  13.305  2.8968  0.5038 -0.4360
15528TIP3    H268000   0.453   1.583  13.275 -1.7914  2.2825  0.3505
15529TIP3   OH268001   3.152   3.995  16.317 -0.1672  0.2290  0.2416
15529TIP3    H168002   3.078   3.939  16.293 -1.6982  1.5390  1.6759
15529TIP3    H268003   3.193   4.017  16.233 -2.6331  1.0814 -0.8338
15530TIP3   OH268004   3.873   4.541   4.407  0.6152 -0.1468 -0.0139
15530TIP3    H168005   3.954   4.489   4.405  1.0249  0.4931 -0.4008
15530TIP3    H268006   3.848   4.550   4.315 -0.2223 -0.8121  0.1299
15531TIP3   OH268007   4.946   5.631  12.118 -0.1185 -0.0064  0.5254
15531TIP3    H168008   4.904   5.556  12.076 -0.3158  0.5419 -0.2657
15531TIP3    H268009   4.887   5.705  12.101 -0.4436  0.1622  2.1546
15532TIP3   OH268010   4.336   6.181   1.922  0.4019  0.6698 -0.4072
15532TIP3    H168011   4.383   6.262   1.903 -0.1406  1.5804  1.7598
15532TIP3    H268012   4.393   6.134   1.984 -1.5808  2.0751  2.7534
15533TIP3   OH268013   1.311   0.922  15.465 -0.1631  0.5387  0.7208
15533TIP3    H168014   1.374   0.920  15.393 -0.8213  2.3341  0.0374
15533TIP3    H268015   1.362   0.900  15.542  0.2574 -3.1414 -0.3926
15534TIP3   OH268016   1.794   5.481   1.732  0.1115  0.3194 -0.0225
15534TIP3    H168017   1.880   5.463   1.693 -0.2488  0.7600 -1.0642
15534TIP3    H268018   1.764   5.560   1.687 -0.7024  0.3468  0.5647
15535TIP3   OH268019   0.724   0.210   4.160  0.7492  0.1408 -0.1833
15535TIP3    H168020   0.680   0.162   4.091  1.3275 -1.4920  0.5357
15535TIP3    H268021   0.788   0.265   4.114 -1.1956  1.7211 -1.1447
15536TIP3   OH268022   3.405   0.134  12.628 -0.1948  0.3185 -0.0204
15536TIP3    H168023   3.364   0.055  12.593  0.5565  0.4387 -1.2520
15536TIP3    H268024   3.488   0.105  12.666 -0.0742  0.4569 -0.1711
15537TIP3   OH268025   0.565   5.107  17.053 -0.1496  0.6771  0.2797
15537TIP3    H168026   0.591   5.048  16.983 -0.0645  1.8122 -0.6677
15537TIP3    H268027   0.611   5.074  17.131 -1.1272 -1.2635  0.0841
15538TIP3   OH268028   6.309   2.972  17.027 -0.1660 -0.0884 -0.5212
15538TIP3    H168029   6.360   2.938  17.101 -0.1422 -2.8765 -1.6866
15538TIP3    H268030   6.226   2.925  17.032 -0.1625 -0.3435 -2.2394
15539TIP3   OH268031   0.756   3.173  14.829  0.4949 -1.1654  0.4490
15539TIP3    H168032   0.765   3.145  14.920  0.2828 -1.2292  0.4509
15539TIP3    H268033   0.670   3.139  14.802  0.3264 -0.6977  0.3872
15540TIP3   OH268034   1.383   4.169  13.014 -0.0308 -0.0777  0.4071
15540TIP3    H168035   1.356   4.078  13.003  0.7606 -0.3203  0.3864
15540TIP3    H268036   1.377   4.185  13.108 -0.7232  0.0311  0.3478
15541TIP3   OH268037   2.148   4.822   1.277 -0.1424  0.0664 -0.0856
15541TIP3    H168038   2.217   4.803   1.213 -1.6999  1.2368 -2.2054
15541TIP3    H268039   2.170   4.909   1.311 -0.0185 -0.0024  0.0114
15542TIP3   OH268040   2.550   5.096  12.724  0.4949  0.2189  0.1245
15542TIP3    H168041   2.543   5.066  12.815 -0.4160 -0.3327 -0.1236
15542TIP3    H268042   2.501   5.032  12.673  0.5097  0.8415 -0.6930
15543TIP3   OH268043   2.263   3.109   0.828  0.4983 -0.1183  0.4193
15543TIP3    H168044   2.210   3.032   0.845 -1.4104  1.4833  2.2127
15543TIP3    H268045   2.336   3.101   0.890  1.5057 -1.4547 -0.8583
15544TIP3   OH268046   6.021   0.152   1.746  0.7771  0.4032 -0.1112
15544TIP3    H168047   5.965   0.107   1.683  0.5534 -0.4726  0.6940
15544TIP3    H268048   5.960   0.188   1.810  1.0515  0.6249  0.0259
15545TIP3   OH268049   0.344   4.423  15.806 -0.4527  0.4501  0.2878
15545TIP3    H168050   0.333   4.331  15.780  1.6457  0.2079  0.1064
15545TIP3    H268051   0.404   4.420  15.880  0.2090  1.7275 -0.1657
15546TIP3   OH268052   1.063   3.033  13.708  0.4795  0.0554  0.2346
15546TIP3    H168053   0.981   3.005  13.666 -0.2958 -2.9755  3.2713
15546TIP3    H268054   1.048   3.124  13.732 -1.8287 -0.2389  0.1700
15547TIP3   OH268055   0.439   1.314  14.649  0.3357 -0.3638  0.0386
15547TIP3    H168056   0.434   1.261  14.569 -0.2358 -0.1719 -0.0622
15547TIP3    H268057   0.517   1.283  14.694  0.2877 -0.9443 -0.2665
15548TIP3   OH268058   5.327   5.620  14.211 -0.0264 -0.1624 -0.0800
15548TIP3    H168059   5.386   5.690  14.238 -0.5065 -0.2353  1.2628
15548TIP3    H268060   5.312   5.569  14.291 -0.6200 -1.1052 -0.7583
15549TIP3   OH268061   0.333   1.012  14.515 -0.8187  0.5833  0.1318
15549TIP3    H168062   0.298   0.970  14.436 -1.0645  2.9827 -1.1224
15549TIP3    H268063   0.393   1.079  14.482  3.0074 -1.4724  2.1034
15550TIP3   OH268064   0.386   6.809   5.180 -0.0904 -0.2475 -0.0145
15550TIP3    H168065   0.385   6.713   5.170  0.2993 -0.2902  0.3321
15550TIP3    H268066   0.415   6.841   5.095  0.1144 -0.4563 -0.0252
15551TIP3   OH268067   6.365   4.034  11.953  0.1237 -0.0995  0.2612
15551TIP3    H168068   6.297   4.065  12.012  0.0889  0.3522 -0.0021
15551TIP3    H268069   6.323   4.033  11.867  0.3100 -0.2847  0.1719
15552TIP3   OH268070   1.211   0.582  15.151 -0.2175  0.1965 -0.4633
15552TIP3    H168071   1.140   0.593  15.088 -0.6713 -1.5060 -0.2857
15552TIP3    H268072   1.268   0.517  15.112 -1.7650 -2.7936  1.8295
15553TIP3   OH268073   0.828   1.949  11.776 -0.0770 -0.3135  0.3474
15553TIP3    H168074   0.876   2.032  11.774 -2.0125  0.8401 -0.2519
15553TIP3    H268075   0.773   1.954  11.854 -3.0011  0.7023 -1.6184
15554TIP3   OH268076   0.828   5.098  11.666 -0.5308 -0.4821 -0.4476
15554TIP3    H168077   0.870   5.179  11.637  0.9930 -1.5668 -1.4736
15554TIP3    H268078   0.757   5.126  11.722  1.9288  1.5051  1.9614
15555TIP3   OH268079   1.153   1.202  13.384 -0.0175  0.1138 -0.4851
15555TIP3    H168080   1.181   1.184  13.295 -0.9426 -2.4724 -0.3567
15555TIP3    H268081   1.064   1.235  13.375  0.7997  2.4303 -0.5918
15556TIP3   OH268082   5.653   4.290  16.565  0.0935  0.1222  0.0940
15556TIP3    H168083   5.615   4.232  16.631 -0.9603  1.4314  0.6765
15556TIP3    H268084   5.586   4.297  16.498  0.0663  0.9218  0.1944
15557TIP3   OH268085   2.314   4.057  12.121  0.5199 -0.6127  1.0736
15557TIP3    H168086   2.290   4.094  12.037  2.6553 -1.0842  0.1825
15557TIP3    H268087   2.256   4.100  12.184 -1.5431 -0.6942 -0.6674
15558TIP3   OH268088   1.064   5.459   2.701 -0.1227 -0.3044  0.1459
15558TIP3    H168089   0.991   5.508   2.737  0.0308  0.0699 -0.0520
15558TIP3    H268090   1.131   5.525   2.682  0.8278 -0.7601  1.6430
15559TIP3   OH268091   4.939   1.919   4.775 -0.1421 -0.1486  0.6393
15559TIP3    H168092   4.928   1.845   4.715 -1.7496  1.0666 -0.6285
15559TIP3    H268093   4.884   1.896   4.851  1.6637 -1.5472  1.6039
15560TIP3   OH268094   5.385   3.092  10.720 -0.4868  0.3011 -0.5364
15560TIP3    H168095   5.290   3.083  10.731 -0.3039  0.8559  2.1216
15560TIP3    H268096   5.395   3.176  10.675 -1.2497  0.3289 -0.6764
15561TIP3   OH268097   6.501   6.464   3.604  0.3603  0.2052 -0.6009
15561TIP3    H168098   6.464   6.422   3.527  1.0276 -0.3840 -0.6132
15561TIP3    H268099   6.567   6.403   3.635  1.4254  1.2739 -0.6685
15562TIP3   OH268100   4.081   6.615  16.301  0.4180  0.4635 -0.1795
15562TIP3    H168101   3.996   6.653  16.321  0.9036  0.9254  1.1571
15562TIP3    H268102   4.123   6.679  16.244 -0.2737  0.0216 -1.2202
15563TIP3   OH268103   1.115   1.515   6.576 -0.6696 -0.3493  0.1020
15563TIP3    H168104   1.149   1.459   6.646  0.2856 -1.5059 -1.2265
15563TIP3    H268105   1.030   1.476   6.554 -1.6210  0.8200  1.4599
15564TIP3   OH268106   2.041   0.723  16.739  0.4334 -0.1521 -0.0131
15564TIP3    H168107   1.968   0.665  16.763 -0.7741  1.1253 -0.4598
15564TIP3    H268108   2.095   0.671  16.680 -1.1121 -0.5650 -1.1279
15565TIP3   OH268109   3.857   6.198   0.875 -0.2898  0.0432  0.3078
15565TIP3    H168110   3.802   6.135   0.828 -0.2042  1.6375 -2.1457
15565TIP3    H268111   3.945   6.185   0.839 -0.4974  2.2961 -1.2268
15566TIP3   OH268112   1.886   1.508  10.446  0.7411  0.0492  0.0615
15566TIP3    H168113   1.795   1.524  10.470  0.3890  0.5108 -1.4779
15566TIP3    H268114   1.896   1.552  10.361  1.8287 -1.6938 -0.7576
15567TIP3   OH268115   4.787   1.318   1.680  0.3736  0.5896  0.5696
15567TIP3    H168116   4.853   1.360   1.625  1.3297  0.8713  1.8872
15567TIP3    H268117   4.709   1.373   1.670  0.7545  1.0486  0.0639
15568TIP3   OH268118   2.753   2.242  12.789  0.1918  0.5013  0.4101
15568TIP3    H168119   2.787   2.297  12.860  1.1743 -0.4945  0.7222
15568TIP3    H268120   2.830   2.219  12.738 -0.1270 -1.0322  0.5975
15569TIP3   OH268121   2.468   3.293   5.494  0.2921 -0.2098 -0.2109
15569TIP3    H168122   2.433   3.361   5.436 -0.4481  1.4439  2.0391
15569TIP3    H268123   2.558   3.321   5.512 -0.0584  0.2588  0.8292
15570TIP3   OH268124   2.182   1.453  16.838 -0.0587  0.3488  0.2446
15570TIP3    H168125   2.099   1.432  16.881  0.5358  0.4314  1.4756
15570TIP3    H268126   2.194   1.546  16.853  0.4563  0.2553  0.4227
15571TIP3   OH268127   2.312   1.617  15.548 -0.1943  0.0954 -0.1410
15571TIP3    H168128   2.219   1.637  15.563 -0.0985 -0.1961  0.8516
15571TIP3    H268129   2.344   1.584  15.631  0.1334 -2.4418 -1.1769
15572TIP3   OH268130   6.623   5.079  13.532  0.5754  0.1920 -0.6496
15572TIP3    H168131   6.661   4.999  13.497  0.8883 -0.4121  1.0022
15572TIP3    H268132   6.690   5.146  13.516  2.0565 -0.6902  1.4700
15573TIP3   OH268133   5.084   1.120   1.539  0.1034 -0.0633 -0.3050
15573TIP3    H168134   4.992   1.097   1.524  0.6044 -2.1315 -0.5425
15573TIP3    H268135   5.086   1.153   1.629 -0.8601 -0.0659 -0.2712
15574TIP3   OH268136   2.298   5.473   3.955  0.5283  0.1344  0.4883
15574TIP3    H168137   2.364   5.480   4.024 -1.5514  1.6006  2.4629
15574TIP3    H268138   2.223   5.432   3.998 -0.1608 -0.7919 -1.4923
15575TIP3   OH268139   2.715   5.603   4.195  0.5727  0.4894 -0.5690
15575TIP3    H168140   2.706   5.535   4.128 -1.0451 -0.2181  0.3231
15575TIP3    H268141   2.626   5.617   4.228  1.3740  0.4772  1.7600
15576TIP3   OH268142   3.155   1.928   4.739 -0.7166 -0.4363 -0.4288
15576TIP3    H168143   3.145   1.973   4.655 -0.0459 -1.2917 -0.9734
15576TIP3    H268144   3.142   1.997   4.804  2.0291  0.9675 -1.2317
15577TIP3   OH268145   4.656   6.534  14.732 -0.5771 -0.1281 -0.4035
15577TIP3    H168146   4.719   6.465  14.709 -0.2432 -0.4630  1.4213
15577TIP3    H268147   4.696   6.580  14.806 -2.1767  0.0599  0.3836
15578TIP3   OH268148   1.500   1.721   3.913  0.0950  0.5556 -0.4229
15578TIP3    H168149   1.465   1.809   3.896  0.6424  1.0168  0.7201
15578TIP3    H268150   1.551   1.731   3.994  3.4736  0.0910 -2.2980
15579TIP3   OH268151   4.782   5.579   5.341  0.0625 -0.1133  0.3930
15579TIP3    H168152   4.865   5.562   5.386 -0.7157 -0.2417  1.8370
15579TIP3    H268153   4.766   5.500   5.289 -0.2366 -1.0274  1.8371
15580TIP3   OH268154   5.521   1.010  13.405 -0.5373  0.2026 -0.6950
15580TIP3    H168155   5.579   0.993  13.330 -0.9702 -0.1182 -0.9579
15580TIP3    H268156   5.524   0.929  13.456  0.5385  0.7581  0.1799
15581TIP3   OH268157   3.312   4.844  16.626  0.3997  0.1846 -0.2331
15581TIP3    H168158   3.224   4.841  16.665  0.8678 -1.9735  0.8453
15581TIP3    H268159   3.369   4.809  16.695  2.3497  2.7126 -0.4335
15582TIP3   OH268160   2.998   2.261   4.013  0.2724 -0.4269  0.1549
15582TIP3    H168161   3.010   2.258   3.918  0.6558 -0.1747  0.1936
15582TIP3    H268162   3.025   2.350   4.038  1.6321 -0.9623  0.6909
15583TIP3   OH268163   0.332   0.381   0.484  0.0567 -0.3601 -0.2556
15583TIP3    H168164   0.393   0.345   0.548  1.0957  0.9335 -0.4943
15583TIP3    H268165   0.246   0.352   0.514  0.3564  1.3112  2.4975
15584TIP3   OH268166   2.503   0.729   4.467 -0.1959 -0.3822 -0.1969
15584TIP3    H168167   2.583   0.684   4.440 -0.1850 -0.4948  0.0151
15584TIP3    H268168   2.471   0.772   4.388  0.4685  0.2681 -0.1287
15585TIP3   OH268169   2.615   5.362   1.131  0.7194  0.9090 -0.2598
15585TIP3    H168170   2.584   5.305   1.060 -2.0490 -1.9512  2.8728
15585TIP3    H268171   2.583   5.449   1.107 -1.2085 -0.1741 -1.9970
15586TIP3   OH268172   1.151   0.042  15.512 -0.3601 -0.2985  0.0572
15586TIP3    H168173   1.159   0.137  15.503 -1.9234 -0.1581 -0.2270
15586TIP3    H268174   1.237   0.008  15.488  0.1991  1.0395  0.0866
15587TIP3   OH268175   6.079   0.239   0.130 -0.1835  0.2122 -0.4283
15587TIP3    H168176   6.095   0.326   0.167 -0.5837  0.2349 -0.2996
15587TIP3    H268177   5.985   0.239   0.111 -0.1426 -0.1159 -0.6264
15588TIP3   OH268178   5.058   1.731  12.704 -0.6907  0.5938  0.0277
15588TIP3    H168179   5.088   1.644  12.678 -1.0111  0.6054 -0.3961
15588TIP3    H268180   5.094   1.790  12.637 -1.2513  0.6660 -0.2123
15589TIP3   OH268181   5.183   1.559  14.684 -0.1155  0.3185  0.4829
15589TIP3    H168182   5.105   1.547  14.739  0.1996 -0.2097  0.8305
15589TIP3    H268183   5.174   1.493  14.616  0.6313 -0.6022  1.2405
15590TIP3   OH268184   6.533   3.396   3.931  0.0409 -0.2339 -0.1039
15590TIP3    H168185   6.443   3.428   3.933 -0.0710 -0.4668 -0.9507
15590TIP3    H268186   6.543   3.359   3.843  0.8640 -0.4944  0.0924
15591TIP3   OH268187   3.406   1.037   4.561 -0.1895  0.0621 -0.3566
15591TIP3    H168188   3.453   0.955   4.544  1.2302  0.7933 -0.1535
15591TIP3    H268189   3.471   1.092   4.605 -1.7573  0.5554  1.4420
15592TIP3   OH268190   6.426   6.575  15.533  0.3648 -0.4124  0.1799
15592TIP3    H168191   6.351   6.631  15.554  1.6188  0.9118  1.2849
15592TIP3    H268192   6.432   6.514  15.607  1.3542  0.5684  0.9344
15593TIP3   OH268193   6.401   4.238  14.207 -0.3492 -0.6143 -0.7958
15593TIP3    H168194   6.467   4.189  14.255  2.1796  2.4358 -0.8515
15593TIP3    H268195   6.318   4.201  14.236  1.2256 -2.3804  1.9070
15594TIP3   OH268196   2.238   4.303   3.813  0.0910  0.1655 -0.4774
15594TIP3    H168197   2.288   4.227   3.844  0.5169  0.7621  0.3606
15594TIP3    H268198   2.195   4.337   3.892  2.4080  2.6300 -0.1349
15595TIP3   OH268199   1.665   1.267  15.218 -0.9839 -0.0945 -0.6923
15595TIP3    H168200   1.731   1.270  15.149 -0.0137 -0.1254  0.2147
15595TIP3    H268201   1.670   1.354  15.259 -1.9202  0.1073 -0.9803
15596TIP3   OH268202   6.718   2.070  13.806 -0.1524 -0.2533 -0.1316
15596TIP3    H168203   6.636   2.100  13.766 -0.7799 -0.2719  1.0932
15596TIP3    H268204   6.769   2.150  13.819 -1.5357  0.3206  2.4880
15597TIP3   OH268205   5.108   5.550   2.035 -0.0123  0.0826 -0.6430
15597TIP3    H168206   5.198   5.553   2.066 -0.4350  0.1123  0.6445
15597TIP3    H268207   5.060   5.505   2.105 -0.7418 -1.2919 -1.9680
15598TIP3   OH268208   5.484   3.282   6.431 -0.1133 -0.3037  0.4774
15598TIP3    H168209   5.388   3.277   6.440 -0.0089 -0.2485  1.7524
15598TIP3    H268210   5.504   3.222   6.358 -1.0556 -0.8390  0.6398
15599TIP3   OH268211   1.601   6.465   2.220 -0.1255 -0.5213 -0.0542
15599TIP3    H168212   1.620   6.557   2.237 -0.7531 -0.6188  1.3479
15599TIP3    H268213   1.644   6.446   2.136  0.2728  0.9516 -0.2084
15600TIP3   OH268214   3.117   4.522  15.551 -0.0776 -0.0436  0.0590
15600TIP3    H168215   3.058   4.575  15.605  0.4617  0.4427  0.1795
15600TIP3    H268216   3.062   4.486  15.482 -0.5888  0.0920  0.3956
15601TIP3   OH268217   5.453   5.648   5.388 -0.2268 -0.1897  0.7633
15601TIP3    H168218   5.431   5.739   5.409 -1.5121 -0.2352 -0.2469
15601TIP3    H268219   5.407   5.597   5.455  0.2902 -0.1180  1.1806
15602TIP3   OH268220   1.518   3.333   3.449  0.4505  0.2443  0.1051
15602TIP3    H168221   1.472   3.405   3.492  0.2929 -0.0373  0.4124
15602TIP3    H268222   1.590   3.375   3.401  0.0325  0.6583 -0.1667
15603TIP3   OH268223   6.022   0.982   0.377  0.1646  0.1302 -0.4220
15603TIP3    H168224   6.049   1.039   0.304  0.4031 -0.1712 -0.5702
15603TIP3    H268225   6.033   1.037   0.455  0.7702  0.1645 -0.5241
15604TIP3   OH268226   5.100   3.373   0.891 -0.9401  0.2248  0.0793
15604TIP3    H168227   5.159   3.329   0.952  0.0649 -0.2405 -1.1824
15604TIP3    H268228   5.136   3.461   0.882  0.3488 -0.4265 -1.6283
15605TIP3   OH268229   3.192   0.631  13.782 -0.3493 -0.1550 -0.4409
15605TIP3    H168230   3.226   0.688  13.713 -1.4648  1.7324  0.4685
15605TIP3    H268231   3.263   0.626  13.846 -0.6295  1.2193  0.0119
15606TIP3   OH268232   6.156   0.582   3.069 -0.2801 -0.0128 -0.8713
15606TIP3    H168233   6.144   0.488   3.081  0.0369  0.1709  1.3385
15606TIP3    H268234   6.223   0.590   3.001 -0.6517 -1.3660 -1.4074
15607TIP3   OH268235   5.974   0.339  11.475  0.1949  0.4107 -0.4093
15607TIP3    H168236   6.039   0.405  11.450  1.5311 -0.7660 -0.2058
15607TIP3    H268237   5.965   0.348  11.569 -0.8504  1.3443 -0.5790
15608TIP3   OH268238   2.757   1.533  16.349 -0.4633 -0.3084  0.2740
15608TIP3    H168239   2.794   1.592  16.415 -0.1881  0.5795 -0.6427
15608TIP3    H268240   2.662   1.542  16.360 -0.5961  2.8029 -1.8166
15609TIP3   OH268241   2.058   3.436  13.827 -0.6171  0.4625  0.0084
15609TIP3    H168242   2.055   3.459  13.734  2.0483 -1.1070 -0.5901
15609TIP3    H268243   1.967   3.433  13.855 -1.6205 -0.7534 -3.0330
15610TIP3   OH268244   1.571   1.236  11.588  0.1282 -0.6660  0.4753
15610TIP3    H168245   1.604   1.299  11.523  1.7541 -3.0928 -1.2633
15610TIP3    H268246   1.580   1.281  11.672  2.3147  1.0277 -0.5595
15611TIP3   OH268247   3.197   6.646  13.496  0.4577 -0.2130 -0.0115
15611TIP3    H168248   3.219   6.560  13.460  1.2050 -0.2325  0.4696
15611TIP3    H268249   3.121   6.675  13.445  2.1997  0.3163 -2.4997
15612TIP3   OH268250   4.579   2.117   0.282 -0.0576 -0.1630  0.1033
15612TIP3    H168251   4.667   2.153   0.294 -0.4714  0.1618  2.7431
15612TIP3    H268252   4.560   2.072   0.364 -2.2208 -0.5635 -0.5529
15613TIP3   OH268253   1.912   2.940  11.162 -0.3116 -0.5321 -0.3590
15613TIP3    H168254   1.817   2.930  11.167 -0.5228  1.3986  0.4944
15613TIP3    H268255   1.935   2.985  11.243  1.2729 -0.5422 -0.7772
15614TIP3   OH268256   4.525   3.925   4.648 -0.2534  0.5157 -0.3104
15614TIP3    H168257   4.432   3.907   4.631 -0.8391  2.2393  0.7534
15614TIP3    H268258   4.531   3.926   4.744  0.8126  0.7143 -0.3745
15615TIP3   OH268259   2.955   0.926  16.977  0.0576 -0.3468  0.1900
15615TIP3    H168260   2.981   1.016  16.962  0.1495 -0.4540 -0.2911
15615TIP3    H268261   2.980   0.879  16.897  0.0279 -0.8006  0.4406
15616TIP3   OH268262   5.298   1.353  13.693  0.5576  0.4631 -0.2777
15616TIP3    H168263   5.256   1.411  13.630  2.6231  1.3829 -0.8755
15616TIP3    H268264   5.314   1.408  13.769 -0.1834 -0.1471  0.3400
15617TIP3   OH268265   6.361   3.816  14.073 -0.7053 -0.6907 -0.0369
15617TIP3    H168266   6.413   3.896  14.075  0.2555 -1.1513 -2.3901
15617TIP3    H268267   6.392   3.765  14.147  2.1027 -0.8256 -1.1787
15618TIP3   OH268268   0.642   4.928   2.130  0.9925  0.0584  0.5767
15618TIP3    H168269   0.551   4.924   2.100  1.3196  1.8305 -0.7749
15618TIP3    H268270   0.652   5.017   2.163  1.7115 -0.7328  2.5958
15619TIP3   OH268271   1.903   6.374  12.560 -0.1715 -0.1077  0.0110
15619TIP3    H168272   1.870   6.352  12.473  2.1284 -0.8588 -0.7250
15619TIP3    H268273   1.827   6.410  12.606 -1.9091 -1.4601 -1.6598
15620TIP3   OH268274   5.826   0.997  16.985  0.2619 -0.4711 -0.3021
15620TIP3    H168275   5.863   0.983  16.898  0.0012  0.2383 -0.5387
15620TIP3    H268276   5.836   1.092  17.000 -1.1710 -0.3074 -0.2537
15621TIP3   OH268277   5.917   6.545   1.852 -0.0270  0.2962 -0.2912
15621TIP3    H168278   5.982   6.544   1.922 -0.9158  0.7540  0.5724
15621TIP3    H268279   5.873   6.630   1.861 -0.2792  0.2931 -1.3007
15622TIP3   OH268280   3.108   5.590  13.654 -0.0576  0.5058  0.2324
15622TIP3    H168281   3.130   5.536  13.578  0.5050 -1.4837  1.7227
15622TIP3    H268282   3.112   5.680  13.621  1.5748 -0.2025 -1.7436
15623TIP3   OH268283   1.612   2.477  16.616 -0.0761  0.6888  0.8877
15623TIP3    H168284   1.617   2.435  16.530 -0.7946  0.4242  0.9650
15623TIP3    H268285   1.534   2.533  16.610 -0.7899 -0.1855  1.7229
15624TIP3   OH268286   1.630   3.566  12.633  0.1788  0.4998 -0.0807
15624TIP3    H168287   1.582   3.551  12.715  0.8774  0.9627  0.4228
15624TIP3    H268288   1.722   3.563  12.659  0.4091  0.3788 -0.9053
15625TIP3   OH268289   2.649   2.040  13.180 -0.0247 -0.3802  0.6781
15625TIP3    H168290   2.576   2.096  13.156  1.0381  0.9227  0.3773
15625TIP3    H268291   2.656   2.048  13.275  2.2359  2.8366  0.3803
15626TIP3   OH268292   3.880   1.668  10.471  0.1394  0.1170  0.4468
15626TIP3    H168293   3.834   1.627  10.397 -0.5069  1.7058 -0.0824
15626TIP3    H268294   3.941   1.601  10.501  0.5343 -0.5418 -1.6402
15627TIP3   OH268295   3.487   4.305   1.088 -0.2346 -0.1491  0.1725
15627TIP3    H168296   3.518   4.289   1.177  2.2970 -1.0565 -0.7600
15627TIP3    H268297   3.495   4.221   1.044  0.7747  0.7455 -1.4706
15628TIP3   OH268298   2.579   1.433   4.609  0.5334 -0.7246 -0.6421
15628TIP3    H168299   2.654   1.376   4.590  0.0029 -1.1983 -1.3410
15628TIP3    H268300   2.520   1.378   4.660  1.6992  0.3650  2.1000
15629TIP3   OH268301   2.813   4.250  13.776  0.0362  0.3193 -0.1652
15629TIP3    H168302   2.774   4.219  13.694 -1.0539  1.3133 -0.0431
15629TIP3    H268303   2.906   4.227  13.767 -0.3830 -1.3103 -0.8334
15630TIP3   OH268304   3.960   5.864   1.014  0.2917 -0.1128  0.1948
15630TIP3    H168305   4.018   5.938   0.999  0.9290 -0.9300 -1.7084
15630TIP3    H268306   4.018   5.791   1.033 -0.2525 -0.4378  0.6422
15631TIP3   OH268307   1.387   4.289  13.991 -0.5109 -0.0094  0.2786
15631TIP3    H168308   1.316   4.231  14.020 -2.3050  1.4059 -1.0382
15631TIP3    H268309   1.402   4.266  13.900  0.0410  0.3734  0.2649
15632TIP3   OH268310   6.709   6.335   2.890 -0.3569  0.1761  0.0514
15632TIP3    H168311   6.803   6.343   2.872 -0.3802  0.4597  0.0497
15632TIP3    H268312   6.700   6.363   2.980 -0.1804 -1.6302  0.6824
15633TIP3   OH268313   0.207   3.854  15.824 -0.2728 -0.0341 -0.4167
15633TIP3    H168314   0.289   3.854  15.773 -0.9902  0.3243 -1.6106
15633TIP3    H268315   0.182   3.762  15.829  0.5360 -0.2288  0.5568
15634TIP3   OH268316   6.161   0.057  11.751 -0.3062  0.3448  0.1302
15634TIP3    H168317   6.111  -0.024  11.754 -1.7663  1.2187  2.2579
15634TIP3    H268318   6.099   0.125  11.779  1.7210  1.6772  1.7580
15635TIP3   OH268319   3.867   3.699   4.387 -0.1065 -0.5283  0.1122
15635TIP3    H168320   3.783   3.742   4.370  1.7981  2.9292 -1.6816
15635TIP3    H268321   3.865   3.621   4.331 -1.1707  0.9138 -2.0278
15636TIP3   OH268322   4.081   6.303   2.203  0.1452  0.9991 -0.2939
15636TIP3    H168323   4.085   6.220   2.156 -0.5377  1.3625 -1.0128
15636TIP3    H268324   4.165   6.308   2.249  0.1787 -0.1107 -0.1876
15637TIP3   OH268325   1.000   6.780  16.871  0.0847  0.8039 -0.0220
15637TIP3    H168326   0.955   6.699  16.894  0.5303  0.5066 -0.1882
15637TIP3    H268327   1.022   6.820  16.956 -0.9163  1.1944  0.0589
15638TIP3   OH268328   5.187   5.921  10.623  0.1625 -0.3010  0.1019
15638TIP3    H168329   5.233   5.880  10.695  1.4645 -0.7886 -0.9589
15638TIP3    H268330   5.131   5.852  10.588 -0.3585 -0.1074  0.5500
15639TIP3   OH268331   0.066   1.228  12.426  0.1973 -0.5480  0.1736
15639TIP3    H168332   0.097   1.149  12.471 -0.3847 -0.9796 -0.1668
15639TIP3    H268333   0.034   1.285  12.496  0.2014 -0.8079  0.3887
15640TIP3   OH268334   5.053   4.839   0.707 -0.2139  0.3571  0.5402
15640TIP3    H168335   5.015   4.927   0.700  2.8831  1.7710 -0.3214
15640TIP3    H268336   4.979   4.780   0.695 -2.4833  2.8141  1.4692
15641TIP3   OH268337   2.817   3.549   3.628 -0.2812  0.3190 -0.1466
15641TIP3    H168338   2.835   3.483   3.695  0.0383  0.7997  0.2483
15641TIP3    H268339   2.901   3.561   3.583 -0.1415  0.9826  0.2691
15642TIP3   OH268340   0.506   6.430   6.203  0.1138  0.4386 -0.1506
15642TIP3    H168341   0.518   6.335   6.205  1.0110  0.5253 -0.7359
15642TIP3    H268342   0.550   6.461   6.282 -0.8004  0.3137  0.4160
15643TIP3   OH268343   0.700   2.844   4.730  0.2951  0.1454 -0.4003
15643TIP3    H168344   0.723   2.822   4.820 -1.9969 -0.3520  0.1377
15643TIP3    H268345   0.651   2.768   4.698 -1.7124  1.5595 -0.9273
15644TIP3   OH268346   4.162   3.361   2.850 -0.0124 -0.5536  0.0568
15644TIP3    H168347   4.136   3.420   2.780 -1.5009 -0.2642  0.8102
15644TIP3    H268348   4.079   3.324   2.882  0.7470 -1.7352  0.7383
15645TIP3   OH268349   3.091   5.281   2.987 -0.6366  0.1175  0.2598
15645TIP3    H168350   3.023   5.238   3.039  1.2900 -1.2667  1.7832
15645TIP3    H268351   3.116   5.357   3.038 -0.4550  0.1485  0.1245
15646TIP3   OH268352   5.085   5.788   2.399 -0.0138 -0.0191  0.6623
15646TIP3    H168353   5.178   5.774   2.386 -0.4582 -1.3931 -1.5784
15646TIP3    H268354   5.071   5.879   2.372  0.8290  0.5760  2.1537
15647TIP3   OH268355   1.328   5.929  10.614  0.1591  0.1727 -0.1467
15647TIP3    H168356   1.385   5.980  10.555 -1.1625  0.3497 -1.3159
15647TIP3    H268357   1.266   5.886  10.556 -0.5519 -0.4848  1.0678
15648TIP3   OH268358   3.018   2.869  16.939  0.1779  0.0089 -0.2500
15648TIP3    H168359   3.041   2.931  17.009 -0.1802  0.4751 -0.5390
15648TIP3    H268360   3.065   2.789  16.962  1.5054  0.7095 -0.4331
15649TIP3   OH268361   4.488   6.527   2.670  0.4604  0.4342  0.0095
15649TIP3    H168362   4.412   6.546   2.615 -0.8470  2.5556  2.3021
15649TIP3    H268363   4.524   6.446   2.634 -2.0392  0.0876 -2.0562
15650TIP3   OH268364   2.937   6.454   2.434  0.3566 -0.1486 -0.0030
15650TIP3    H168365   2.964   6.505   2.510  1.7568  0.4058 -0.8431
15650TIP3    H268366   2.899   6.374   2.471  2.1170 -0.4536  1.2848
15651TIP3   OH268367   3.116   2.794  16.489 -0.2455  0.2775 -0.6312
15651TIP3    H168368   3.186   2.850  16.523 -0.2890 -0.4308  0.6795
15651TIP3    H268369   3.163   2.725  16.441 -0.0139 -0.2345  0.3013
15652TIP3   OH268370   2.114   3.496  15.974 -0.3883  0.2002 -0.2492
15652TIP3    H168371   2.062   3.456  15.904 -1.2660 -0.8686  0.9647
15652TIP3    H268372   2.049   3.524  16.039  0.3155  2.2933 -0.3612
15653TIP3   OH268373   3.391   6.728   0.729  0.3455 -0.2966 -0.1166
15653TIP3    H168374   3.327   6.680   0.677 -0.1345  1.0213 -0.7861
15653TIP3    H268375   3.423   6.664   0.793 -0.5334 -1.3869 -0.7330
15654TIP3   OH268376   3.667   5.491  13.479  0.2687  0.8083  0.2937
15654TIP3    H168377   3.666   5.412  13.426  0.8516  1.1762 -0.2882
15654TIP3    H268378   3.645   5.462  13.568  0.4040  0.0153  0.0715
15655TIP3   OH268379   3.263   6.439  16.851 -0.4769 -0.4344  0.1654
15655TIP3    H168380   3.351   6.443  16.888  0.6380 -0.0379 -2.3586
15655TIP3    H268381   3.213   6.503  16.902  0.1090 -1.9856  2.8870
15656TIP3   OH268382   2.488   6.798   4.599 -0.1304 -0.0610  0.3310
15656TIP3    H168383   2.434   6.720   4.587  0.2279 -0.1921 -0.5334
15656TIP3    H268384   2.467   6.853   4.523  1.4735 -0.4316 -0.4162
15657TIP3   OH268385   0.830   0.075   4.429 -0.3577 -0.4199  0.2430
15657TIP3    H168386   0.910   0.043   4.387 -0.7824 -0.2037 -0.7583
15657TIP3    H268387   0.762   0.065   4.363 -0.9143  0.5800  0.6324
15658TIP3   OH268388   2.278   5.517  15.276  0.0313  0.4809 -0.3120
15658TIP3    H168389   2.305   5.449  15.215  1.0103  0.4788  0.1133
15658TIP3    H268390   2.360   5.551  15.313 -0.5448 -0.1903  1.7286
15659TIP3   OH268391   4.959   1.078   5.768 -0.2358  0.5313  0.0056
15659TIP3    H168392   4.983   1.086   5.860  0.6247 -1.8263  0.0557
15659TIP3    H268393   4.899   1.003   5.766 -0.8557  1.0442 -1.2555
15660TIP3   OH268394   1.513   6.401  14.775  0.4001  0.2536  0.0217
15660TIP3    H168395   1.462   6.385  14.695 -0.9709 -1.2224  1.1318
15660TIP3    H268396   1.506   6.495  14.789 -0.8191  0.2809 -0.6596
15661TIP3   OH268397   3.028   2.108  12.408 -0.9519 -0.1892  0.1192
15661TIP3    H168398   3.022   2.099  12.503  1.9927  2.3954  0.7244
15661TIP3    H268399   2.977   2.187  12.389 -0.8029 -0.1927 -0.2946
15662TIP3   OH268400   4.256   0.642  15.668 -0.0791 -0.1637 -0.3754
15662TIP3    H168401   4.331   0.687  15.630  0.1885 -0.0912  0.2283
15662TIP3    H268402   4.182   0.701  15.653 -0.2399 -0.6932 -1.9082
15663TIP3   OH268403   5.487   4.870   1.395 -0.4886  0.3775 -0.2581
15663TIP3    H168404   5.549   4.932   1.433 -0.8608  0.5128  0.1386
15663TIP3    H268405   5.528   4.841   1.314  1.1195 -1.1626  1.0296
15664TIP3   OH268406   3.631   1.477  16.504  0.1444 -0.0827 -0.3757
15664TIP3    H168407   3.604   1.413  16.570 -0.6160  0.0196 -0.5770
15664TIP3    H268408   3.699   1.433  16.454 -1.3697 -1.3023 -1.4442
15665TIP3   OH268409   5.485   6.559  11.227  0.1834 -0.2975 -0.3108
15665TIP3    H168410   5.438   6.487  11.185 -0.6416  0.0380  0.0079
15665TIP3    H268411   5.573   6.526  11.242 -0.6801 -1.9809  1.5921
15666TIP3   OH268412   6.182   3.422  12.009  0.0477  0.0671 -0.2985
15666TIP3    H168413   6.106   3.447  11.956 -0.0312  1.4272  0.3934
15666TIP3    H268414   6.248   3.487  11.987  0.4589 -0.1395  0.2990
15667TIP3   OH268415   3.373   6.223  11.780 -0.5820 -1.2385  0.0733
15667TIP3    H168416   3.350   6.183  11.864 -0.4082 -0.2661  0.5917
15667TIP3    H268417   3.415   6.152  11.731  0.7311 -1.4375  1.4047
15668TIP3   OH268418   0.256   4.569   6.381 -0.3120 -0.1383 -0.6148
15668TIP3    H168419   0.267   4.597   6.472 -1.3037 -1.2768 -0.1107
15668TIP3    H268420   0.301   4.636   6.329 -1.6717  1.7664  0.5637
15669TIP3   OH268421   5.488   4.345  16.321  0.6913 -0.1212 -0.2490
15669TIP3    H168422   5.538   4.406  16.268  1.5260 -0.1797  0.4376
15669TIP3    H268423   5.465   4.274  16.261 -1.6826  1.5540 -1.4721
15670TIP3   OH268424   1.784   6.736   4.396  0.1518  0.0851  0.2502
15670TIP3    H168425   1.863   6.790   4.396  0.6438 -0.5526 -1.7444
15670TIP3    H268426   1.779   6.701   4.308 -2.2338 -0.1276  0.4074
15671TIP3   OH268427   4.038   2.484   3.383 -0.4128  0.1618 -0.4699
15671TIP3    H168428   3.966   2.540   3.411 -0.6945 -0.0369 -0.7780
15671TIP3    H268429   4.116   2.539   3.387 -0.1803 -0.2476  2.1011
15672TIP3   OH268430   0.970   5.270   1.723 -0.1415 -0.5486  0.3261
15672TIP3    H168431   1.040   5.206   1.708  0.1695 -0.3873  1.0046
15672TIP3    H268432   0.979   5.332   1.651  0.4754 -0.4898  0.4427
15673TIP3   OH268433   3.330   2.272   2.400 -0.2481 -0.1643 -0.1911
15673TIP3    H168434   3.321   2.277   2.495  1.2025  1.6144 -0.0950
15673TIP3    H268435   3.417   2.308   2.382 -0.1994 -1.1328 -2.1500
15674TIP3   OH268436   4.037   4.462  11.568 -0.1779  0.3300 -0.3378
15674TIP3    H168437   4.108   4.457  11.631  0.0235  0.3387 -0.5617
15674TIP3    H268438   3.985   4.537  11.597 -0.4975 -0.1020  0.2310
15675TIP3   OH268439   2.272   1.747   1.826  0.2582 -0.0938 -0.0285
15675TIP3    H168440   2.345   1.686   1.813 -0.8323 -1.1796 -1.4037
15675TIP3    H268441   2.222   1.742   1.744  0.0245  2.5556 -0.1220
15676TIP3   OH268442   2.733   5.139  14.372 -0.6712  0.5164  0.2746
15676TIP3    H168443   2.658   5.086  14.345  0.9930 -1.8535 -0.0832
15676TIP3    H268444   2.750   5.112  14.462  0.2157  0.3730  0.0797
15677TIP3   OH268445   6.778   3.351   4.540  0.1161  0.0027  0.3729
15677TIP3    H168446   6.817   3.438   4.551  0.4063 -0.1787  0.7940
15677TIP3    H268447   6.830   3.294   4.596 -2.3728  0.2324  3.2291
15678TIP3   OH268448   5.596   5.973   2.151 -0.0458 -0.2458 -0.7694
15678TIP3    H168449   5.510   5.960   2.112  0.1422 -2.6667 -0.5125
15678TIP3    H268450   5.615   5.891   2.196  2.5472  0.0990 -1.0878
15679TIP3   OH268451   6.758   3.612  15.989 -0.1265  0.4300  0.4074
15679TIP3    H168452   6.739   3.532  15.940 -2.2331  0.7957  0.5435
15679TIP3    H268453   6.701   3.678  15.950  0.7754  1.6204  1.0323
15680TIP3   OH268454   2.264   6.335  13.754  0.0834 -0.6610  0.0075
15680TIP3    H168455   2.218   6.355  13.672  2.3157 -1.9633 -1.6893
15680TIP3    H268456   2.285   6.241  13.747 -0.0832 -0.9300  2.3281
15681TIP3   OH268457   2.820   0.516   1.043  0.3639 -0.3668 -0.5051
15681TIP3    H168458   2.882   0.458   0.999  0.4889 -0.7964  0.2160
15681TIP3    H268459   2.738   0.467   1.044 -0.1445  0.3969 -1.8938
15682TIP3   OH268460   2.604   2.964  12.780 -0.0991  0.0695  0.1132
15682TIP3    H168461   2.685   2.994  12.737  0.0144 -0.3737  0.0072
15682TIP3    H268462   2.634   2.925  12.862 -0.0793 -1.0831 -0.4187
15683TIP3   OH268463   6.056   2.338   5.202 -0.1251 -0.0026 -0.7072
15683TIP3    H168464   6.033   2.251   5.169 -0.8144 -0.3136  0.5329
15683TIP3    H268465   6.086   2.385   5.125 -1.0835 -0.8959 -1.6702
15684TIP3   OH268466   0.915   6.142  16.247  0.0071  0.3755 -0.0333
15684TIP3    H168467   0.982   6.123  16.181  2.0436 -0.1520  2.0676
15684TIP3    H268468   0.878   6.225  16.219  0.7175  0.1232 -1.8958
15685TIP3   OH268469   1.457   5.048  14.176  0.2784 -0.1132 -0.0882
15685TIP3    H168470   1.446   5.007  14.262 -3.1785  0.1029 -0.3065
15685TIP3    H268471   1.492   5.135  14.196 -1.2689  0.2455  1.2301
15686TIP3   OH268472   2.156   2.192   1.701  0.4052 -0.3643  0.2221
15686TIP3    H168473   2.090   2.202   1.632 -0.4542  0.2945  1.1254
15686TIP3    H268474   2.159   2.277   1.745  2.5372 -0.0782 -0.3624
15687TIP3   OH268475   2.314   1.644  11.759  0.5258  0.7304 -0.8021
15687TIP3    H168476   2.319   1.605  11.672  2.6433  1.7214 -1.1742
15687TIP3    H268477   2.228   1.618  11.792  0.5696 -1.5088 -2.2814
15688TIP3   OH268478   3.428   6.052  15.553  0.4210 -0.6101  0.4399
15688TIP3    H168479   3.456   6.106  15.478 -3.7487  1.1463 -0.1447
15688TIP3    H268480   3.496   6.066  15.619  1.1324  3.0527 -0.8089
15689TIP3   OH268481   3.973   4.757  15.583  0.4267 -0.3382  0.4171
15689TIP3    H168482   3.911   4.783  15.651 -0.8993  0.6736 -1.0876
15689TIP3    H268483   3.936   4.677  15.547 -0.5921  0.7703 -1.1150
15690TIP3   OH268484   4.428   4.935  13.015  0.0522 -0.1587 -0.0956
15690TIP3    H168485   4.336   4.946  12.991 -0.0701 -1.7778 -0.5191
15690TIP3    H268486   4.476   4.991  12.955 -0.6861  1.3670  0.6866
15691TIP3   OH268487   3.820   1.924   4.216 -0.4153  0.2170 -0.5689
15691TIP3    H168488   3.879   1.863   4.260 -2.5864 -2.2378 -0.8427
15691TIP3    H268489   3.776   1.872   4.149 -0.1071  2.8896 -3.0768
15692TIP3   OH268490   1.010   0.081  11.729  0.0005  0.1080 -0.1528
15692TIP3    H168491   0.932   0.136  11.727 -0.7094 -0.8516 -0.1221
15692TIP3    H268492   0.992   0.017  11.798  0.5341 -0.5209 -0.5779
15693TIP3   OH268493   3.312   5.444  14.307  0.0925 -0.1391  0.0395
15693TIP3    H168494   3.343   5.478  14.391  0.9793 -0.4488 -0.1513
15693TIP3    H268495   3.300   5.522  14.253  2.2567 -0.0883 -0.4465
15694TIP3   OH268496   6.345   2.381   1.612  0.3178  0.2722 -0.0444
15694TIP3    H168497   6.344   2.287   1.630 -0.7297  0.5661  1.6309
15694TIP3    H268498   6.438   2.402   1.602  0.5277 -1.0356 -1.0992
15695TIP3   OH268499   3.730   4.305  11.571  0.5753  0.6514 -0.3719
15695TIP3    H168500   3.702   4.392  11.597  1.9228  0.9877  0.0240
15695TIP3    H268501   3.664   4.246  11.607  1.0555  1.3020  1.6574
15696TIP3   OH268502   4.176   0.272  13.993 -0.1538 -0.0570 -0.0050
15696TIP3    H168503   4.141   0.309  13.911  0.7491 -0.5103 -0.6099
15696TIP3    H268504   4.238   0.206  13.964 -0.8409 -1.2069  1.0640
15697TIP3   OH268505   1.021   1.880   6.143 -0.4127 -0.1451 -0.1975
15697TIP3    H168506   1.001   1.960   6.191  0.7491  0.2536 -0.3487
15697TIP3    H268507   1.007   1.810   6.207 -2.6034  0.0293 -0.4000
15698TIP3   OH268508   0.366   2.878   5.658  0.2529  0.8245 -0.1650
15698TIP3    H168509   0.327   2.790   5.659  0.4695  0.6807  1.9094
15698TIP3    H268510   0.300   2.934   5.699  1.5493  0.8518  2.0587
15699TIP3   OH268511   4.546   3.474   2.360 -0.7304  0.0721 -0.4794
15699TIP3    H168512   4.633   3.514   2.359 -0.9217  0.5298  0.1855
15699TIP3    H268513   4.506   3.507   2.441 -0.6948 -1.8709  0.3962
15700TIP3   OH268514   0.858   1.886   0.128 -0.1903  0.0626 -0.1566
15700TIP3    H168515   0.889   1.890   0.219 -2.1601 -0.5868  0.6069
15700TIP3    H268516   0.768   1.853   0.135  0.0366 -1.2605 -2.4443
15701TIP3   OH268517   3.622   0.145  13.848  0.3261 -0.1318  0.0636
15701TIP3    H168518   3.534   0.183  13.844  0.2872 -0.0233  1.4512
15701TIP3    H268519   3.680   0.221  13.859  0.6570 -0.1658 -1.2747
15702TIP3   OH268520   5.116   0.643  16.773  0.4794 -0.0886  0.2202
15702TIP3    H168521   5.141   0.721  16.722 -0.0979 -0.0698 -0.0512
15702TIP3    H268522   5.122   0.672  16.864  0.3827  0.2391  0.1258
15703TIP3   OH268523   2.497   6.229   1.188 -0.0012  0.0971 -0.4446
15703TIP3    H168524   2.402   6.219   1.197  0.0730 -0.2150 -0.0205
15703TIP3    H268525   2.524   6.153   1.137 -0.1712  0.9322 -1.8447
15704TIP3   OH268526   4.563   4.038   1.793 -0.5546 -0.5396  0.0652
15704TIP3    H168527   4.517   4.059   1.875  0.2158 -0.9074  0.6021
15704TIP3    H268528   4.526   4.099   1.729 -1.8792 -0.9190  0.4465
15705TIP3   OH268529   4.622   2.559   2.344 -0.0010  0.1256  0.0810
15705TIP3    H168530   4.559   2.566   2.416 -0.1606 -1.3088  0.1097
15705TIP3    H268531   4.647   2.650   2.325 -0.3803  0.5693  1.5625
15706TIP3   OH268532   3.829   2.026  16.242 -0.0930 -0.0211 -0.3630
15706TIP3    H168533   3.884   2.104  16.234 -0.5723  0.1729 -2.3098
15706TIP3    H268534   3.750   2.057  16.286  0.6683  0.0454  1.0123
15707TIP3   OH268535   6.199   0.901   3.465 -0.0246  0.1450 -0.4522
15707TIP3    H168536   6.213   0.882   3.372  1.2934 -1.4513  0.0315
15707TIP3    H268537   6.107   0.926   3.470 -1.1137 -3.0753 -1.7556
15708TIP3   OH268538   0.517   2.709  16.707  0.0938 -0.0996  0.3144
15708TIP3    H168539   0.555   2.683  16.791 -0.0431  2.3133  1.2095
15708TIP3    H268540   0.422   2.710  16.723 -0.1574 -2.3294 -0.7477
15709TIP3   OH268541   4.958   5.876   0.769  0.6193 -0.1528  0.3973
15709TIP3    H168542   5.051   5.877   0.747  0.4681 -1.9510 -0.5308
15709TIP3    H268543   4.915   5.840   0.691 -0.8934  0.8580  0.7196
15710TIP3   OH268544   6.597   0.996   3.044 -0.8549  0.0093 -0.0412
15710TIP3    H168545   6.543   0.987   2.966 -1.1721 -1.3703  0.3063
15710TIP3    H268546   6.535   1.006   3.116 -0.6586 -0.9606  0.2851
15711TIP3   OH268547   5.093   0.875   1.823  0.6194 -0.0996  0.0537
15711TIP3    H168548   5.087   0.823   1.903 -1.3457  0.2744  0.2121
15711TIP3    H268549   5.095   0.966   1.853 -0.1308  0.0417 -0.3067
15712TIP3   OH268550   2.000   6.274  14.710  0.2661 -0.3732  0.1671
15712TIP3    H168551   2.073   6.281  14.650  0.9585 -1.2623  0.8825
15712TIP3    H268552   2.031   6.315  14.791 -0.1762 -0.3658  0.3368
15713TIP3   OH268553   4.040   0.885   2.108 -0.8148 -0.1099  0.1208
15713TIP3    H168554   3.976   0.816   2.126 -0.5633 -0.2888  0.3256
15713TIP3    H268555   4.005   0.931   2.031  0.2970 -2.0618 -1.6498
15714TIP3   OH268556   6.032   6.322  10.918 -0.1959 -0.1819  0.4900
15714TIP3    H168557   5.956   6.289  10.869  0.0874  0.4962 -0.4578
15714TIP3    H268558   6.023   6.417  10.912  1.1112 -0.0901 -0.2608
15715TIP3   OH268559   6.591   3.725  15.580 -0.3593  0.1311 -0.1258
15715TIP3    H168560   6.527   3.662  15.614  0.1759  0.2684  1.1929
15715TIP3    H268561   6.648   3.673  15.523 -0.9515 -0.2223 -0.3979
15716TIP3   OH268562   6.597   1.090   0.510 -0.0515  0.5865 -0.6044
15716TIP3    H168563   6.583   1.170   0.562 -0.9521  1.2054 -1.7510
15716TIP3    H268564   6.508   1.057   0.493  0.3247 -1.8254  1.5292
15717TIP3   OH268565   2.993   0.302   0.908  0.0824 -0.0720 -0.3545
15717TIP3    H168566   3.073   0.350   0.929  0.8971 -2.1732  1.9231
15717TIP3    H268567   2.991   0.230   0.972 -2.9592 -0.8757 -1.1786
15718TIP3   OH268568   4.420   0.241  13.685  0.5324 -0.1370  0.1523
15718TIP3    H168569   4.347   0.224  13.744  0.3286 -1.4365 -0.4524
15718TIP3    H268570   4.496   0.202  13.729  0.5925 -0.1043  0.0791
15719TIP3   OH268571   4.040   0.266  16.743 -0.6584  0.3796  0.1490
15719TIP3    H168572   3.981   0.202  16.782 -0.3186  0.4749  0.8324
15719TIP3    H268573   3.982   0.329  16.700 -1.0858  0.7294  1.2071
15720TIP3   OH268574   0.127   3.902   0.334 -0.2329  0.2033 -0.0404
15720TIP3    H168575   0.205   3.950   0.362  0.5011 -1.3158  0.6278
15720TIP3    H268576   0.137   3.895   0.239  1.6484 -1.8244  0.2087
15721TIP3   OH268577   0.833   5.799   2.126  0.0060  0.6467  0.8588
15721TIP3    H168578   0.795   5.770   2.043  2.5455  1.8223 -0.8398
15721TIP3    H268579   0.759   5.799   2.188 -1.5270 -2.3382 -0.7939
15722TIP3   OH268580   2.600   1.300  12.139  0.6468  0.5402 -0.2970
15722TIP3    H168581   2.569   1.389  12.121 -0.5121  0.3599  0.6983
15722TIP3    H268582   2.583   1.252  12.058  2.2006  1.4274 -1.2043
15723TIP3   OH268583   0.047   1.205   0.754  0.3197 -0.6831  0.2881
15723TIP3    H168584   0.103   1.277   0.784 -0.1603 -0.3968  0.4905
15723TIP3    H268585   0.102   1.158   0.690  0.5703 -0.0367  0.0144
15724TIP3   OH268586   0.976   1.998   1.599 -0.1627 -0.1487 -0.2110
15724TIP3    H168587   1.060   1.982   1.557  0.3723 -2.7027  1.6228
15724TIP3    H268588   0.912   1.989   1.529  0.9848  0.9403 -1.4565
15725TIP3   OH268589   2.808   0.935   5.642  0.1230  0.1556  0.3816
15725TIP3    H168590   2.812   0.994   5.717 -1.0242 -0.3290  0.8566
15725TIP3    H268591   2.721   0.895   5.648  0.0900 -0.0569 -1.0866
15726TIP3   OH268592   2.095   1.091  11.029 -0.1771 -0.2481  0.0644
15726TIP3    H168593   2.166   1.156  11.031  0.3110 -0.7719  0.0087
15726TIP3    H268594   2.016   1.142  11.012  0.3219  0.2347 -0.8793
15727TIP3   OH268595   3.312   4.645  16.040 -0.4113 -0.0006 -0.1667
15727TIP3    H168596   3.288   4.556  16.065  0.7825 -0.0356  0.9313
15727TIP3    H268597   3.243   4.700  16.078 -1.7633 -0.4888 -1.7710
15728TIP3   OH268598   1.130   6.316   1.896  0.8247  1.0291  1.2015
15728TIP3    H168599   1.040   6.292   1.916  0.6174 -0.6323 -1.1883
15728TIP3    H268600   1.183   6.257   1.948  0.3659 -1.2721 -0.7456
15729TIP3   OH268601   6.269   0.238   0.550  0.2850 -0.3429  0.0494
15729TIP3    H168602   6.301   0.152   0.523  0.2322 -0.6686  0.9817
15729TIP3    H268603   6.319   0.300   0.497 -1.8062 -0.9575 -2.9050
15730TIP3   OH268604   0.465   0.542   5.133 -0.0041 -0.1163  0.4089
15730TIP3    H168605   0.541   0.485   5.137  0.8690  0.9498 -0.2833
15730TIP3    H268606   0.499   0.625   5.099 -1.9043 -0.3437 -2.4036
15731TIP3   OH268607   2.943   3.028   2.535 -0.3688  0.6678 -0.2440
15731TIP3    H168608   2.950   2.998   2.444  0.0785  1.7349 -0.5771
15731TIP3    H268609   2.966   2.951   2.587  0.4625  0.3438 -1.0590
15732TIP3   OH268610   1.676   0.568   2.764 -0.2842 -0.0090  0.2248
15732TIP3    H168611   1.752   0.519   2.733 -0.4997 -0.7234  0.7978
15732TIP3    H268612   1.656   0.529   2.850 -1.9793 -0.6017 -0.3967
15733TIP3   OH268613   1.931   5.028   4.554  0.4543  0.4019  0.1772
15733TIP3    H168614   1.913   5.012   4.461  2.8284 -0.9257 -0.1491
15733TIP3    H268615   1.937   4.940   4.592  0.3804  0.9126  1.3962
15734TIP3   OH268616   2.361   5.864   0.087 -0.5673 -0.0861 -0.2268
15734TIP3    H168617   2.319   5.855   0.002  1.7438 -0.2859 -1.4319
15734TIP3    H268618   2.361   5.958   0.105 -2.6696 -0.1691  0.4868
15735TIP3   OH268619   6.221   5.508   4.288  0.1776  0.5080  0.2674
15735TIP3    H168620   6.143   5.502   4.233  1.0929 -0.8393 -0.9441
15735TIP3    H268621   6.191   5.555   4.366 -1.6095  0.8272 -0.5537
15736TIP3   OH268622   1.184   5.236  16.660 -0.0952  0.5412 -0.2169
15736TIP3    H168623   1.101   5.262  16.701  0.6939  0.7773  1.2950
15736TIP3    H268624   1.245   5.227  16.733  1.4427  1.1895 -1.3648
15737TIP3   OH268625   3.609   6.457  14.685 -0.4786  0.2296  0.3948
15737TIP3    H168626   3.653   6.378  14.717  0.2602 -1.1808 -3.5682
15737TIP3    H268627   3.527   6.426  14.648 -0.6389  1.4831 -0.3622
15738TIP3   OH268628   1.866   2.497   5.377  0.1062 -0.3369  0.3210
15738TIP3    H168629   1.890   2.528   5.289 -0.1938 -1.6231 -0.2520
15738TIP3    H268630   1.949   2.463   5.413  0.1210 -0.3111  0.3114
15739TIP3   OH268631   1.588   6.804   3.039  0.0669 -0.2884 -0.1067
15739TIP3    H168632   1.547   6.860   3.105 -0.3086  2.2462 -2.2962
15739TIP3    H268633   1.524   6.733   3.026 -1.8318  1.4022 -0.5912
15740TIP3   OH268634   6.728   5.374   1.957 -0.2505  0.0129  0.0905
15740TIP3    H168635   6.711   5.288   1.996 -0.7072 -0.3613 -0.8858
15740TIP3    H268636   6.806   5.361   1.903 -1.0254 -0.1356 -1.0376
15741TIP3   OH268637   3.382   6.269  11.381  0.5833  0.4789  0.0972
15741TIP3    H168638   3.399   6.315  11.463  0.0163  0.1459  0.4113
15741TIP3    H268639   3.288   6.280  11.367  0.8546  1.4910 -1.0982
15742TIP3   OH268640   6.722   4.360  14.723 -0.0436 -0.4429 -0.4688
15742TIP3    H168641   6.752   4.433  14.777 -1.0180 -1.0794  0.9900
15742TIP3    H268642   6.802   4.322  14.687  0.5746  0.4451 -0.0689
15743TIP3   OH268643   5.838   5.519  12.751  0.1034  0.4224  0.7358
15743TIP3    H168644   5.862   5.438  12.707  1.1663  0.8987  0.3996
15743TIP3    H268645   5.818   5.493  12.841  1.9340 -0.0329  1.0441
15744TIP3   OH268646   1.981   5.022  10.666  0.0491  0.4264 -0.0861
15744TIP3    H168647   1.898   5.022  10.619 -0.1387 -3.4716 -0.1260
15744TIP3    H268648   2.046   4.998  10.599  1.1204  2.4121  0.1634
15745TIP3   OH268649   0.054   4.212   0.990  0.2668  0.1841  0.1513
15745TIP3    H168650   0.004   4.180   0.915  0.2675 -1.1439  0.6996
15745TIP3    H268651  -0.007   4.211   1.063  0.4442  0.8726  0.3237
15746TIP3   OH268652   1.357   3.780  13.941 -0.3763  0.2470 -0.1126
15746TIP3    H168653   1.292   3.712  13.921 -0.5578 -0.2400  1.9429
15746TIP3    H268654   1.415   3.740  14.005  1.2065  1.1334 -0.9339
15747TIP3   OH268655   4.117   0.527  12.749  0.1830 -0.3371 -0.1857
15747TIP3    H168656   4.086   0.440  12.775  2.6040 -2.1673 -2.7999
15747TIP3    H268657   4.184   0.550  12.814 -1.5925  0.4535  1.4659
15748TIP3   OH268658   4.762   2.457   1.744  0.3084  0.2892  0.1712
15748TIP3    H168659   4.796   2.430   1.829  0.2094 -0.2588  0.0434
15748TIP3    H268660   4.840   2.465   1.689  0.3731  0.6435  0.3118
15749TIP3   OH268661   2.760   0.436   6.002  0.3928 -0.1756  0.8517
15749TIP3    H168662   2.829   0.371   6.017  0.2627 -0.1101  1.7318
15749TIP3    H268663   2.680   0.395   6.032  0.1433  0.0111  0.4587
15750TIP3   OH268664   4.114   0.667   5.821 -0.2249 -0.6976  0.4193
15750TIP3    H168665   4.171   0.685   5.895 -0.3841 -0.3127  0.4522
15750TIP3    H268666   4.094   0.574   5.828 -0.6617 -0.5606  1.1723
15751TIP3   OH268667   3.190   3.929   2.223  0.2973  0.1788  0.1519
15751TIP3    H168668   3.226   3.917   2.135 -2.2046  0.1579 -0.9498
15751TIP3    H268669   3.143   4.012   2.218 -0.4031 -0.1364  1.2863
15752TIP3   OH268670   3.720   5.314  13.858 -0.5825  0.2652  0.1861
15752TIP3    H168671   3.786   5.264  13.905 -0.4226  1.2172  0.9989
15752TIP3    H268672   3.763   5.396  13.835 -0.6578 -0.1652 -1.6577
15753TIP3   OH268673   6.262   1.661   5.931 -0.0821 -0.6559 -0.3886
15753TIP3    H168674   6.250   1.686   6.023 -0.8760 -1.3834 -0.2858
15753TIP3    H268675   6.311   1.734   5.893 -2.7274  1.3859 -0.2221
15754TIP3   OH268676   4.831   2.786   5.702 -0.2811  0.2710  0.4548
15754TIP3    H168677   4.856   2.778   5.794 -2.7237  2.3427  1.4419
15754TIP3    H268678   4.748   2.834   5.705 -0.7424 -0.1326 -2.8251
15755TIP3   OH268679   2.175   6.308  13.120 -0.7113 -0.2719  0.7320
15755TIP3    H168680   2.237   6.366  13.165 -1.2261 -0.7647  2.1425
15755TIP3    H268681   2.226   6.267  13.051 -0.9555  3.9505 -2.3343
15756TIP3   OH268682   1.360   4.373  12.102  0.2600 -0.0400  0.3773
15756TIP3    H168683   1.419   4.381  12.178 -0.2384 -0.3500  0.8059
15756TIP3    H268684   1.410   4.324  12.037  0.8948  0.6962  0.2905
15757TIP3   OH268685   2.638   2.017  11.485  0.4522  0.9760  0.3572
15757TIP3    H168686   2.594   1.941  11.523 -0.7548  1.7692  0.6127
15757TIP3    H268687   2.721   1.983  11.453 -0.1263 -0.4783  0.3228
15758TIP3   OH268688   4.427   4.731   4.314 -0.5362 -0.2634 -0.0150
15758TIP3    H168689   4.390   4.794   4.376  0.8923 -0.6921  1.3348
15758TIP3    H268690   4.499   4.778   4.272 -0.5995 -0.4275 -0.3068
15759TIP3   OH268691   4.216   3.994   3.201  0.5799 -0.9647  0.9801
15759TIP3    H168692   4.287   4.043   3.159 -0.0623 -0.6167  0.2959
15759TIP3    H268693   4.222   4.019   3.294  1.0489 -0.5614  0.8449
15760TIP3   OH268694   0.452   6.000   0.466  0.1819  0.0004  0.1241
15760TIP3    H168695   0.471   5.952   0.386  2.8287  0.6941  0.2335
15760TIP3    H268696   0.442   6.091   0.437 -1.5615 -0.0787  0.3210
15761TIP3   OH268697   0.138   0.982  11.885 -0.8290  0.3309 -0.2397
15761TIP3    H168698   0.194   0.938  11.822 -2.1740  0.8579 -1.8931
15761TIP3    H268699   0.052   0.940  11.874 -0.8049 -0.4806  2.2251
15762TIP3   OH268700   5.112   0.583   0.755  0.4871  0.7508  0.4647
15762TIP3    H168701   5.175   0.650   0.783 -0.2012  0.9145  1.6941
15762TIP3    H268702   5.156   0.500   0.773  0.9651  0.8502 -0.1766
15763TIP3   OH268703   6.352   2.766  11.909 -0.4104  0.1282 -0.2792
15763TIP3    H168704   6.369   2.859  11.894 -1.0428  0.7176  2.1582
15763TIP3    H268705   6.419   2.721  11.858 -0.1610  1.8900 -1.6205
15764TIP3   OH268706   6.429   1.065  16.451  0.4578 -0.1103  0.4006
15764TIP3    H168707   6.346   1.107  16.427  0.5465  0.3554  0.8912
15764TIP3    H268708   6.403   0.987  16.499  0.2961  0.0388  0.5604
15765TIP3   OH268709   2.236   4.479   1.327 -0.0897 -0.8615 -0.2150
15765TIP3    H168710   2.318   4.430   1.333  0.7939  0.3676 -1.6874
15765TIP3    H268711   2.252   4.546   1.260 -1.6925  0.6092  0.7885
15766TIP3   OH268712   2.947   4.394   6.248  0.7143 -0.4763 -0.0357
15766TIP3    H168713   3.009   4.421   6.315 -0.8126  0.3781  1.0736
15766TIP3    H268714   2.861   4.413   6.285 -0.2033 -0.8517 -1.8679
15767TIP3   OH268715   1.441   4.949   3.696  0.1700  0.2589 -0.2618
15767TIP3    H168716   1.351   4.966   3.722 -0.1877 -0.3427 -1.0670
15767TIP3    H268717   1.465   5.026   3.644 -0.1236  0.0975 -0.6416
15768TIP3   OH268718   3.311   4.231   5.511  0.0808 -0.0112  0.8648
15768TIP3    H168719   3.222   4.198   5.496 -1.2197  3.0580  1.0385
15768TIP3    H268720   3.330   4.207   5.601 -0.4485 -0.9499  0.7424
15769TIP3   OH268721   6.097   4.482  13.195 -0.1881  0.8168  0.2000
15769TIP3    H168722   6.101   4.537  13.117 -0.4348 -0.0332 -0.4258
15769TIP3    H268723   6.115   4.394  13.164 -0.5067  0.4278  1.0668
15770TIP3   OH268724   0.704   4.401   6.246 -0.6317 -0.2006  0.0377
15770TIP3    H168725   0.766   4.335   6.278 -1.7089 -0.7524  1.0511
15770TIP3    H268726   0.755   4.482   6.241  0.1467 -0.6245  0.9245
15771TIP3   OH268727   4.422   0.665  15.393  0.5296  0.1794  0.1592
15771TIP3    H168728   4.486   0.736  15.397  1.3654 -0.5642  0.3056
15771TIP3    H268729   4.354   0.697  15.334  1.6578  0.4961 -1.0190
15772TIP3   OH268730   5.134   0.181  10.896 -0.1421  0.6793  0.0427
15772TIP3    H168731   5.121   0.199  10.989  0.2630 -0.0312  0.2433
15772TIP3    H268732   5.219   0.219  10.875  0.5165 -0.5839  0.3639
15773TIP3   OH268733   5.193   0.912  13.327  0.8211 -0.0339 -0.1462
15773TIP3    H168734   5.186   1.007  13.315  0.3217  0.1095  1.0381
15773TIP3    H268735   5.272   0.887  13.280  1.1168  1.0252 -0.2433
15774TIP3   OH268736   4.432   6.360  15.885 -0.2473  0.1262  0.0504
15774TIP3    H168737   4.416   6.432  15.824 -0.6282 -0.1971 -0.2367
15774TIP3    H268738   4.404   6.394  15.970  1.0280  0.8675  0.2141
15775TIP3   OH268739   3.824   0.325  13.883 -0.0990 -0.3675  0.2428
15775TIP3    H168740   3.918   0.343  13.880  0.5506 -3.3346  0.0157
15775TIP3    H268741   3.790   0.355  13.799  0.7868  0.0386  0.0274
15776TIP3   OH268742   1.216   2.575   2.136  0.2989  0.0635  0.1448
15776TIP3    H168743   1.278   2.648   2.141 -0.6528  1.2133 -2.6642
15776TIP3    H268744   1.145   2.600   2.195  0.6239  0.7057  0.2735
15777TIP3   OH268745   5.531   3.869   2.485 -0.3377 -0.2680 -0.3602
15777TIP3    H168746   5.496   3.854   2.398 -0.9908 -0.7391 -0.0252
15777TIP3    H268747   5.502   3.794   2.537  0.3959 -0.2071  0.1613
15778TIP3   OH268748   5.993   0.229   3.895 -0.6095  0.0262  0.1984
15778TIP3    H168749   5.921   0.167   3.884  0.7041 -1.7492  1.0868
15778TIP3    H268750   6.072   0.179   3.873  0.4254  1.7355 -0.1831
15779TIP3   OH268751   6.686   6.137  10.820 -0.2246 -0.0474  0.2144
15779TIP3    H168752   6.671   6.209  10.759  0.1928 -0.0242  0.1330
15779TIP3    H268753   6.600   6.099  10.835 -0.8057  1.7765  1.9089
15780TIP3   OH268754   4.978   4.113   5.088  0.3455  0.0658 -0.0781
15780TIP3    H168755   4.928   4.046   5.134  1.7796 -0.2892  1.0228
15780TIP3    H268756   4.933   4.123   5.004 -1.0571 -0.8268  0.5302
15781TIP3   OH268757   1.873   3.696   5.342  0.2805 -0.0486  0.4401
15781TIP3    H168758   1.880   3.614   5.391  0.4998  0.7447  1.7836
15781TIP3    H268759   1.831   3.756   5.402 -1.6881  0.3180 -1.2077
15782TIP3   OH268760   0.387   5.339   4.333  0.3135 -0.1058  0.3057
15782TIP3    H168761   0.449   5.404   4.300 -0.8231  0.7749 -0.1736
15782TIP3    H268762   0.350   5.380   4.411 -0.3472 -0.1945  0.0471
15783TIP3   OH268763   3.879   4.639  11.917 -0.5222  0.3376 -0.4344
15783TIP3    H168764   3.910   4.614  11.829  0.9771 -3.5178  0.9624
15783TIP3    H268765   3.816   4.570  11.940 -1.3187  1.5944  1.3327
15784TIP3   OH268766   1.430   6.580   5.772 -0.1464  0.6069  0.1703
15784TIP3    H168767   1.348   6.605   5.814 -0.5123 -1.5424  0.8603
15784TIP3    H268768   1.417   6.598   5.679 -2.3486 -1.8864 -0.0949
15785TIP3   OH268769   3.073   3.745  12.305  0.1190  0.2832  0.2376
15785TIP3    H168770   3.134   3.675  12.282 -0.9953 -1.2324  1.5905
15785TIP3    H268771   3.109   3.783  12.385 -1.4852 -1.8521  2.1286
15786TIP3   OH268772   2.473   0.423  11.762  0.2718 -0.3976 -0.1865
15786TIP3    H168773   2.450   0.446  11.852 -0.5096 -0.3026 -0.4043
15786TIP3    H268774   2.451   0.501  11.711  3.0595  0.5460 -0.1544
15787TIP3   OH268775   2.755   2.510   4.064 -0.6897  0.0357  0.0830
15787TIP3    H168776   2.745   2.603   4.086  0.6025 -0.4091  3.0460
15787TIP3    H268777   2.808   2.474   4.135  2.2254 -2.1989 -2.8939
15788TIP3   OH268778   0.210   1.936   3.096 -0.3923  0.0329 -0.5607
15788TIP3    H168779   0.205   1.922   3.002  0.2372 -0.0767 -0.5770
15788TIP3    H268780   0.303   1.941   3.116 -0.4611 -1.2931  0.2394
15789TIP3   OH268781   5.077   5.246   4.273 -0.1785  0.1054  0.5056
15789TIP3    H168782   5.152   5.201   4.236 -0.3943 -0.1732  0.4065
15789TIP3    H268783   5.092   5.244   4.368 -0.2233 -0.2389  0.5059
15790TIP3   OH268784   5.189   0.789  15.904  0.1978  0.5108  0.2384
15790TIP3    H168785   5.103   0.787  15.862  0.3503 -1.4755 -0.1138
15790TIP3    H268786   5.250   0.803  15.832  0.2743 -0.0488  0.1867
15791TIP3   OH268787   3.103   4.956  15.688 -0.1094 -0.0566  0.2350
15791TIP3    H168788   3.192   4.983  15.663 -0.8544  2.5785  0.1424
15791TIP3    H268789   3.089   4.994  15.775 -1.4777  0.5206 -0.1972
15792TIP3   OH268790   4.152   3.878  14.405 -0.1328  0.0242  0.2668
15792TIP3    H168791   4.243   3.900  14.423  0.3129  1.3026 -2.8710
15792TIP3    H268792   4.107   3.962  14.399 -1.2793 -0.5406  0.6753
15793TIP3   OH268793   2.225   4.863   1.661 -0.7457 -0.2989 -0.3006
15793TIP3    H168794   2.218   4.930   1.594  1.3401  0.2011 -0.0783
15793TIP3    H268795   2.159   4.887   1.726 -0.6102  1.0620 -0.6378
15794TIP3   OH268796   5.355   2.405  15.402  0.2597 -0.5349  0.2378
15794TIP3    H168797   5.435   2.403  15.349  0.6028  1.0660  0.6665
15794TIP3    H268798   5.302   2.335  15.365  1.6846 -1.3817 -0.3174
15795TIP3   OH268799   0.012   4.218   3.857  0.4053 -0.0100  0.3693
15795TIP3    H168800   0.027   4.157   3.785  0.9295 -1.7939  1.8863
15795TIP3    H268801  -0.017   4.162   3.929 -0.4701  1.7412  1.4480
15796TIP3   OH268802   4.411   0.912   5.289  0.5449 -0.4892 -0.0953
15796TIP3    H168803   4.365   0.995   5.303  1.4209  0.0172 -0.1786
15796TIP3    H268804   4.502   0.931   5.311  0.4954 -1.8491  1.4987
15797TIP3   OH268805   5.102   3.424   5.056 -0.6032 -0.3199  0.3438
15797TIP3    H168806   5.197   3.416   5.071  0.3303  3.0947 -2.2860
15797TIP3    H268807   5.064   3.426   5.144  1.8576 -1.0772  1.5171
15798TIP3   OH268808   3.496   3.869   2.421 -0.1886 -0.0469  0.1267
15798TIP3    H168809   3.537   3.949   2.388 -1.5676 -0.4587 -2.8968
15798TIP3    H268810   3.568   3.806   2.428  0.5093  0.7389  0.0899
15799TIP3   OH268811   6.454   4.952  13.743 -0.0238 -0.3499 -0.7821
15799TIP3    H168812   6.507   4.983  13.669 -0.1876 -1.0912 -1.2200
15799TIP3    H268813   6.383   4.902  13.702 -1.3161  0.9797 -0.2226
15800TIP3   OH268814   1.528   6.136   3.548 -0.2304 -0.2458 -0.1528
15800TIP3    H168815   1.617   6.127   3.514 -1.2512 -0.7832 -2.9959
15800TIP3    H268816   1.484   6.055   3.521 -2.0444  0.7810 -0.4272
15801TIP3   OH268817   3.005   1.740   1.578 -0.3351  0.6513  0.3273
15801TIP3    H168818   2.987   1.695   1.496 -0.6927  0.4490  0.5121
15801TIP3    H268819   2.953   1.820   1.573  0.2580  1.0258  0.0220
15802TIP3   OH268820   2.631   3.614   2.575 -0.0257 -0.0678  0.3245
15802TIP3    H168821   2.566   3.685   2.571  2.2362  2.1875  0.9718
15802TIP3    H268822   2.658   3.611   2.666  1.7365  0.0123 -0.1528
15803TIP3   OH268823   4.172   4.367   2.505 -0.6036  0.0218  0.5001
15803TIP3    H168824   4.185   4.443   2.561  0.1034  0.5064 -0.2905
15803TIP3    H268825   4.196   4.292   2.559  2.6253  0.6388  0.1497
15804TIP3   OH268826   6.377   4.125  16.222 -0.4312 -0.1476  0.0276
15804TIP3    H168827   6.444   4.078  16.172  0.0387 -1.1608  1.5378
15804TIP3    H268828   6.425   4.196  16.265 -0.9170  1.0125 -1.2532
15805TIP3   OH268829   2.248   5.055   5.423  0.3286  0.1591  0.2067
15805TIP3    H168830   2.245   4.996   5.498  0.8303  0.0536  0.1472
15805TIP3    H268831   2.157   5.081   5.409  0.2060  0.0043  0.7125
15806TIP3   OH268832   4.113   0.069   4.016 -0.1902  0.1101  0.0158
15806TIP3    H168833   4.125   0.017   3.936  0.3122  0.3350 -0.0577
15806TIP3    H268834   4.039   0.126   3.997 -0.1228  0.1064 -0.2633
15807TIP3   OH268835   2.334   1.397   0.190  0.0290 -0.4581  0.1489
15807TIP3    H168836   2.295   1.311   0.206 -0.5352 -0.3997 -0.8159
15807TIP3    H268837   2.274   1.439   0.128 -1.0355  1.5764  2.3584
15808TIP3   OH268838   3.921   0.291   2.834 -0.0284 -0.1356 -0.0865
15808TIP3    H168839   3.844   0.298   2.890 -0.8668 -1.0655 -1.0640
15808TIP3    H268840   3.996   0.303   2.893 -0.8414 -1.6815  1.3405
15809TIP3   OH268841   1.973   5.654   4.840  0.2662 -0.2703  0.0983
15809TIP3    H168842   1.959   5.652   4.745 -0.8005  0.3256  0.2200
15809TIP3    H268843   2.048   5.711   4.853 -0.7613  1.2360 -0.2981
15810TIP3   OH268844   4.730   5.530   3.379  0.5081  0.0126 -0.4258
15810TIP3    H168845   4.812   5.574   3.355  0.9022 -0.0518  0.7348
15810TIP3    H268846   4.758   5.454   3.430 -0.3077  0.6370  0.9970
15811TIP3   OH268847   5.804   3.186   4.321 -0.3547  0.1402 -0.0733
15811TIP3    H168848   5.829   3.246   4.391 -2.0758  0.8330  0.0192
15811TIP3    H268849   5.801   3.242   4.242  1.0879 -0.5259 -0.6305
15812TIP3   OH268850   5.471   2.846  15.665 -0.2693 -0.4978 -0.5740
15812TIP3    H168851   5.540   2.781  15.652 -0.0885 -0.1058 -1.6980
15812TIP3    H268852   5.469   2.896  15.583  0.2675  1.5795  0.5936
15813TIP3   OH268853   4.572   4.641  11.934  0.9801  0.0200 -0.9744
15813TIP3    H168854   4.520   4.576  11.983  1.1409 -0.7984 -1.8673
15813TIP3    H268855   4.560   4.722  11.983 -2.0917  0.1634 -1.7203
15814TIP3   OH268856   2.467   1.233  13.503  0.2800 -0.1723 -0.1127
15814TIP3    H168857   2.468   1.329  13.504 -0.0308 -0.1231 -1.7328
15814TIP3    H268858   2.546   1.209  13.552  0.6686  0.9283 -0.1512
15815TIP3   OH268859   6.278   0.039   5.071  0.1797 -0.0796  0.7499
15815TIP3    H168860   6.356   0.064   5.021  0.5953 -1.0768  0.8771
15815TIP3    H268861   6.277   0.098   5.146  1.7953 -1.1767  1.6786
15816TIP3   OH268862   2.370   5.446  13.199 -0.3626  0.0007 -0.3874
15816TIP3    H168863   2.397   5.401  13.119 -2.2201 -1.4998 -0.2252
15816TIP3    H268864   2.376   5.539  13.177 -0.9237 -0.3760 -2.3137
15817TIP3   OH268865   4.920   6.785  13.231  0.0528 -0.2514  0.5565
15817TIP3    H168866   4.841   6.798  13.284 -0.9660 -0.2836 -0.8962
15817TIP3    H268867   4.891   6.729  13.158  1.3253  0.0641 -0.2245
15818TIP3   OH268868   4.565   1.735   5.431 -0.0083  0.4705 -0.2745
15818TIP3    H168869   4.643   1.747   5.376 -0.2924  1.6761 -0.4460
15818TIP3    H268870   4.498   1.702   5.370 -0.1100  1.0857 -0.5036
15819TIP3   OH268871   6.357   2.264  16.433  0.0796  0.2113  0.0929
15819TIP3    H168872   6.374   2.345  16.480 -0.1919  0.1374  0.3212
15819TIP3    H268873   6.374   2.285  16.341 -0.1433  0.5697  0.1320
15820TIP3   OH268874   3.675   4.078   2.311 -0.0475 -0.2486 -0.3007
15820TIP3    H168875   3.733   4.130   2.366  1.2361 -0.3627 -1.4927
15820TIP3    H268876   3.690   4.112   2.222 -0.4181 -1.5492 -0.8785
15821TIP3   OH268877   1.009   4.361   3.196 -0.3809  0.6613 -0.6185
15821TIP3    H168878   0.986   4.286   3.140  1.3326 -0.8445  0.5494
15821TIP3    H268879   0.991   4.331   3.285 -1.1180  2.2522 -0.1976
15822TIP3   OH268880   4.726   3.184   1.836 -0.3939 -0.1349  0.2336
15822TIP3    H168881   4.739   3.249   1.768  0.3324 -0.6546 -0.1464
15822TIP3    H268882   4.683   3.110   1.792 -2.8209  0.7074  1.0225
15823TIP3   OH268883   4.015   6.367  11.229 -0.1919  0.0274  0.2277
15823TIP3    H168884   4.024   6.345  11.137 -0.3296  1.0053 -0.0289
15823TIP3    H268885   4.058   6.296  11.276  1.8673  0.6405 -0.6556
15824TIP3   OH268886   4.271   1.593  11.797 -0.8254 -0.4872 -0.4144
15824TIP3    H168887   4.301   1.519  11.850 -0.0776  0.1626  0.0956
15824TIP3    H268888   4.347   1.650  11.789 -1.7775  0.9993  0.5517
15825TIP3   OH268889   1.061   4.599  16.153  0.3170  0.1142  0.4070
15825TIP3    H168890   1.046   4.693  16.145 -1.0230  0.0129  1.3294
15825TIP3    H268891   1.134   4.581  16.094 -0.1203  1.5433 -0.6159
15826TIP3   OH268892   1.362   2.589  11.849 -0.5095 -0.0202  0.6390
15826TIP3    H168893   1.451   2.556  11.850  0.3618  1.6263 -3.4199
15826TIP3    H268894   1.364   2.665  11.908  1.4486  1.2075 -0.8802
15827TIP3   OH268895   5.496   6.551  11.522 -0.4591  0.2832  0.1325
15827TIP3    H168896   5.486   6.458  11.504  2.4204 -0.3450  1.2962
15827TIP3    H268897   5.477   6.594  11.438 -1.8268 -1.2953 -0.4250
15828TIP3   OH268898   1.619   6.782  11.546 -0.1422  0.3600  0.1794
15828TIP3    H168899   1.695   6.824  11.507 -0.7193  0.0751 -1.2887
15828TIP3    H268900   1.603   6.705  11.492 -1.2941  0.2453  0.6562
15829TIP3   OH268901   1.595   5.734   4.494 -0.1151 -0.4931 -0.1015
15829TIP3    H168902   1.619   5.765   4.407  0.9598 -0.3827  0.2194
15829TIP3    H268903   1.564   5.645   4.480 -3.6146  0.6869 -1.1004
15830TIP3   OH268904   5.005   2.727  14.888  0.3020 -0.4750 -0.4655
15830TIP3    H168905   4.914   2.697  14.893 -0.1661  1.0813  2.0606
15830TIP3    H268906   5.013   2.765  14.801 -2.0682  1.0180 -0.1060
15831TIP3   OH268907   1.640   0.690   5.852 -0.5308 -0.1618  0.2146
15831TIP3    H168908   1.678   0.663   5.935  0.9374 -1.5547 -0.8368
15831TIP3    H268909   1.583   0.617   5.827 -0.5788  0.0227 -0.2304
15832TIP3   OH268910   1.902   5.382   3.105 -0.5629 -0.5829  0.3997
15832TIP3    H168911   1.906   5.309   3.166  0.3756  1.0795  2.4185
15832TIP3    H268912   1.825   5.433   3.133 -0.3705 -0.0239 -0.0667
15833TIP3   OH268913   3.572   0.580  15.957 -0.1494  0.5422 -0.3324
15833TIP3    H168914   3.558   0.602  16.049 -1.4234  0.7173 -0.5482
15833TIP3    H268915   3.484   0.564  15.923  0.3394  0.1413 -1.4367
15834TIP3   OH268916   1.564   6.779  14.027  0.3869 -0.3611  0.6038
15834TIP3    H168917   1.484   6.822  13.994  1.2295  1.4235  0.7717
15834TIP3    H268918   1.534   6.694  14.057 -1.4431  0.1981  0.5221
15835TIP3   OH268919   4.770   3.857  16.965  0.5747  0.1994  0.4017
15835TIP3    H168920   4.822   3.868  17.044  2.3625  1.2589 -0.8394
15835TIP3    H268921   4.767   3.944  16.926 -1.9827  0.1168  0.2874
15836TIP3   OH268922   3.823   4.470   4.655 -0.0079 -0.0516  0.5213
15836TIP3    H168923   3.816   4.485   4.561  0.2904 -0.8173  0.3691
15836TIP3    H268924   3.887   4.399   4.663  1.9869  1.7259  1.4315
15837TIP3   OH268925   5.366   6.797  11.312 -0.5889  0.0627 -0.3669
15837TIP3    H168926   5.396   6.728  11.254 -0.0308  1.1802 -1.4476
15837TIP3    H268927   5.305   6.848  11.259 -1.3998  0.1092  0.5819
15838TIP3   OH268928   5.253   5.268   2.284 -0.1834 -0.3720  0.6108
15838TIP3    H168929   5.231   5.322   2.360  0.7547 -0.8175  1.2112
15838TIP3    H268930   5.326   5.213   2.313  1.2568  0.5278 -1.0612
15839TIP3   OH268931   0.823   2.987   5.479 -0.0250  0.0682  0.6928
15839TIP3    H168932   0.863   3.051   5.420  0.9855 -0.8560  0.3465
15839TIP3    H268933   0.892   2.964   5.541 -0.4366 -0.5243  0.9471
15840TIP3   OH268934   0.526   6.271  15.357 -0.0266 -0.2650 -0.3481
15840TIP3    H168935   0.496   6.224  15.435  0.7071  1.3583  0.9895
15840TIP3    H268936   0.446   6.307  15.318 -0.4305 -1.3412 -0.5379
15841TIP3   OH268937   1.135   5.038   4.181 -0.0613  0.1531 -0.1144
15841TIP3    H168938   1.127   4.963   4.240  0.4187 -0.0914 -0.3495
15841TIP3    H268939   1.215   5.082   4.209 -0.1954  0.4210 -0.1516
15842TIP3   OH268940   3.145   6.710   1.652 -0.2336  0.0142  0.1915
15842TIP3    H168941   3.238   6.727   1.635 -0.0370 -1.6845 -0.6021
15842TIP3    H268942   3.129   6.751   1.737  0.9470  1.2917 -0.1552
15843TIP3   OH268943   1.779   0.881   5.191  0.1469  0.1669  0.3804
15843TIP3    H168944   1.795   0.854   5.100 -3.1098  0.1397 -0.2997
15843TIP3    H268945   1.867   0.894   5.227  1.5950 -0.0224 -2.6837
15844TIP3   OH268946   6.030   4.234   1.355  0.1735  0.1468 -0.2183
15844TIP3    H168947   5.939   4.251   1.331  0.2977 -0.0133 -0.8257
15844TIP3    H268948   6.070   4.320   1.360  0.0969  0.1962 -0.4203
15845TIP3   OH268949   6.536   5.130   4.897 -0.3282 -0.1407 -0.2788
15845TIP3    H168950   6.514   5.048   4.852  0.7852  0.8985 -2.8611
15845TIP3    H268951   6.459   5.185   4.888  0.2941  0.5077 -2.1257
15846TIP3   OH268952   2.881   1.511   5.167 -0.1791  0.6833  0.0514
15846TIP3    H168953   2.872   1.416   5.161  0.6192  0.6152 -0.2144
15846TIP3    H268954   2.824   1.546   5.098 -0.9550  0.4333  0.5517
15847TIP3   OH268955   3.091   4.132  14.999  0.3749 -0.2724 -0.4156
15847TIP3    H168956   3.137   4.211  15.027 -0.0577 -0.1570 -0.0151
15847TIP3    H268957   3.058   4.153  14.912 -0.4744  0.3038  0.0379
15848TIP3   OH268958   2.701   6.444  11.530  0.7497  0.7573  0.2162
15848TIP3    H168959   2.765   6.447  11.601 -0.4420 -1.6821  1.5259
15848TIP3    H268960   2.616   6.454  11.574 -0.1785 -2.8961 -0.4330
15849TIP3   OH268961   4.958   4.491  11.781  0.1403  0.2578  0.6304
15849TIP3    H168962   4.900   4.553  11.735  0.8576  0.6844  0.2874
15849TIP3    H268963   4.960   4.523  11.871 -0.2107  0.2038  0.6592
15850TIP3   OH268964   5.129   4.470  15.194  0.5381 -0.0454  0.4164
15850TIP3    H168965   5.040   4.445  15.170  1.0140 -0.4446 -1.0329
15850TIP3    H268966   5.130   4.468  15.290 -1.0172  0.0335  0.4560
15851TIP3   OH268967   5.100   4.620  11.518  0.3683 -0.2813 -0.1013
15851TIP3    H168968   5.070   4.593  11.431  1.6412  1.9755 -1.3614
15851TIP3    H268969   5.051   4.701  11.536 -0.5631 -1.1975  1.7589
15852TIP3   OH268970   1.493   4.786   2.431 -0.3791 -0.5437  0.2312
15852TIP3    H168971   1.520   4.714   2.374 -0.0891 -1.3374  1.3399
15852TIP3    H268972   1.425   4.832   2.381  1.6261  0.3859 -1.8600
15853TIP3   OH268973   2.578   4.838   2.173 -0.1930  0.7493  0.0808
15853TIP3    H168974   2.530   4.914   2.204 -0.1550  0.8744 -0.1622
15853TIP3    H268975   2.664   4.845   2.213 -0.5325  0.2530  0.9280
15854TIP3   OH268976   2.681   4.146   2.580  0.0763  0.4387  0.5696
15854TIP3    H168977   2.673   4.240   2.599 -2.9040 -0.0269  2.2694
15854TIP3    H268978   2.720   4.110   2.660  3.0082  0.3283 -0.7738
15855TIP3   OH268979   2.157   2.372   4.265  0.6764  0.2907  0.5874
15855TIP3    H168980   2.066   2.363   4.295  0.1629  3.7359  0.4828
15855TIP3    H268981   2.182   2.283   4.238 -2.8097 -0.7163  0.1581
15856TIP3   OH268982   4.575   0.287  12.685 -0.0245 -0.4332 -0.0962
15856TIP3    H168983   4.510   0.221  12.660  0.5251 -0.7156 -0.7852
15856TIP3    H268984   4.606   0.323  12.602  0.1512  0.2408  0.2530
15857TIP3   OH268985   5.258   6.517  14.459 -0.3251  0.3190 -0.0769
15857TIP3    H168986   5.195   6.446  14.446 -0.6976  0.7527 -0.6898
15857TIP3    H268987   5.219   6.570  14.528 -1.5987  1.6162 -1.6920
15858TIP3   OH268988   1.948   1.091   0.664  0.5067 -0.7706 -0.2322
15858TIP3    H168989   1.994   1.162   0.620 -0.1256  0.9936  1.7582
15858TIP3    H268990   1.946   1.117   0.756 -4.3152 -0.6480 -0.0859
15859TIP3   OH268991   4.512   4.391   0.986  0.0975  0.6239 -0.2994
15859TIP3    H168992   4.606   4.403   0.975  0.1042 -0.4206 -1.6668
15859TIP3    H268993   4.474   4.472   0.953  0.5293  1.4173  1.0934
15860TIP3   OH268994   5.777   1.215   1.445  0.2997  0.6449 -0.0128
15860TIP3    H168995   5.753   1.127   1.476  0.0630  0.4486 -0.7406
15860TIP3    H268996   5.808   1.201   1.356 -0.8326  1.4518 -0.5545
15861TIP3   OH268997   0.895   3.668  12.439 -0.3303 -0.5550 -0.1336
15861TIP3    H168998   0.885   3.761  12.457  1.7486 -0.3151  0.0044
15861TIP3    H268999   0.933   3.664  12.351 -0.5041 -1.2924 -0.1874
15862TIP3   OH269000   0.164   0.206  10.920  0.3140 -1.0126  0.6231
15862TIP3    H169001   0.252   0.241  10.918  0.5173 -1.4817 -2.0583
15862TIP3    H269002   0.146   0.179  10.830 -3.1216  0.4051  0.7124
15863TIP3   OH269003   0.249   2.050  16.952  0.4450  0.5157  0.2732
15863TIP3    H169004   0.311   2.122  16.943  0.5968  0.5080  1.1633
15863TIP3    H269005   0.230   2.046  17.046  0.0446 -0.2757  0.1700
15864TIP3   OH269006   4.901   4.729  16.711 -0.5704 -0.2497 -0.1849
15864TIP3    H169007   4.856   4.695  16.789  0.5896 -1.5484 -0.0467
15864TIP3    H269008   4.993   4.706  16.725  0.0508  1.7223 -0.7946
15865TIP3   OH269009   4.323   1.522  14.743 -0.4384 -0.3612  0.1510
15865TIP3    H169010   4.269   1.446  14.720 -0.1751  0.3511 -3.3322
15865TIP3    H269011   4.282   1.596  14.698  2.4382  0.4979 -1.2971
15866TIP3   OH269012   6.512   3.336  15.182  0.1036 -0.0873  0.3736
15866TIP3    H169013   6.561   3.326  15.263 -0.1867 -1.3983  0.3999
15866TIP3    H269014   6.558   3.280  15.119  0.5162  1.1567 -0.4636
15867TIP3   OH269015   1.924   4.687   5.686 -0.8891  0.1619  0.0791
15867TIP3    H169016   1.906   4.678   5.780 -1.3575 -0.2901 -0.0540
15867TIP3    H269017   1.991   4.755   5.682 -0.0886 -0.5427  0.8269
15868TIP3   OH269018   4.799   4.704   3.108  0.2287  0.8309 -0.2021
15868TIP3    H169019   4.739   4.768   3.146  0.3122  0.7323  0.1011
15868TIP3    H269020   4.760   4.681   3.023 -0.4745  0.3303  0.2479
15869TIP3   OH269021   0.441   3.392   4.764  0.6071 -0.2580  0.1552
15869TIP3    H169022   0.408   3.430   4.845 -1.2693 -0.7437 -0.3420
15869TIP3    H269023   0.507   3.329   4.793 -2.2822 -2.8563  1.6671
15870TIP3   OH269024   2.725   6.051  14.224 -0.2287 -0.2149  0.0941
15870TIP3    H169025   2.716   6.071  14.317 -2.1911 -0.7509  0.0665
15870TIP3    H269026   2.723   5.955  14.220 -0.8101 -0.1898 -0.5239
15871TIP3   OH269027   6.719   2.910  11.794  0.3593 -0.2068  0.3124
15871TIP3    H169028   6.676   2.984  11.752  0.5561  0.8090  1.8151
15871TIP3    H269029   6.803   2.902  11.749 -0.6068 -1.0884 -1.4606
15872TIP3   OH269030   2.649   2.389  14.512 -0.7253  0.7677  0.2721
15872TIP3    H169031   2.596   2.309  14.509 -0.1209  0.3863 -1.3520
15872TIP3    H269032   2.585   2.460  14.499 -1.0200  0.3966 -0.3793
15873TIP3   OH269033   1.216   2.215  14.289 -0.1623  0.2291 -0.0377
15873TIP3    H169034   1.227   2.184  14.379  0.2905  0.7482  0.0964
15873TIP3    H269035   1.122   2.215  14.275 -0.3370  1.4617  0.9262
15874TIP3   OH269036   3.539   5.863  16.434  0.2980 -0.1601 -0.5270
15874TIP3    H169037   3.584   5.781  16.454 -2.0577 -1.4911 -0.3083
15874TIP3    H269038   3.594   5.905  16.367  1.3724 -2.0981 -0.9299
15875TIP3   OH269039   2.796   3.384  15.133  0.1990  0.3271 -0.0352
15875TIP3    H169040   2.781   3.334  15.052  1.7807 -0.5157  0.1437
15875TIP3    H269041   2.837   3.465  15.103 -2.1789  1.5342 -0.3063
15876TIP3   OH269042   6.093   5.672   0.461  0.2003 -0.1494 -0.2474
15876TIP3    H169043   6.154   5.611   0.420  0.3122  0.7006 -1.3754
15876TIP3    H269044   6.023   5.684   0.397 -0.0925  0.4969  0.1766
15877TIP3   OH269045   5.357   2.323   3.486  0.9730 -0.6015  0.4445
15877TIP3    H169046   5.271   2.284   3.501  0.9205  0.2716  2.7482
15877TIP3    H269047   5.359   2.341   3.392 -1.4651 -0.3746  0.3755
15878TIP3   OH269048   0.314   3.670  13.095  0.6055 -0.4606  0.5625
15878TIP3    H169049   0.366   3.687  13.174 -0.9197 -0.9700  1.7245
15878TIP3    H269050   0.256   3.599  13.120  0.8288 -1.3779 -1.4008
15879TIP3   OH269051   0.395   4.516   4.372 -0.1660  0.2727  0.2501
15879TIP3    H169052   0.429   4.426   4.372  1.6052  0.8826 -0.8590
15879TIP3    H269053   0.448   4.562   4.437 -0.5534  0.6935  0.2772
15880TIP3   OH269054   6.319   1.290  14.025 -0.3799  0.5920  0.0534
15880TIP3    H169055   6.368   1.372  14.020 -0.2945  0.4996 -0.8378
15880TIP3    H269056   6.380   1.228  14.066 -0.3627  0.9114  0.5107
15881TIP3   OH269057   5.136   1.298   5.935 -0.1618  0.2137  0.5413
15881TIP3    H169058   5.145   1.316   6.029  0.6717 -3.2701  1.2744
15881TIP3    H269059   5.071   1.228   5.930  0.0588  0.0911 -1.4762
15882TIP3   OH269060   5.513   2.719  14.043  0.6914  0.0782 -0.2740
15882TIP3    H169061   5.544   2.671  14.120 -3.3782 -0.6439  1.1298
15882TIP3    H269062   5.532   2.811  14.064 -1.9770  0.1295  2.6564
15883TIP3   OH269063   4.137   0.391   5.857 -0.9256  0.2274  0.1274
15883TIP3    H169064   4.168   0.381   5.947  0.9049  2.6136 -0.1620
15883TIP3    H269065   4.181   0.321   5.808  0.2005  0.5997  0.6015
15884TIP3   OH269066   4.847   5.610  14.886 -0.2702  0.1511  0.7411
15884TIP3    H169067   4.896   5.539  14.844  0.1051  0.2629  0.9918
15884TIP3    H269068   4.758   5.602  14.850 -0.3544 -0.7381  1.1129
15885TIP3   OH269069   1.983   4.245  12.905  0.4330 -0.1683 -0.2805
15885TIP3    H169070   1.974   4.253  12.810 -0.0994  0.8447 -0.1609
15885TIP3    H269071   2.003   4.334  12.934 -2.7756  0.2757  0.8953
15886TIP3   OH269072   4.525   1.845   3.832 -0.3935  0.1416  0.7993
15886TIP3    H169073   4.597   1.788   3.806 -0.1257  0.7727  0.1557
15886TIP3    H269074   4.565   1.915   3.883 -0.7438 -0.3110  1.7268
15887TIP3   OH269075   3.197   6.744  11.044  0.2526  0.7997  0.2100
15887TIP3    H169076   3.231   6.816  11.098 -0.6635  0.5014  1.2108
15887TIP3    H269077   3.144   6.787  10.977 -1.2372  1.0279  1.4900
15888TIP3   OH269078   0.573   2.265  16.911  0.2233  0.4415  0.2633
15888TIP3    H169079   0.499   2.316  16.944  0.0053  0.5236 -0.3356
15888TIP3    H269080   0.579   2.289  16.818 -0.2121 -1.0045 -0.1645
15889TIP3   OH269081   2.843   0.227   4.451 -0.3155 -0.2797  0.1604
15889TIP3    H169082   2.930   0.214   4.415  0.5142  0.4379  1.7556
15889TIP3    H269083   2.786   0.243   4.375  1.2131  0.6424 -0.8359
15890TIP3   OH269084   5.656   4.441  14.051 -0.4096 -0.3230 -0.7496
15890TIP3    H169085   5.719   4.375  14.081  0.5795  0.6217 -0.7044
15890TIP3    H269086   5.646   4.423  13.957  0.9517  0.3216 -1.0431
15891TIP3   OH269087   4.316   2.283  13.809  1.1373  0.2395 -0.7178
15891TIP3    H169088   4.289   2.203  13.766 -0.8291 -0.2800  1.2875
15891TIP3    H269089   4.384   2.256  13.871  0.9657  0.2383 -0.5285
15892TIP3   OH269090   5.291   1.072   6.046 -0.2357  0.0596  0.3856
15892TIP3    H169091   5.200   1.082   6.019 -0.3744  0.4618  0.9821
15892TIP3    H269092   5.303   1.137   6.115  0.3875 -0.2668  0.5965
15893TIP3   OH269093   1.793   1.065   3.476 -0.0505 -0.1488 -0.6693
15893TIP3    H169094   1.722   1.007   3.450  0.2359 -0.0728 -1.6496
15893TIP3    H269095   1.758   1.114   3.551 -0.7474 -0.6655 -0.6498
15894TIP3   OH269096   6.540   4.427   3.463  0.0694  0.3348  0.7166
15894TIP3    H169097   6.611   4.435   3.400 -0.9103  2.1590 -0.2475
15894TIP3    H269098   6.579   4.452   3.547  0.7087  0.7216  0.3122
15895TIP3   OH269099   0.158   2.985  12.686  0.2707  0.3316  0.2940
15895TIP3    H169100   0.231   3.037  12.653 -0.0517  0.6508  0.0777
15895TIP3    H269101   0.083   3.045  12.685 -0.9312 -0.9481 -3.1504
15896TIP3   OH269102   3.311   6.790  15.936  0.3019 -0.2345  0.0667
15896TIP3    H169103   3.312   6.858  15.868  0.2909 -1.0945 -0.8053
15896TIP3    H269104   3.398   6.751  15.932 -0.3995 -1.8076 -1.0471
15897TIP3   OH269105   2.928   1.532   0.711  0.1843  0.4524  0.3575
15897TIP3    H169106   2.969   1.615   0.734  0.3721  0.4947 -0.1109
15897TIP3    H269107   2.904   1.542   0.619 -1.1225  0.5210  0.6771
15898TIP3   OH269108   5.982   5.054  14.632  0.4555 -0.2114  0.0170
15898TIP3    H169109   6.051   5.117  14.610 -0.3651  0.9242  0.6239
15898TIP3    H269110   5.987   5.046  14.727 -1.6415  1.5776  0.3415
15899TIP3   OH269111   5.413   4.228   4.206 -0.5198 -0.2020 -0.2414
15899TIP3    H169112   5.452   4.315   4.218 -0.9333 -0.0657  0.1459
15899TIP3    H269113   5.489   4.170   4.193 -0.2803  0.3183 -1.2351
15900TIP3   OH269114   0.748   0.205  15.300  0.1052 -0.0997 -0.3111
15900TIP3    H169115   0.815   0.271  15.281  0.1445 -0.7327 -2.6834
15900TIP3    H269116   0.666   0.254  15.304  0.2958  0.2769 -0.8396
15901TIP3   OH269117   1.529   6.648  16.535 -0.0839  0.4751  0.0706
15901TIP3    H169118   1.564   6.693  16.611  1.3254  0.6127 -0.6276
15901TIP3    H269119   1.508   6.718  16.473 -0.1078  0.2998 -0.1198
15902TIP3   OH269120   0.759   5.167   2.984  0.2416  0.5181  0.0760
15902TIP3    H169121   0.730   5.173   3.075  1.6168  0.8584  0.5183
15902TIP3    H269122   0.852   5.190   2.987  0.5158 -0.2975 -1.2984
15903TIP3   OH269123   4.126   5.698  15.551  0.4051 -0.4107 -0.1118
15903TIP3    H169124   4.181   5.759  15.601  2.7482 -2.5857  0.2000
15903TIP3    H269125   4.084   5.644  15.618 -0.6852  0.0154 -0.4216
15904TIP3   OH269126   6.103   0.470   2.265 -0.0086 -0.2922  0.1960
15904TIP3    H169127   6.039   0.411   2.304 -0.4114  1.5204  2.5370
15904TIP3    H269128   6.104   0.547   2.323  0.8016  1.8316 -2.3966
15905TIP3   OH269129   1.236   4.649   1.763 -0.4441  0.5721 -0.0409
15905TIP3    H169130   1.229   4.743   1.745  0.1598  0.7000  0.3763
15905TIP3    H269131   1.328   4.629   1.749 -0.4018  0.2220  0.7304
15906TIP3   OH269132   3.830   2.712   4.605 -0.2153 -0.2573 -0.1520
15906TIP3    H169133   3.902   2.762   4.644 -3.7880  4.6318  1.1207
15906TIP3    H269134   3.805   2.649   4.673  0.6561  0.4507  0.8664
15907TIP3   OH269135   6.350   2.765   5.762 -0.0816  0.6296  0.4133
15907TIP3    H169136   6.334   2.707   5.687  2.5431 -0.7696  0.8235
15907TIP3    H269137   6.268   2.813   5.772 -1.4466 -1.0450 -1.6782
15908TIP3   OH269138   1.854   6.456   3.310  0.8947 -0.0906  0.7184
15908TIP3    H169139   1.796   6.532   3.298  1.2861  0.0315 -0.4619
15908TIP3    H269140   1.935   6.493   3.344  1.7009  0.2754 -1.4840
15909TIP3   OH269141   3.371   4.620  12.096 -0.5277  0.7390  0.0107
15909TIP3    H169142   3.301   4.611  12.160 -0.4057 -2.3610 -0.1666
15909TIP3    H269143   3.449   4.640  12.148 -1.0531  1.7496  0.4415
15910TIP3   OH269144   1.210   6.421  16.159 -0.8312 -0.0583 -0.2037
15910TIP3    H169145   1.202   6.373  16.077 -0.5459  1.9451 -1.4836
15910TIP3    H269146   1.130   6.474  16.164  0.1764  1.5626 -0.4218
15911TIP3   OH269147   4.319   4.283  17.047 -0.5701  1.3327  0.0829
15911TIP3    H169148   4.409   4.279  17.014 -0.0899 -2.1353  1.3871
15911TIP3    H269149   4.264   4.278  16.968  0.4824 -0.4972 -0.5914
15912TIP3   OH269150   4.588   1.188   5.739  0.0346 -0.1035  0.1340
15912TIP3    H169151   4.503   1.195   5.695  0.3957 -2.5130 -1.1117
15912TIP3    H269152   4.566   1.157   5.827 -0.4113 -0.3578 -0.0614
15913TIP3   OH269153   1.840   3.970  15.254 -0.6566  0.1703  0.1405
15913TIP3    H169154   1.854   3.936  15.166  1.4033  0.8888  0.1213
15913TIP3    H269155   1.747   3.990  15.258 -1.0509 -1.1588 -1.3889
15914TIP3   OH269156   6.796   5.490  12.478  0.3988  0.4537  0.0991
15914TIP3    H169157   6.848   5.421  12.436 -1.2066 -0.6370 -0.2000
15914TIP3    H269158   6.858   5.562  12.492  0.8928  1.4753 -5.2351
15915TIP3   OH269159   3.752   4.978  13.600 -0.5454 -0.2762  0.1155
15915TIP3    H169160   3.762   4.968  13.695 -0.3506 -2.0031 -0.0569
15915TIP3    H269161   3.842   4.980  13.567 -0.5902  1.2026  0.0169
15916TIP3   OH269162   2.154   2.065   5.006 -0.3176 -0.1083 -0.2400
15916TIP3    H169163   2.133   2.135   4.943 -2.0420 -0.0878  0.3179
15916TIP3    H269164   2.115   2.094   5.088  0.6971 -0.8089  0.5118
15917TIP3   OH269165   2.631   1.706   5.097 -0.8128 -0.5550 -0.4407
15917TIP3    H169166   2.557   1.645   5.094 -1.5843  0.3841 -2.0271
15917TIP3    H269167   2.679   1.690   5.016 -0.7358  0.5502 -0.6339
15918TIP3   OH269168   5.884   5.640  11.289 -0.2807 -0.1282  0.4174
15918TIP3    H169169   5.832   5.569  11.250  0.2245 -0.0866 -0.3521
15918TIP3    H269170   5.847   5.720  11.251 -0.6179  0.0068  1.0140
15919TIP3   OH269171   4.005   5.260  13.009  0.1541 -0.1035  0.2630
15919TIP3    H169172   3.991   5.353  13.023  1.2731 -0.0509  1.2399
15919TIP3    H269173   4.085   5.255  12.957  0.8519 -0.5297  1.3488
15920TIP3   OH269174   1.287   2.733  12.743  0.1287 -0.4666  0.1025
15920TIP3    H169175   1.320   2.689  12.665  0.7035 -0.5891  0.4067
15920TIP3    H269176   1.196   2.754  12.722 -0.3485 -2.3109  0.1600
15921TIP3   OH269177   6.072   5.479  10.212  0.2343 -0.2725  0.1464
15921TIP3    H169178   5.988   5.441  10.184  1.0327 -3.2797  1.4131
15921TIP3    H269179   6.071   5.472  10.308  1.6840  0.2448  0.2231
15922TIP3   OH269180   1.068   3.593   4.171  0.3283  0.0287 -0.4639
15922TIP3    H169181   0.978   3.622   4.157  0.3427  0.4313  0.1975
15922TIP3    H269182   1.105   3.659   4.229  0.9988 -0.2265 -0.5955
15923TIP3   OH269183   4.490   3.153   5.588  0.3640 -0.2913  0.0723
15923TIP3    H169184   4.502   3.181   5.498 -0.8510 -0.0974 -0.0508
15923TIP3    H269185   4.404   3.110   5.588 -0.5611  1.4249  1.5145
15924TIP3   OH269186   3.752   2.996   0.323  0.6690 -0.2611  0.1994
15924TIP3    H169187   3.796   3.075   0.354  0.4919 -0.0332 -0.1320
15924TIP3    H269188   3.707   2.962   0.401  1.8125 -0.7626  0.6637
15925TIP3   OH269189   3.181   2.967   6.359  0.3267 -0.2012 -0.6541
15925TIP3    H169190   3.257   2.911   6.342  1.3579  0.7002  0.8051
15925TIP3    H269191   3.109   2.905   6.372  1.3077 -1.1840  0.2990
15926TIP3   OH269192   2.172   2.866  15.820 -0.2719  0.1420  0.2532
15926TIP3    H169193   2.138   2.953  15.801 -0.2831  0.1519  0.3183
15926TIP3    H269194   2.231   2.879  15.894 -0.7370 -0.0018  0.6521
15927TIP3   OH269195   2.802   0.451  14.466  0.1581  0.1902 -0.8760
15927TIP3    H169196   2.877   0.494  14.508  0.3483  0.8640 -1.8768
15927TIP3    H269197   2.841   0.383  14.411 -0.0610 -0.3807 -0.3321
15928TIP3   OH269198   0.531   1.041   2.593  0.5579  0.0579  0.2009
15928TIP3    H169199   0.462   0.975   2.600 -0.6975  1.2056 -0.7735
15928TIP3    H269200   0.536   1.080   2.680  0.4350 -0.4701  0.4526
15929TIP3   OH269201   5.582   4.903  13.180 -0.2179  0.1571  0.4177
15929TIP3    H169202   5.503   4.936  13.137  0.0473  0.3489  0.0657
15929TIP3    H269203   5.629   4.856  13.110 -0.5838 -0.9594  0.9064
15930TIP3   OH269204   4.857   2.098  12.389 -0.5254  0.2645  0.2602
15930TIP3    H169205   4.918   2.137  12.327  1.0296 -1.6772  0.4621
15930TIP3    H269206   4.910   2.080  12.467 -1.4234 -1.1190  0.5830
15931TIP3   OH269207   2.238   0.928  15.542  0.4697  0.5019 -0.0528
15931TIP3    H169208   2.168   0.876  15.582 -0.1876  1.3433 -0.0519
15931TIP3    H269209   2.283   0.967  15.617  1.5191 -0.7366 -0.0183
15932TIP3   OH269210   2.673   5.537   0.607 -0.5109 -0.5240  0.0104
15932TIP3    H169211   2.668   5.471   0.677  0.8717 -1.3307 -0.5923
15932TIP3    H269212   2.762   5.573   0.616 -0.0530 -1.1408 -1.7309
15933TIP3   OH269213   6.516   3.722   5.330  0.0727 -0.4998  0.0968
15933TIP3    H169214   6.435   3.756   5.292 -0.1250 -0.9780  0.0756
15933TIP3    H269215   6.491   3.693   5.418  0.3780 -0.0068  0.3496
15934TIP3   OH269216   0.414   1.096  13.708  0.3107 -0.1663 -0.0231
15934TIP3    H169217   0.404   1.144  13.625 -0.4371 -1.1489 -0.5216
15934TIP3    H269218   0.485   1.141  13.753  0.8460  0.2816 -1.2712
15935TIP3   OH269219   1.844   0.313   5.644 -0.5910  0.3204 -0.6407
15935TIP3    H169220   1.930   0.271   5.653 -0.1656  0.4348 -3.2248
15935TIP3    H269221   1.864   0.406   5.633 -1.2259  0.6401  0.7287
15936TIP3   OH269222   5.277   3.760  12.698 -0.1212  0.2089  0.6015
15936TIP3    H169223   5.232   3.675  12.699  0.7260 -0.2667  0.0143
15936TIP3    H269224   5.333   3.756  12.620  1.2285  0.6100  1.5111
15937TIP3   OH269225   2.122   4.334  15.933 -0.2692  0.2867  0.2577
15937TIP3    H169226   2.080   4.392  15.870  1.5208 -0.1375 -1.4401
15937TIP3    H269227   2.118   4.247  15.892  0.5531 -0.0786  0.9151
15938TIP3   OH269228   4.229   1.697   2.413  0.0125 -0.1756 -0.5683
15938TIP3    H169229   4.290   1.771   2.415  0.1587 -0.2967  2.1121
15938TIP3    H269230   4.173   1.716   2.337  0.4493  2.3321 -0.3770
15939TIP3   OH269231   5.277   3.122   3.967 -0.2853 -0.3323 -0.4581
15939TIP3    H169232   5.332   3.097   3.892  0.1204  1.8657 -0.9755
15939TIP3    H269233   5.219   3.048   3.980  1.1479 -1.7067 -1.5060
15940TIP3   OH269234   2.670   5.278  12.033 -0.1527  0.0896 -0.2285
15940TIP3    H169235   2.615   5.326  12.094 -0.5701 -1.0233  0.3097
15940TIP3    H269236   2.712   5.345  11.979 -1.2622  1.0002  0.0185
15941TIP3   OH269237   5.470   1.166   4.553  0.0051  0.2222  0.3789
15941TIP3    H169238   5.496   1.102   4.486 -1.9736  0.7825 -0.9960
15941TIP3    H269239   5.511   1.248   4.525 -0.5468  0.3818  0.0294
15942TIP3   OH269240   2.866   5.962  11.567  0.1189  0.3169  0.1378
15942TIP3    H169241   2.800   6.028  11.545  1.8172  1.5431 -1.5632
15942TIP3    H269242   2.883   5.916  11.485 -0.3457 -1.6745  1.0924
15943TIP3   OH269243   2.011   6.060  11.394  0.5004  0.8783  0.4067
15943TIP3    H169244   1.949   5.987  11.393  1.6996 -0.2119  1.4133
15943TIP3    H269245   2.043   6.066  11.304  0.3819  0.1444  0.3103
15944TIP3   OH269246   5.358   0.899  13.795 -0.0985 -0.1581  0.4582
15944TIP3    H169247   5.301   0.902  13.718  1.6449  0.2961 -0.8994
15944TIP3    H269248   5.376   0.806  13.807 -0.7529 -0.2689  0.6328
15945TIP3   OH269249   6.093   4.514   1.337  0.7594 -0.0638 -1.0215
15945TIP3    H169250   6.082   4.572   1.413 -1.5224 -0.0083 -1.3116
15945TIP3    H269251   6.171   4.547   1.293  0.7078  1.4877 -0.0494
15946TIP3   OH269252   3.766   6.353   1.596 -0.5077  0.1782  0.3200
15946TIP3    H169253   3.802   6.306   1.671 -0.1160 -0.7133 -0.4101
15946TIP3    H269254   3.828   6.337   1.525 -0.9485  0.8809 -0.2461
15947TIP3   OH269255   1.321   6.285  15.471 -0.1128  0.0786  0.3943
15947TIP3    H169256   1.402   6.239  15.495 -0.1609 -0.2548 -0.0557
15947TIP3    H269257   1.320   6.282  15.375 -0.2256  0.8403  0.3706
15948TIP3   OH269258   2.743   0.483   0.617 -0.6838 -0.4343  0.1906
15948TIP3    H169259   2.694   0.561   0.593  0.4682 -0.2958 -1.9179
15948TIP3    H269260   2.804   0.513   0.685 -0.7480  0.3328 -0.0815
15949TIP3   OH269261   4.984   4.785   2.130 -0.1486 -0.4908  0.4972
15949TIP3    H169262   4.999   4.716   2.195 -1.8493 -2.3374 -0.9216
15949TIP3    H269263   5.069   4.800   2.090  0.6856 -0.1618  2.3112
15950TIP3   OH269264   4.773   0.200   1.350 -0.0173 -0.8079 -0.5018
15950TIP3    H169265   4.731   0.156   1.276  0.0744 -0.4658 -0.7574
15950TIP3    H269266   4.851   0.242   1.312 -0.2493 -0.1949 -0.3118
15951TIP3   OH269267   5.692   1.490   5.298 -0.3510  0.2739 -0.1856
15951TIP3    H169268   5.786   1.474   5.307 -0.4981 -1.4041 -1.2260
15951TIP3    H269269   5.675   1.563   5.357  1.5243  0.3424  0.3492
15952TIP3   OH269270   0.656   3.911  16.198 -0.1909  0.3258 -0.3903
15952TIP3    H169271   0.577   3.920  16.145 -0.9871  0.4054  0.7483
15952TIP3    H269272   0.665   3.996  16.242  1.0510  0.6171 -1.1763
15953TIP3   OH269273   4.494   1.527   2.006  0.1060  0.0306  0.2615
15953TIP3    H169274   4.405   1.504   1.979 -0.5678  1.3964  1.1669
15953TIP3    H269275   4.508   1.478   2.086  0.5327 -0.8732 -0.3511
15954TIP3   OH269276   2.865   0.096   1.298  0.0103 -0.7401  0.0591
15954TIP3    H169277   2.935   0.107   1.234  1.4675  0.8710  1.7752
15954TIP3    H269278   2.909   0.104   1.383 -2.0549 -1.1531  1.2407
15955TIP3   OH269279   3.784   0.276   5.883 -0.2550 -0.4878 -0.2936
15955TIP3    H169280   3.776   0.239   5.970  0.8611  0.5767  0.2996
15955TIP3    H269281   3.744   0.211   5.825  2.5651 -3.1831  0.5257
15956TIP3   OH269282   1.588   4.185   3.296  0.2323  0.0847 -0.3332
15956TIP3    H169283   1.556   4.267   3.259 -0.0783  1.5335  2.9088
15956TIP3    H269284   1.594   4.126   3.220  0.1007  2.9199 -2.7119
15957TIP3   OH269285   3.117   0.006   3.429  0.4513  0.4948 -0.2153
15957TIP3    H169286   3.089  -0.082   3.455  1.8425  0.1848  0.3020
15957TIP3    H269287   3.042   0.062   3.449 -0.8452 -0.6975 -1.4972
15958TIP3   OH269288   2.006   5.228  13.759 -0.5142 -0.5157 -0.2430
15958TIP3    H169289   2.101   5.224  13.765 -0.5372 -0.0951  0.6288
15958TIP3    H269290   1.978   5.259  13.845 -1.4497 -0.7725 -0.4379
15959TIP3   OH269291   3.116   4.780   2.424  0.1401 -0.2683 -0.2294
15959TIP3    H169292   3.158   4.818   2.348  0.0429 -1.7967 -1.0886
15959TIP3    H269293   3.069   4.704   2.391  0.2478 -1.0908  1.3717
15960TIP3   OH269294   1.191   5.672   2.577 -0.3803  0.6193 -0.4501
15960TIP3    H169295   1.266   5.731   2.570 -1.1048  1.9896  2.0623
15960TIP3    H269296   1.123   5.715   2.526 -0.0799  0.4596 -0.9930
15961TIP3   OH269297   4.554   6.752  14.971 -0.1658  0.7661  0.6381
15961TIP3    H169298   4.473   6.758  15.023 -0.1883  3.6886  0.4222
15961TIP3    H269299   4.623   6.739  15.036 -0.7056 -1.3856  0.8527
15962TIP3   OH269300   0.858   5.764  16.616  0.3322  0.3502 -0.3662
15962TIP3    H169301   0.890   5.776  16.527  0.7877  0.7134 -0.1594
15962TIP3    H269302   0.848   5.669  16.626 -0.6655  0.3694 -1.1187
15963TIP3   OH269303   6.291   2.687   5.506  0.2504  0.2489  0.3746
15963TIP3    H169304   6.311   2.699   5.413 -0.2289 -2.2199 -0.1169
15963TIP3    H269305   6.196   2.675   5.509  0.1535  1.1292  1.3114
15964TIP3   OH269306   1.255   5.319  14.051  0.4452 -0.6958 -0.6130
15964TIP3    H169307   1.283   5.402  14.012  1.9473  0.0174  1.7217
15964TIP3    H269308   1.305   5.252  14.004  0.6026 -0.0997 -1.3194
15965TIP3   OH269309   3.478   5.988  12.229 -0.2376  0.0347  0.2874
15965TIP3    H169310   3.507   5.932  12.157  1.5134  2.7527 -1.2845
15965TIP3    H269311   3.397   6.028  12.197 -1.1226 -1.0362  1.1306
15966TIP3   OH269312   4.778   6.394  16.440  0.5968  0.6387 -0.1524
15966TIP3    H169313   4.798   6.457  16.509  0.1791  0.7170 -0.0998
15966TIP3    H269314   4.831   6.422  16.366  0.6114  0.8951 -0.0468
15967TIP3   OH269315   4.491   0.337   1.328 -0.1389 -0.0725  0.1073
15967TIP3    H169316   4.517   0.413   1.380  1.5677 -0.5580  0.0459
15967TIP3    H269317   4.546   0.266   1.362  0.1861 -0.6632 -1.5679
15968TIP3   OH269318   4.981   5.371   2.669  0.0058  0.2645 -0.5173
15968TIP3    H169319   4.894   5.398   2.638 -0.1379 -0.4260 -0.7342
15968TIP3    H269320   4.975   5.275   2.677  0.6273  0.2500 -0.1571
15969TIP3   OH269321   3.417   4.564  14.289  0.4348  0.5883  0.2771
15969TIP3    H169322   3.458   4.566  14.375  1.4661 -1.4434 -0.0985
15969TIP3    H269323   3.347   4.499  14.297 -0.2709  1.2796 -0.1072
15970TIP3   OH269324   0.200   6.024  13.576 -0.0110 -0.1201 -0.3296
15970TIP3    H169325   0.255   6.025  13.498  1.5840  1.4763  0.7385
15970TIP3    H269326   0.199   5.932  13.603 -0.2360 -0.6317 -1.9236
15971TIP3   OH269327   0.436   5.631  16.443 -0.1803  0.6556 -0.2099
15971TIP3    H169328   0.500   5.675  16.386  0.2333 -0.3343 -0.5435
15971TIP3    H269329   0.353   5.672  16.422  0.0818  0.7948 -1.0277
15972TIP3   OH269330   1.212   1.952   5.887  0.6433  0.2020 -0.1178
15972TIP3    H169331   1.138   1.920   5.836  0.7157  0.6668 -0.5231
15972TIP3    H269332   1.173   2.010   5.953  0.4991 -0.7981  0.7025
15973TIP3   OH269333   3.511   3.933  16.233 -0.1945  0.3240  0.1897
15973TIP3    H169334   3.585   3.930  16.294  0.5708 -1.3208 -0.7665
15973TIP3    H269335   3.435   3.911  16.288 -0.0087  1.9583  1.1663
15974TIP3   OH269336   1.866   0.347  16.968 -0.3160 -0.3922 -0.2492
15974TIP3    H169337   1.949   0.305  16.947  0.0113  0.6362 -1.1240
15974TIP3    H269338   1.803   0.276  16.974  0.6107 -1.1800  0.3849
15975TIP3   OH269339   5.660   0.133   2.819 -0.0654 -0.3402 -0.2691
15975TIP3    H169340   5.693   0.130   2.909 -1.6349 -0.9703  0.3240
15975TIP3    H269341   5.615   0.217   2.814  0.1920 -0.2165 -0.5461
15976TIP3   OH269342   3.019   0.457   0.080  0.2554 -0.0581  0.0809
15976TIP3    H169343   2.964   0.535   0.071  1.3510  0.7894  0.5005
15976TIP3    H269344   3.051   0.461   0.170  0.1358 -1.1443  0.1856
15977TIP3   OH269345   1.764   3.021  12.365  0.4219 -0.5789  0.3358
15977TIP3    H169346   1.853   3.053  12.350  1.1756 -0.8812  3.3614
15977TIP3    H269347   1.775   2.949  12.427 -1.9707 -0.2321  1.2789
15978TIP3   OH269348   5.104   3.811   4.290  0.1108 -0.0429 -0.4877
15978TIP3    H169349   5.175   3.770   4.241  0.4752 -1.2105  0.9201
15978TIP3    H269350   5.141   3.894   4.320  0.8906 -0.6135  0.1852
15979TIP3   OH269351   4.162   0.219  15.900 -0.0437  0.5009 -0.1305
15979TIP3    H169352   4.133   0.161  15.829  0.3976 -2.7278  2.1135
15979TIP3    H269353   4.230   0.273  15.860 -1.6300  0.7070 -2.7807
15980TIP3   OH269354   6.029   5.026  16.501 -0.7581  0.2778 -0.0426
15980TIP3    H169355   5.965   4.955  16.490 -2.2829  1.5496  0.3067
15980TIP3    H269356   5.983   5.104  16.471  1.2063  1.0186 -1.2974
15981TIP3   OH269357   3.102   1.881   1.064  0.0324 -0.0634 -0.0239
15981TIP3    H169358   3.127   1.900   0.974 -0.3199  0.5025 -0.0133
15981TIP3    H269359   3.008   1.897   1.066 -0.7369 -3.7294 -0.4732
15982TIP3   OH269360   3.486   1.100  15.502 -0.4166 -0.5854 -0.3337
15982TIP3    H169361   3.475   1.117  15.596 -1.3732 -1.1685 -0.3250
15982TIP3    H269362   3.491   1.187  15.463 -1.8660 -0.2770  0.0722
15983TIP3   OH269363   0.402   5.505   4.535  0.3272 -0.1870 -0.4421
15983TIP3    H169364   0.385   5.599   4.535 -2.1254 -0.5675 -0.7118
15983TIP3    H269365   0.441   5.488   4.621 -0.4319  0.9013  0.1451
15984TIP3   OH269366   4.616   1.110   1.663 -0.5296  0.2552  0.5703
15984TIP3    H169367   4.677   1.171   1.702 -0.3067  0.2536  0.2304
15984TIP3    H269368   4.579   1.062   1.737 -0.3354  0.4560  0.7987
15985TIP3   OH269369   1.743   6.473  15.035  0.3934 -0.7061  0.4656
15985TIP3    H169370   1.668   6.452  14.979 -1.4440  2.0991  1.6722
15985TIP3    H269371   1.719   6.438  15.121  0.7728 -0.3306  0.7281
15986TIP3   OH269372   0.254   0.583   0.753  0.6867 -0.0073  0.0926
15986TIP3    H169373   0.295   0.516   0.807  0.2611  0.0951  0.5411
15986TIP3    H269374   0.183   0.537   0.707  1.5352 -0.2828 -0.9999
15987TIP3   OH269375   0.420   0.551   3.492  0.0273  0.3970  0.0487
15987TIP3    H169376   0.399   0.569   3.401 -0.2251  0.7739  0.1764
15987TIP3    H269377   0.380   0.466   3.510  0.8991 -0.1318 -0.4534
15988TIP3   OH269378   4.556   4.534   4.080  0.4723  0.1316 -0.4913
15988TIP3    H169379   4.566   4.458   4.022 -0.5506  0.0366 -0.5587
15988TIP3    H269380   4.462   4.539   4.097  0.9048 -1.2989  3.1234
15989TIP3   OH269381   5.392   1.726   5.740  0.4077 -0.4384 -0.2633
15989TIP3    H169382   5.487   1.731   5.754  0.5583 -0.7011 -1.1806
15989TIP3    H269383   5.381   1.727   5.645 -0.6252  1.4693 -0.1791
15990TIP3   OH269384   1.527   3.034  10.658  0.4571  0.2571  0.1240
15990TIP3    H169385   1.598   3.023  10.595  0.6398 -0.0083  0.3785
15990TIP3    H269386   1.447   3.023  10.605  0.6094  0.0665 -0.0696
15991TIP3   OH269387   4.896   1.505  14.578 -0.2550 -0.0027 -0.5342
15991TIP3    H169388   4.876   1.560  14.502 -0.5563 -1.3070 -1.4260
15991TIP3    H269389   4.811   1.466  14.601  0.2584 -1.4485 -1.0183
15992TIP3   OH269390   6.542   3.616  13.022 -0.1239  0.0414 -0.4978
15992TIP3    H169391   6.459   3.571  13.038 -0.9693  1.6870 -0.1366
15992TIP3    H269392   6.602   3.546  12.994 -0.9881 -1.5413  1.4162
15993TIP3   OH269393   1.187   3.607  15.639  0.7388  0.0904  0.0327
15993TIP3    H169394   1.226   3.629  15.724  1.6630 -2.3466  0.3385
15993TIP3    H269395   1.255   3.630  15.576  0.9149 -0.0422  0.1690
15994TIP3   OH269396   2.871   0.348  15.412 -0.2832 -0.2318  0.0755
15994TIP3    H169397   2.902   0.311  15.330  1.8840  1.7808 -0.1370
15994TIP3    H269398   2.948   0.346  15.470 -0.8371  1.2919  0.9393
15995TIP3   OH269399   5.815   4.545  10.869 -0.0518 -0.1868 -0.7837
15995TIP3    H169400   5.811   4.581  10.780  0.3809  1.3826 -0.1955
15995TIP3    H269401   5.781   4.456  10.860 -1.6530  0.5222 -2.2193
15996TIP3   OH269402   2.151   4.146  12.352  0.0805 -0.5030 -0.3215
15996TIP3    H169403   2.146   4.085  12.425 -1.6875 -1.1960 -0.9736
15996TIP3    H269404   2.066   4.140  12.309 -0.1911  2.4801 -0.3905
15997TIP3   OH269405   2.796   1.172   4.493  0.3259 -0.5379  0.0569
15997TIP3    H169406   2.720   1.139   4.541 -1.2576  2.0605 -0.4784
15997TIP3    H269407   2.867   1.171   4.557 -1.1665  0.7464  1.8332
15998TIP3   OH269408   3.399   6.077   6.179 -0.2130 -0.3512 -0.7774
15998TIP3    H169409   3.471   6.087   6.116  0.9203 -0.0951  0.4959
15998TIP3    H269410   3.437   6.024   6.249 -1.2506 -0.1249 -0.0255
15999TIP3   OH269411   3.075   2.212  16.492  0.1545  0.5872 -0.8732
15999TIP3    H169412   3.014   2.240  16.424  1.3126  1.3044 -1.6601
15999TIP3    H269413   3.019   2.185  16.565 -1.0722  2.6133 -1.0055
16000TIP3   OH269414   6.232   2.635  13.608  0.3152  0.0005  0.0596
16000TIP3    H169415   6.173   2.647  13.682  0.6768  1.6424  0.1334
16000TIP3    H269416   6.202   2.699  13.543  1.2845  0.0551 -0.3598
16001TIP3   OH269417   5.455   6.395   1.697 -0.0560  0.0157 -0.1155
16001TIP3    H169418   5.522   6.460   1.676  0.2540 -0.0676  0.6014
16001TIP3    H269419   5.390   6.443   1.749  1.3283 -0.7415  2.4431
16002TIP3   OH269420   6.225   5.902  13.106 -0.0167  0.5062 -0.1314
16002TIP3    H169421   6.306   5.854  13.088 -1.5892 -2.4559  0.0367
16002TIP3    H269422   6.161   5.834  13.126 -3.0910  2.5655 -2.1564
16003TIP3   OH269423   3.215   6.293  10.792 -0.4319  0.3816  0.2085
16003TIP3    H169424   3.131   6.274  10.751 -0.1301  0.4699 -0.4578
16003TIP3    H269425   3.198   6.370  10.847 -1.0516 -0.2781  0.9561
16004TIP3   OH269426   4.727   4.826  10.928 -0.2387  0.2554  0.1873
16004TIP3    H169427   4.815   4.854  10.903 -1.0407  2.3434 -0.4972
16004TIP3    H269428   4.675   4.906  10.926 -2.0438 -0.8270  1.1712
16005TIP3   OH269429   3.156   3.077   3.957 -0.2782  0.2589  0.1562
16005TIP3    H169430   3.061   3.071   3.957 -0.2567 -0.2048  1.1638
16005TIP3    H269431   3.175   3.167   3.983 -0.4354  0.7940 -1.4463
16006TIP3   OH269432   1.360   1.978  13.568  0.1969  0.0621  0.6792
16006TIP3    H169433   1.353   2.064  13.527 -1.0909 -0.1905  0.3467
16006TIP3    H269434   1.445   1.980  13.612  0.7117  1.0663 -0.3142
16007TIP3   OH269435   0.763   4.624   4.355  0.1560 -0.1766  0.4457
16007TIP3    H169436   0.780   4.714   4.328  0.5409 -0.1220  0.8585
16007TIP3    H269437   0.737   4.579   4.274 -1.7472  0.6939  0.5036
16008TIP3   OH269438   4.218   3.617  12.265  0.2237 -0.3232  0.5238
16008TIP3    H169439   4.199   3.537  12.217  0.6289 -0.0086 -0.1712
16008TIP3    H269440   4.132   3.654  12.284  0.0361  0.8791 -2.2408
16009TIP3   OH269441   6.042   2.008   2.051 -0.6787 -0.0728 -0.1651
16009TIP3    H169442   6.113   1.945   2.066  0.4209  1.1980  0.1807
16009TIP3    H269443   6.063   2.048   1.967  0.5841  2.1940  1.1075
16010TIP3   OH269444   3.917   6.136  13.818 -0.8331  0.3243 -0.0720
16010TIP3    H169445   3.950   6.224  13.798  1.8682 -0.3931  0.8816
16010TIP3    H269446   3.874   6.146  13.903 -0.4323  0.7094  0.0905
16011TIP3   OH269447   6.503   5.225  12.137  0.3679 -0.0033 -0.0910
16011TIP3    H169448   6.532   5.207  12.047  1.1656  2.1078 -0.3172
16011TIP3    H269449   6.579   5.204  12.191  0.6105  0.7015 -0.1475
16012TIP3   OH269450   3.525   6.080   3.529 -0.2339  0.2429  0.1380
16012TIP3    H169451   3.577   6.153   3.561 -1.2530  0.3162  1.7324
16012TIP3    H269452   3.479   6.047   3.607 -1.3784 -0.7779 -0.9269
16013TIP3   OH269453   0.132   1.069  15.022 -0.5550  0.6120  0.3376
16013TIP3    H169454   0.171   1.033  14.942 -0.5048  1.0697  0.1494
16013TIP3    H269455   0.071   1.002  15.052 -2.6477  1.4911 -1.6037
16014TIP3   OH269456   2.176   2.657  16.939 -0.0208 -0.4000  0.1930
16014TIP3    H169457   2.186   2.572  16.980 -1.7974 -0.4748  0.5566
16014TIP3    H269458   2.231   2.716  16.990  0.3356 -1.1170  0.6330
16015TIP3   OH269459   3.267   0.818  14.890 -0.2071  0.3972 -0.3486
16015TIP3    H169460   3.333   0.809  14.958 -0.9458 -1.9268  0.1623
16015TIP3    H269461   3.293   0.754  14.823 -0.4271  1.4457 -1.4654
16016TIP3   OH269462   5.365   1.768   1.994 -0.3245 -0.0706 -0.2202
16016TIP3    H169463   5.407   1.847   1.958 -0.9391  0.4819  0.2562
16016TIP3    H269464   5.369   1.780   2.089  0.3633 -1.0337 -0.1128
16017TIP3   OH269465   1.245   3.523  14.151 -0.2051 -0.1441 -0.0922
16017TIP3    H169466   1.224   3.499  14.061 -2.2876  1.0901 -0.0224
16017TIP3    H269467   1.196   3.460  14.205 -0.7674  0.4501  0.1183
16018TIP3   OH269468   6.793   2.460  15.565 -0.5535  0.3095  0.5570
16018TIP3    H169469   6.872   2.483  15.516  1.2148 -2.8329  1.6903
16018TIP3    H269470   6.732   2.428  15.498  0.6562 -0.9697  0.0254
16019TIP3   OH269471   1.846   5.395  12.982 -0.3311  0.1362  0.0750
16019TIP3    H169472   1.910   5.461  13.008 -0.3567  1.3940 -2.6562
16019TIP3    H269473   1.869   5.317  13.033  2.1511  1.1205  0.6034
16020TIP3   OH269474   1.731   4.300  10.754 -0.6576 -0.6042 -0.3766
16020TIP3    H169475   1.822   4.274  10.743 -0.7538 -1.0944 -0.0275
16020TIP3    H269476   1.731   4.358  10.830 -0.5002  0.1361 -0.9311
16021TIP3   OH269477   2.364   4.653  13.588 -0.4936 -0.3107  0.1611
16021TIP3    H169478   2.268   4.652  13.594 -0.4016 -0.1563  2.7318
16021TIP3    H269479   2.382   4.621  13.500 -2.9215  0.7589 -0.8285
16022TIP3   OH269480   0.427   6.758  14.760  0.5713 -0.1011  0.1512
16022TIP3    H169481   0.499   6.732  14.818  1.9655  0.7386 -1.1431
16022TIP3    H269482   0.401   6.844  14.792 -0.2869 -0.6372  0.9686
16023TIP3   OH269483   5.464   0.981   5.831  0.0914 -0.0185  0.3954
16023TIP3    H169484   5.420   1.064   5.811 -0.3904 -0.4962 -0.6230
16023TIP3    H269485   5.473   0.981   5.927  0.6649  1.4762  0.3591
16024TIP3   OH269486   2.101   5.034   2.899 -0.1308  0.5063  0.5424
16024TIP3    H169487   2.141   5.049   2.814  1.5864 -2.0672  0.7908
16024TIP3    H269488   2.007   5.029   2.881  0.3070 -2.0795 -1.6550
16025TIP3   OH269489   0.773   4.539   2.064  0.0725 -0.2429  0.0698
16025TIP3    H169490   0.839   4.480   2.029  0.8369 -0.3986  1.7030
16025TIP3    H269491   0.777   4.616   2.008  1.4128 -0.3852 -0.0504
16026TIP3   OH269492   1.536   2.891   2.660 -0.7136 -0.4641 -0.5133
16026TIP3    H169493   1.473   2.934   2.602  0.1933  4.8568  1.8431
16026TIP3    H269494   1.487   2.873   2.740 -0.2030 -0.3276 -0.1671
16027TIP3   OH269495   2.207   2.550   1.065  0.8156  0.1060 -0.2518
16027TIP3    H169496   2.192   2.489   1.138  1.3577  0.0280 -0.2003
16027TIP3    H269497   2.121   2.559   1.024  0.1608  1.2962  1.2768
16028TIP3   OH269498   1.105   1.278  12.428  0.3525 -0.0568 -0.5319
16028TIP3    H169499   1.172   1.229  12.475 -0.0588 -0.4257 -0.3226
16028TIP3    H269500   1.154   1.346  12.381  0.9389 -0.7238 -0.9104
16029TIP3   OH269501   0.856   0.634   5.019 -0.2154 -0.6628  0.8075
16029TIP3    H169502   0.829   0.639   5.111 -1.8380 -1.7310  0.4455
16029TIP3    H269503   0.878   0.724   4.995 -1.2428 -0.1099  1.8323
16030TIP3   OH269504   0.599   2.169   5.731 -0.3571  0.5741 -0.2199
16030TIP3    H169505   0.582   2.243   5.673  0.1742  0.2752 -0.7682
16030TIP3    H269506   0.694   2.157   5.727 -0.4947 -0.5138 -0.6031
16031TIP3   OH269507   4.038   1.733  11.815 -0.3357  0.2580  0.4400
16031TIP3    H169508   4.119   1.695  11.780 -0.7276  0.5106 -0.7963
16031TIP3    H269509   4.063   1.821  11.842 -0.0882  0.1698  0.5017
16032TIP3   OH269510   2.079   3.152   6.064 -0.4172 -0.2618 -0.2693
16032TIP3    H169511   2.057   3.129   6.154  1.8930 -1.6137  0.0401
16032TIP3    H269512   2.077   3.247   6.062 -0.8506 -0.2185  1.1182
16033TIP3   OH269513   6.048   0.226  15.727 -0.0314 -0.0472  0.0915
16033TIP3    H169514   5.978   0.262  15.782  0.1220 -0.3872  0.5138
16033TIP3    H269515   6.108   0.184  15.789  0.0908 -0.5224 -0.3448
16034TIP3   OH269516   5.425   2.448  16.759  0.1968  0.0059 -0.3674
16034TIP3    H169517   5.402   2.400  16.680  0.6713 -0.3592 -0.2908
16034TIP3    H269518   5.459   2.532  16.728  3.0444 -1.1570 -0.7686
16035TIP3   OH269519   5.769   4.220  13.567 -0.1113  0.2012 -0.7176
16035TIP3    H169520   5.737   4.249  13.482  1.1817  0.1853 -1.2208
16035TIP3    H269521   5.808   4.298  13.606 -2.2115  0.6658  0.6468
16036TIP3   OH269522   3.360   3.488  14.258  0.4083 -0.2250 -0.2192
16036TIP3    H169523   3.442   3.477  14.210  1.1332  0.5548  0.8062
16036TIP3    H269524   3.325   3.399  14.265 -0.1648 -0.2705 -2.8894
16037TIP3   OH269525   2.364   4.976  14.772 -0.1298 -0.1205 -0.0303
16037TIP3    H169526   2.448   5.011  14.802  0.5173 -1.2394 -0.4886
16037TIP3    H269527   2.308   4.980  14.850 -0.0446  1.7293 -0.0189
16038TIP3   OH269528   5.420   4.975  16.456  0.5826  0.0792  0.3626
16038TIP3    H169529   5.414   4.899  16.514 -0.9905 -0.0756  0.0434
16038TIP3    H269530   5.333   5.015  16.461  0.9993  1.1125 -0.4747
16039TIP3   OH269531   2.767   4.886  13.269  0.3109 -0.0468 -0.1387
16039TIP3    H169532   2.812   4.855  13.190 -1.1813  0.1972 -1.1096
16039TIP3    H269533   2.799   4.828  13.338  1.4363 -0.4420 -0.9588
16040TIP3   OH269534   6.460   3.346  14.338 -0.0846 -0.3531  0.3858
16040TIP3    H169535   6.397   3.285  14.378  0.6672 -2.0894 -0.9513
16040TIP3    H269536   6.462   3.320  14.246 -0.7488  2.6372 -0.5601
16041TIP3   OH269537   3.100   3.228   6.131 -0.1950 -0.5678  0.1031
16041TIP3    H169538   3.136   3.304   6.085  0.2001 -0.9699 -0.2571
16041TIP3    H269539   3.170   3.200   6.190  0.3427 -1.7276 -1.0475
16042TIP3   OH269540   2.456   0.377  16.835 -0.5988 -0.3973 -0.3044
16042TIP3    H169541   2.459   0.314  16.764  0.0830  0.1768 -0.7899
16042TIP3    H269542   2.506   0.337  16.906 -1.2812 -0.9685 -0.1293
16043TIP3   OH269543   0.553   5.895  15.318 -0.0824 -0.1097  0.9298
16043TIP3    H169544   0.543   5.910  15.412  2.3030 -0.6931  1.3643
16043TIP3    H269545   0.609   5.817  15.313  0.0839  0.0977 -0.9721
16044TIP3   OH269546   2.567   4.611  13.822  0.2524 -0.3759 -0.1866
16044TIP3    H169547   2.534   4.639  13.908  0.9007 -0.1165 -0.0168
16044TIP3    H269548   2.492   4.617  13.764 -0.4744 -1.5570  0.5883
16045TIP3   OH269549   1.269   5.786  13.069 -0.5574 -0.2417 -0.2547
16045TIP3    H169550   1.199   5.790  13.135 -0.0838 -1.3061  0.3572
16045TIP3    H269551   1.261   5.698  13.032  0.6311 -0.5000  0.0498
16046TIP3   OH269552   3.356   3.139   4.928 -0.4748 -0.1482  0.0728
16046TIP3    H169553   3.338   3.154   5.021 -0.4591  0.0086  0.0505
16046TIP3    H269554   3.278   3.170   4.883 -0.7574 -0.8357  0.0760
16047TIP3   OH269555   6.788   0.441   0.987 -0.0504  0.1480  0.1957
16047TIP3    H169556   6.733   0.363   0.997  0.2662 -0.1535 -0.3612
16047TIP3    H269557   6.791   0.480   1.074 -0.0969 -0.5395  0.5098
16048TIP3   OH269558   2.888   5.301   5.109  0.3648  0.1651 -0.1036
16048TIP3    H169559   2.869   5.337   5.195  0.2476 -0.6667  0.2281
16048TIP3    H269560   2.957   5.236   5.125 -0.0285 -0.3726 -0.5462
16049TIP3   OH269561   2.056   5.554  13.068 -0.1873 -0.2797 -0.2971
16049TIP3    H169562   2.085   5.515  12.986  0.2123 -1.0230  0.1850
16049TIP3    H269563   2.104   5.636  13.075 -0.8959  0.2291 -1.2358
16050TIP3   OH269564   2.030   2.971  14.887  0.4531  0.0976 -0.3157
16050TIP3    H169565   2.056   2.880  14.901  1.1629  0.4011  0.3915
16050TIP3    H269566   1.960   2.966  14.822  1.9002 -0.7937 -1.8998
16051TIP3   OH269567   6.787   3.366   1.620  0.5969 -0.1149  0.3378
16051TIP3    H169568   6.839   3.384   1.698  2.2373 -1.4572 -0.3590
16051TIP3    H269569   6.753   3.278   1.634 -0.4129  0.2462  0.2032
16052TIP3   OH269570   3.897   6.437  15.142 -0.5013  0.6459 -0.4271
16052TIP3    H169571   3.874   6.473  15.056  0.5249  2.6626  0.0831
16052TIP3    H269572   3.885   6.510  15.203 -2.1085 -1.0003  1.3410
16053TIP3   OH269573   0.906   0.824   1.757  0.4348  0.0111  0.5293
16053TIP3    H169574   0.916   0.917   1.735 -0.1478 -0.3808 -1.5804
16053TIP3    H269575   0.867   0.785   1.679  1.3506 -2.1545  1.0831
16054TIP3   OH269576   5.999   4.989  13.084 -0.0246  0.1831  0.2442
16054TIP3    H169577   6.023   4.946  13.002  0.5769 -0.1709  0.5962
16054TIP3    H269578   6.069   5.051  13.101  0.4466 -0.5395  1.0534
16055TIP3   OH269579   0.373   3.761   1.421  0.0408  0.7742 -0.3381
16055TIP3    H169580   0.403   3.828   1.360  0.7162  1.3225  0.5855
16055TIP3    H269581   0.383   3.800   1.507  1.7204 -0.9540  0.3356
16056TIP3   OH269582   3.415   5.013   6.222  0.5827 -0.1172  0.1227
16056TIP3    H169583   3.411   5.059   6.306  1.5005 -3.1052  1.9965
16056TIP3    H269584   3.341   4.952   6.225  2.6464 -2.7698  0.5153
16057TIP3   OH269585   1.066   5.811   0.057 -0.1557 -0.3450 -0.4034
16057TIP3    H169586   1.136   5.871   0.083 -0.0261 -0.3853 -0.6610
16057TIP3    H269587   1.022   5.856  -0.015  0.9050 -1.2255 -1.6509
16058TIP3   OH269588   3.936   1.599  16.597  0.3339 -0.0768  0.2423
16058TIP3    H169589   4.008   1.601  16.659  0.2677  2.0913  0.3206
16058TIP3    H269590   3.878   1.530  16.629  0.7572  0.3791  2.0844
16059TIP3   OH269591   6.666   4.240  15.409  0.0299 -0.2019  0.4428
16059TIP3    H169592   6.749   4.195  15.390  0.3375 -0.7565  2.7728
16059TIP3    H269593   6.618   4.237  15.327  1.2931 -2.1645 -0.3066
16060TIP3   OH269594   5.978   3.993  15.070 -0.3117  0.5869  0.0315
16060TIP3    H169595   6.063   4.033  15.054  0.6336 -0.8533  1.2233
16060TIP3    H269596   5.967   3.994  15.165 -1.6885  0.8361 -0.0977
16061TIP3   OH269597   6.794   2.777   5.051 -0.4126 -0.5673 -0.1045
16061TIP3    H169598   6.875   2.776   5.000 -1.1361 -0.9901 -1.2874
16061TIP3    H269599   6.790   2.866   5.087  0.1131 -0.2473 -0.8047
16062TIP3   OH269600   6.131   0.826  15.366 -0.2358 -0.5016  0.2354
16062TIP3    H169601   6.058   0.881  15.340  1.2552  0.0024 -3.4721
16062TIP3    H269602   6.186   0.884  15.419 -1.0855  0.0036  0.5892
16063TIP3   OH269603   5.128   3.964  15.272 -0.1871  0.1349 -0.2604
16063TIP3    H169604   5.103   3.936  15.359 -1.9797  0.4685 -0.6311
16063TIP3    H269605   5.079   3.908  15.212  1.0065 -0.0908 -1.0798
16064TIP3   OH269606   1.428   6.799   2.419 -0.2169  0.2153 -0.1613
16064TIP3    H169607   1.496   6.864   2.401 -0.0800  0.2667  0.5321
16064TIP3    H269608   1.415   6.755   2.335 -1.5464  2.2885 -1.1331
16065TIP3   OH269609   0.359   2.535  13.768 -0.1664  0.1415 -0.2643
16065TIP3    H169610   0.274   2.495  13.750 -0.2364 -0.4818  1.3297
16065TIP3    H269611   0.340   2.606  13.830  0.3859  0.4775 -0.4668
16066TIP3   OH269612   4.641   4.921   3.788  0.1825 -0.1274 -0.3082
16066TIP3    H169613   4.590   4.879   3.858 -0.3488 -0.2133 -0.7419
16066TIP3    H269614   4.705   4.975   3.835 -0.4148  0.1097  0.2541
16067TIP3   OH269615   4.806   1.703  15.868 -0.6459  0.1871  0.2922
16067TIP3    H169616   4.864   1.666  15.802  1.8677  1.4328  1.6525
16067TIP3    H269617   4.761   1.775  15.823 -1.2442 -0.8348 -0.7997
16068TIP3   OH269618   2.230   2.698  13.598  0.0793 -0.2012  0.6404
16068TIP3    H169619   2.160   2.680  13.660  1.2345 -0.2689  1.9801
16068TIP3    H269620   2.211   2.787  13.566 -1.6554 -0.9319 -0.5312
16069TIP3   OH269621   3.260   4.626   3.093 -0.4014 -0.0304 -0.1186
16069TIP3    H169622   3.278   4.558   3.158  1.0604  1.1774  0.7816
16069TIP3    H269623   3.254   4.578   3.010  0.3153 -1.2934  0.5253
16070TIP3   OH269624   4.438   5.607  16.771  0.5459 -0.2025 -0.0776
16070TIP3    H169625   4.404   5.677  16.716  2.1092 -0.0517 -0.9169
16070TIP3    H269626   4.519   5.643  16.808  0.6997 -1.1187  0.5020
16071TIP3   OH269627   0.424   1.454  11.438  0.3289  0.0737 -0.1514
16071TIP3    H169628   0.465   1.518  11.379  0.4751  1.3935  1.3073
16071TIP3    H269629   0.492   1.390  11.456  1.1492  1.1607  0.6976
16072TIP3   OH269630   3.660   2.167   0.677 -0.3971 -0.3627  0.1990
16072TIP3    H169631   3.670   2.238   0.614  0.3433 -0.3467  0.3269
16072TIP3    H269632   3.567   2.169   0.701 -0.3454  0.6848  0.3521
16073TIP3   OH269633   3.917   6.347  15.647  0.2068  0.1525  0.1031
16073TIP3    H169634   3.909   6.441  15.663  0.7393  0.3695 -0.8304
16073TIP3    H269635   3.841   6.308  15.690  0.7525  0.8472  1.7442
16074TIP3   OH269636   5.067   4.349   3.407  0.2214 -0.4573  0.1762
16074TIP3    H169637   5.005   4.331   3.478 -1.8025  1.5548 -0.9618
16074TIP3    H269638   5.026   4.418   3.356  2.4920 -0.4981 -1.8926
16075TIP3   OH269639   3.152   3.992   4.483 -0.5750  0.2684  0.0600
16075TIP3    H169640   3.229   4.036   4.518  0.5789 -1.8085  0.2812
16075TIP3    H269641   3.082   4.058   4.488  0.7084  1.5790  1.6582
16076TIP3   OH269642   1.208   5.670   3.937 -0.1206 -0.0207 -0.2437
16076TIP3    H169643   1.279   5.638   3.882  1.8316 -0.7490  2.4592
16076TIP3    H269644   1.249   5.739   3.990 -1.0979 -1.1232  2.0792
16077TIP3   OH269645   2.756   6.125  12.153 -0.0833  0.4863  0.1575
16077TIP3    H169646   2.793   6.072  12.083  0.4420 -0.0534  0.8278
16077TIP3    H269647   2.822   6.123  12.222 -0.8856  0.4176  0.9468
16078TIP3   OH269648   3.603   1.033   4.292  0.4240 -0.2049 -0.0370
16078TIP3    H169649   3.546   0.960   4.268  0.6087 -0.8907  1.4816
16078TIP3    H269650   3.636   1.010   4.379  1.1859  1.2823  0.1014
16079TIP3   OH269651   2.892   5.830  14.780  0.7219  0.3096  0.2534
16079TIP3    H169652   2.799   5.850  14.768  1.1752  2.0358 -0.5926
16079TIP3    H269653   2.892   5.760  14.845 -1.1760  0.0869  0.1002
16080TIP3   OH269654   1.795   1.098   2.137  0.4167  0.3367 -0.2384
16080TIP3    H169655   1.776   1.166   2.073  2.7250  0.6488 -0.6807
16080TIP3    H269656   1.868   1.049   2.100  1.0235 -0.2500  1.5843
16081TIP3   OH269657   4.582   2.885   1.877 -0.4198  0.4760  0.5517
16081TIP3    H169658   4.541   2.815   1.928  1.2718 -1.2595 -0.2970
16081TIP3    H269659   4.514   2.951   1.866 -2.1992 -1.1693  1.1700
16082TIP3   OH269660   4.349   2.961   2.790  0.1593 -0.1355 -0.4569
16082TIP3    H169661   4.329   2.867   2.784 -0.6798  0.0788 -1.1483
16082TIP3    H269662   4.289   3.002   2.727  0.9949  0.7966 -0.6589
16083TIP3   OH269663   6.593   3.499  14.714 -0.7199 -0.7511 -0.2018
16083TIP3    H169664   6.525   3.517  14.650  0.2175  0.6119 -0.8578
16083TIP3    H269665   6.640   3.582  14.724  1.6480 -1.9447 -0.7197
16084TIP3   OH269666   6.763   6.102  12.802  0.0390 -0.3356 -0.2485
16084TIP3    H169667   6.724   6.014  12.802  0.0408 -0.3519 -1.6187
16084TIP3    H269668   6.856   6.086  12.783 -0.2465  0.0422 -2.1671
16085TIP3   OH269669   2.230   0.846   6.006  0.3161  0.7869  0.1344
16085TIP3    H169670   2.213   0.931   5.967  0.1285  1.0799  0.8284
16085TIP3    H269671   2.144   0.814   6.033  0.5182  0.9893  1.0782
16086TIP3   OH269672   6.382   3.738  12.235 -0.0965  0.0625  0.6788
16086TIP3    H169673   6.340   3.765  12.316  1.0030  0.3940  1.1487
16086TIP3    H269674   6.466   3.701  12.262  0.9276  1.5059 -0.4027
16087TIP3   OH269675   3.794   2.598   0.172  0.7595  1.1095 -0.4355
16087TIP3    H169676   3.855   2.527   0.193  1.2826  1.6870  0.0441
16087TIP3    H269677   3.714   2.575   0.219  1.0125  0.9649 -0.0622
16088TIP3   OH269678   5.903   3.806   2.309  0.2479 -0.1222 -0.2845
16088TIP3    H169679   5.914   3.877   2.372  1.6548 -1.1400  0.6718
16088TIP3    H269680   5.812   3.814   2.280 -0.3463  0.6182  1.6184
16089TIP3   OH269681   4.762   2.094   0.925 -0.4512 -0.2152  0.9724
16089TIP3    H169682   4.850   2.122   0.899 -0.9452  0.7171  0.2374
16089TIP3    H269683   4.743   2.144   1.004 -0.8962  0.7226  0.2861
16090TIP3   OH269684   2.909   0.049  11.315 -0.4200 -0.0948  0.8882
16090TIP3    H169685   2.994   0.063  11.357  0.7559  0.2801 -1.4579
16090TIP3    H269686   2.896  -0.045  11.316  0.5511 -0.2420  0.3199
16091TIP3   OH269687   5.621   0.671   1.171  0.5070 -0.2667  0.7913
16091TIP3    H169688   5.552   0.677   1.238 -1.7456  1.2072 -1.4739
16091TIP3    H269689   5.621   0.757   1.129  3.0496 -0.5822 -0.0289
16092TIP3   OH269690   3.050   0.483   2.821  0.2761  0.2998 -0.1420
16092TIP3    H169691   3.056   0.455   2.913 -0.1871  0.9307  0.0909
16092TIP3    H269692   3.141   0.484   2.790  0.5224  0.8838  0.5653
16093TIP3   OH269693   2.974   1.592  14.415  0.4494  0.6908 -0.1575
16093TIP3    H169694   3.046   1.607  14.476  0.9413 -1.4705 -0.1470
16093TIP3    H269695   2.898   1.631  14.459  0.6442 -1.3823  2.2419
16094TIP3   OH269696   2.916   4.298   0.545 -0.4091  0.3899 -0.1694
16094TIP3    H169697   2.917   4.232   0.614 -2.8890 -0.3918 -0.7917
16094TIP3    H269698   2.942   4.250   0.466  0.8989  0.9258 -0.0837
16095TIP3   OH269699   0.589   3.884   2.271 -0.0733  0.2738 -0.1034
16095TIP3    H169700   0.499   3.906   2.292 -0.1984  0.2253 -0.5787
16095TIP3    H269701   0.636   3.967   2.276 -0.4669  0.6062 -1.5002
16096TIP3   OH269702   5.040   2.985   5.619 -0.4927 -0.1139  0.0463
16096TIP3    H169703   5.027   2.934   5.698  0.4876 -0.8746 -0.2611
16096TIP3    H269704   4.951   3.013   5.593 -0.9811 -1.1497  0.5540
16097TIP3   OH269705   1.399   2.462   4.849  0.0852 -0.4238 -0.5886
16097TIP3    H169706   1.482   2.497   4.880 -1.0116  2.5719 -0.7481
16097TIP3    H269707   1.335   2.492   4.914 -1.1657 -0.9435 -1.5462
16098TIP3   OH269708   5.848   4.669  15.049 -0.9262 -0.1373 -0.2420
16098TIP3    H169709   5.774   4.608  15.046  0.4843 -2.3253  3.6412
16098TIP3    H269710   5.925   4.613  15.052  0.6303  1.9511  0.5463
16099TIP3   OH269711   6.123   5.785  13.971 -0.2846 -1.3696  0.2984
16099TIP3    H169712   6.120   5.873  14.008  0.0394 -1.2158 -0.0413
16099TIP3    H269713   6.040   5.746  13.997 -0.8181 -0.6606 -0.2979
16100TIP3   OH269714   0.011   5.294  13.099 -0.2752 -0.8029 -0.2981
16100TIP3    H169715   0.002   5.243  13.018 -1.7977 -1.2974  0.1537
16100TIP3    H269716   0.026   5.228  13.167 -0.4321 -0.4966  0.0328
16101TIP3   OH269717   4.176   3.137  15.800  0.2388 -0.3515 -0.0037
16101TIP3    H169718   4.265   3.171  15.791  1.0557 -1.4866  2.7960
16101TIP3    H269719   4.155   3.150  15.892 -1.9745 -1.4014 -0.2992
16102TIP3   OH269720   5.945   0.675  14.896  0.3466 -0.4055  0.1763
16102TIP3    H169721   5.967   0.760  14.935 -0.1762  0.1135 -0.6234
16102TIP3    H269722   5.902   0.697  14.813 -0.0937 -1.4452  0.1086
16103TIP3   OH269723   4.851   6.746   3.720  0.5134  0.6205  0.2312
16103TIP3    H169724   4.815   6.659   3.699  3.3216 -0.8243  0.8184
16103TIP3    H269725   4.805   6.772   3.800 -1.1755  0.2496 -0.5614
16104TIP3   OH269726   0.688   2.059   4.803  0.2265  0.2787  0.0215
16104TIP3    H169727   0.640   2.117   4.743 -0.0905 -1.0718 -1.0970
16104TIP3    H269728   0.777   2.059   4.769 -0.1559 -1.2512 -1.1465
16105TIP3   OH269729   1.416   0.152   0.224  0.1784  0.7439 -0.4603
16105TIP3    H169730   1.416   0.070   0.274  0.4292 -0.6555 -2.6331
16105TIP3    H269731   1.449   0.218   0.285 -0.1063 -0.7339  1.3756
16106TIP3   OH269732   3.371   4.738   5.634  0.1417 -0.0153 -0.6304
16106TIP3    H169733   3.417   4.816   5.602 -1.0862  0.5777 -1.0214
16106TIP3    H269734   3.399   4.668   5.574  3.3199 -0.5682  1.2913
16107TIP3   OH269735   0.681   2.564   3.988 -0.0856 -0.5648 -0.2694
16107TIP3    H169736   0.753   2.523   4.037 -0.1231 -1.4561 -0.9326
16107TIP3    H269737   0.671   2.650   4.029  2.5166  0.2989 -1.2477
16108TIP3   OH269738   5.641   3.728   4.428 -0.0777 -0.0120  0.6382
16108TIP3    H169739   5.672   3.812   4.461 -1.9120  0.5021  1.1748
16108TIP3    H269740   5.620   3.678   4.507  0.0314 -0.5946  0.3014
16109TIP3   OH269741   5.845   2.209   1.320 -0.1852  0.2959  0.7221
16109TIP3    H169742   5.800   2.223   1.237 -0.5793  0.7708  1.0114
16109TIP3    H269743   5.875   2.119   1.316  1.1104  0.7385 -0.5730
16110TIP3   OH269744   4.827   5.733   0.189  0.5200  0.3705 -0.3184
16110TIP3    H169745   4.858   5.644   0.201 -0.7184 -0.0532 -0.0620
16110TIP3    H269746   4.819   5.768   0.278  0.8773  0.6983 -0.4122
16111TIP3   OH269747   5.614   5.086   4.916 -0.4435 -0.2784 -0.0437
16111TIP3    H169748   5.688   5.033   4.945 -0.8655 -1.3258 -0.7899
16111TIP3    H269749   5.637   5.175   4.940  1.5076 -0.4337 -1.0928
16112TIP3   OH269750   4.618   1.923  15.761 -0.4500  0.2662  0.4285
16112TIP3    H169751   4.564   1.963  15.694  1.0127  1.4276 -0.0995
16112TIP3    H269752   4.708   1.939  15.733  0.1918 -0.7802  1.7582
16113TIP3   OH269753   6.437   4.033   6.516  0.2404  0.3431 -0.2895
16113TIP3    H169754   6.462   4.043   6.608  0.0147  1.2936 -0.3253
16113TIP3    H269755   6.387   3.952   6.514  2.0194 -0.8333  0.0443
16114TIP3   OH269756   0.671   0.430   1.680 -0.2313 -0.1915 -0.3855
16114TIP3    H169757   0.766   0.419   1.678 -0.1264  0.4883  0.4412
16114TIP3    H269758   0.638   0.348   1.717  0.0646 -0.2665 -0.2910
16115TIP3   OH269759   6.427   2.871  13.836  0.5041  0.1645 -0.2482
16115TIP3    H169760   6.395   2.911  13.755  0.0991 -1.3998 -0.9000
16115TIP3    H269761   6.348   2.836  13.878  0.8000  0.3856  0.5045
16116TIP3   OH269762   3.910   6.205   3.191  0.0781 -0.0662 -0.2137
16116TIP3    H169763   3.830   6.175   3.235  0.0586 -0.2437 -0.3671
16116TIP3    H269764   3.949   6.125   3.156  0.2154  0.0464 -0.3158
16117TIP3   OH269765   1.146   3.622   3.915 -0.4665 -0.6957  0.3617
16117TIP3    H169766   1.208   3.695   3.918 -0.8669 -0.3085 -0.6052
16117TIP3    H269767   1.132   3.599   4.007  0.7330 -0.4764  0.6168
16118TIP3   OH269768   3.291   5.667   5.062  0.4512  0.9582  0.5806
16118TIP3    H169769   3.235   5.731   5.019  0.3941  1.1967  1.0062
16118TIP3    H269770   3.300   5.699   5.152  1.7710  1.2419  0.3602
16119TIP3   OH269771   2.669   6.756   1.956 -0.4582 -0.2220  0.4175
16119TIP3    H169772   2.676   6.851   1.964 -2.9534  0.1283 -0.7125
16119TIP3    H269773   2.712   6.735   1.873 -0.6517  0.0249  0.2571
16120TIP3   OH269774   3.562   5.765  11.610  0.1274  0.7050 -0.4833
16120TIP3    H169775   3.544   5.750  11.517  0.7686  0.1201 -0.5155
16120TIP3    H269776   3.498   5.710  11.655  0.2362  0.4944 -0.5842
16121TIP3   OH269777   0.198   3.904   1.045  0.4027 -0.9783 -0.5508
16121TIP3    H169778   0.129   3.889   0.981 -1.0248 -0.9117  0.8965
16121TIP3    H269779   0.157   3.884   1.129  0.2855  4.3215  1.0308
16122TIP3   OH269780   3.691   5.901  14.624 -0.2615  0.4591  0.0741
16122TIP3    H169781   3.776   5.935  14.595 -0.5284  0.9935 -0.0844
16122TIP3    H269782   3.667   5.836  14.558 -0.3926  0.9475 -0.3630
16123TIP3   OH269783   0.218   1.728   0.029  0.3121 -0.0603 -0.1672
16123TIP3    H169784   0.251   1.650   0.072  0.4620 -0.4022 -0.8853
16123TIP3    H269785   0.137   1.700  -0.013  0.9748 -0.1501 -1.4249
16124TIP3   OH269786   3.458   4.617   3.719  0.2929  0.0411 -0.5067
16124TIP3    H169787   3.441   4.569   3.799  2.9749 -1.4078 -0.6964
16124TIP3    H269788   3.500   4.698   3.747 -0.5070  0.4167 -0.3789
16125TIP3   OH269789   2.829   5.870   2.129 -0.1707  0.1403 -0.2280
16125TIP3    H169790   2.890   5.802   2.159  0.8178  1.4545  0.9149
16125TIP3    H269791   2.868   5.903   2.048 -0.5072 -0.4579 -0.6380
16126TIP3   OH269792   3.621   4.139   3.928 -0.2140 -0.2888  0.0564
16126TIP3    H169793   3.612   4.213   3.988  1.8512 -0.0944  0.1965
16126TIP3    H269794   3.693   4.087   3.964  1.9369  0.4417 -2.7451
16127TIP3   OH269795   0.191   0.712   4.312  0.4293  0.1876  0.6487
16127TIP3    H169796   0.096   0.717   4.306  0.4782 -0.1545 -0.5368
16127TIP3    H269797   0.213   0.766   4.388 -0.4597  2.7797 -0.8135
16128TIP3   OH269798   2.613   0.866  15.913 -0.1887 -0.4081 -0.1283
16128TIP3    H169799   2.684   0.807  15.889  0.9108  0.5317  0.7598
16128TIP3    H269800   2.590   0.841  16.002 -0.5489 -0.2854 -0.1834
16129TIP3   OH269801   1.706   4.404  11.115  0.3870 -0.0558 -0.2250
16129TIP3    H169802   1.636   4.461  11.147  1.5648  0.7581  1.0359
16129TIP3    H269803   1.742   4.450  11.039 -0.4557 -0.5129 -0.9238
16130TIP3   OH269804   2.894   1.135   1.982 -0.7742  0.4608  0.2634
16130TIP3    H169805   2.875   1.213   1.929 -0.9000  0.4139  0.2382
16130TIP3    H269806   2.917   1.067   1.919  0.3613  0.7548  0.3396
16131TIP3   OH269807   5.771   0.703   5.341  0.4526  0.3388  0.0346
16131TIP3    H169808   5.763   0.650   5.261  0.9654  0.0898  0.1454
16131TIP3    H269809   5.808   0.643   5.406 -2.0323 -0.1428  1.1354
16132TIP3   OH269810   3.582   5.456   1.704  0.0987 -0.3222  0.1125
16132TIP3    H169811   3.543   5.537   1.737 -0.7988  0.0324 -1.6878
16132TIP3    H269812   3.552   5.450   1.614  0.3913 -2.5347  0.1119
16133TIP3   OH269813   0.608   5.150  12.469 -0.7813  0.2866  0.0488
16133TIP3    H169814   0.597   5.060  12.499 -0.9129 -0.1551 -1.2291
16133TIP3    H269815   0.661   5.142  12.390  1.9431  1.6521  1.6050
16134TIP3   OH269816   4.391   2.271   6.029 -0.2610  0.4868  0.1953
16134TIP3    H169817   4.435   2.353   6.051  1.2934 -0.1935 -0.1769
16134TIP3    H269818   4.354   2.287   5.942 -2.1347  1.5536  1.1153
16135TIP3   OH269819   1.673   1.002   2.386  0.0085 -0.5655  0.3212
16135TIP3    H169820   1.712   0.916   2.400  0.0248 -0.6155 -0.0080
16135TIP3    H269821   1.727   1.042   2.317  0.1447 -0.1989  0.6347
16136TIP3   OH269822   5.296   1.555   0.695  0.1697  0.1433 -0.7841
16136TIP3    H169823   5.255   1.472   0.721  0.6434 -0.5686 -2.2424
16136TIP3    H269824   5.286   1.611   0.772 -2.0889 -0.5398 -0.5036
16137TIP3   OH269825   6.493   1.693  14.151 -0.0738  0.2248 -0.2352
16137TIP3    H169826   6.494   1.631  14.225  1.0410 -0.3035 -0.6677
16137TIP3    H269827   6.443   1.767  14.183 -0.9681 -0.6624  0.5025
16138TIP3   OH269828   1.512   0.925   3.733  0.5094  0.6263 -0.2412
16138TIP3    H169829   1.478   0.958   3.817  2.0907  0.4487  0.5104
16138TIP3    H269830   1.606   0.921   3.746  0.8468  1.2306 -2.2948
16139TIP3   OH269831   3.018   0.615  14.570 -0.6858  0.1197  0.2995
16139TIP3    H169832   3.097   0.588  14.523 -0.3830  1.8057 -0.2415
16139TIP3    H269833   3.047   0.625  14.661 -0.6219 -0.5823  0.3629
16140TIP3   OH269834   1.737   3.318  14.384 -0.3124  0.5192 -0.1345
16140TIP3    H169835   1.811   3.315  14.323 -0.6257  1.1692 -0.5636
16140TIP3    H269836   1.758   3.391  14.442  0.7615 -1.0886  1.5821
16141TIP3   OH269837   1.121   5.750   4.563  0.2025 -0.1448  0.0671
16141TIP3    H169838   1.040   5.699   4.557 -0.8169  1.2861  0.8219
16141TIP3    H269839   1.190   5.689   4.539 -1.0826 -1.4757 -0.4070
16142TIP3   OH269840   3.111   0.222   4.890  0.2126 -0.1003  0.0340
16142TIP3    H169841   3.041   0.218   4.825  0.1031  0.4200  0.1165
16142TIP3    H269842   3.088   0.296   4.946  0.5377 -0.2734  0.3988
16143TIP3   OH269843   2.147   1.261  14.674 -0.5655  0.7782  0.2673
16143TIP3    H169844   2.232   1.218  14.666 -0.3950  1.0550  0.5715
16143TIP3    H269845   2.157   1.344  14.629 -1.1510  0.1565 -1.0634
16144TIP3   OH269846   5.825   0.322  11.072  0.4868 -0.2952 -0.4135
16144TIP3    H169847   5.837   0.227  11.063 -1.4284 -0.5130 -1.1214
16144TIP3    H269848   5.795   0.335  11.162 -1.6735 -0.7045 -1.0152
16145TIP3   OH269849   2.969   3.867  11.819  0.4680 -0.4810  0.3737
16145TIP3    H169850   2.957   3.826  11.905 -2.2037 -0.3395  0.1748
16145TIP3    H269851   2.921   3.810  11.759  1.6188 -0.1451 -0.9195
16146TIP3   OH269852   3.976   5.653  11.777 -0.3825 -0.6648 -0.3076
16146TIP3    H169853   4.044   5.627  11.714 -0.2180  0.8917 -0.8104
16146TIP3    H269854   4.002   5.610  11.859  0.2740 -1.4439 -0.9109
16147TIP3   OH269855   1.600   4.096  12.132 -0.5843 -0.2952  0.8712
16147TIP3    H169856   1.510   4.063  12.139  0.1007 -2.4159  0.3191
16147TIP3    H269857   1.599   4.152  12.054 -1.5780  0.3147  1.2998
16148TIP3   OH269858   2.592   3.987  11.921  0.1370 -0.0514  0.2058
16148TIP3    H169859   2.663   4.031  11.968 -0.8774  0.7037  1.0788
16148TIP3    H269860   2.525   3.974  11.988 -0.1575 -1.6859 -0.3594
16149TIP3   OH269861   3.047   0.034  16.010  0.3662 -0.3139 -0.0589
16149TIP3    H169862   3.140   0.013  16.004  0.1975 -1.4688  0.8225
16149TIP3    H269863   3.005  -0.051  16.027 -0.7332  0.3188  0.4860
16150TIP3   OH269864   1.506   4.814   4.952  0.7178 -0.5170  0.0815
16150TIP3    H169865   1.577   4.802   4.889  2.1523 -0.4272  1.5918
16150TIP3    H269866   1.522   4.901   4.988  0.6504 -1.0229  1.3803
16151TIP3   OH269867   4.068   5.519   6.345 -0.2705 -0.1855  0.4798
16151TIP3    H169868   4.010   5.468   6.401 -0.7554  0.1208  0.2662
16151TIP3    H269869   4.149   5.528   6.396 -0.5735 -0.2206  0.9741
16152TIP3   OH269870   6.604   0.492  15.926  0.7421 -0.1543 -0.3321
16152TIP3    H169871   6.633   0.415  15.879  2.9164  0.0735  0.5341
16152TIP3    H269872   6.593   0.559  15.859  1.0272 -0.6052 -0.8315
16153TIP3   OH269873   2.994   2.685  14.167 -0.2167  0.2829  0.4460
16153TIP3    H169874   2.929   2.625  14.129  1.3569 -0.7997 -0.6741
16153TIP3    H269875   3.050   2.628  14.220  0.2823  1.0662  0.7695
16154TIP3   OH269876   1.436   3.859  10.962  0.2244 -0.4953  0.2390
16154TIP3    H169877   1.490   3.841  10.885 -1.2172 -2.0693 -0.4651
16154TIP3    H269878   1.400   3.946  10.947  1.1074 -0.1931 -0.1556
16155TIP3   OH269879   5.629   1.972   5.567  0.2736  0.1455  0.0020
16155TIP3    H169880   5.546   2.004   5.602 -0.2331 -1.0326 -0.0805
16155TIP3    H269881   5.672   1.931   5.642  0.4215  0.0674 -0.1249
16156TIP3   OH269882   0.168   2.612  13.518  0.2654 -0.2311  0.3668
16156TIP3    H169883   0.249   2.660  13.537  1.5839 -1.5404 -1.6218
16156TIP3    H269884   0.132   2.656  13.441 -0.8346  0.1749  1.0796
16157TIP3   OH269885   3.394   1.398   5.931 -0.3972  0.4730 -0.5540
16157TIP3    H169886   3.326   1.337   5.902 -0.5962  0.1245  0.5754
16157TIP3    H269887   3.386   1.398   6.027 -0.5866  2.4700 -0.5227
16158TIP3   OH269888   0.295   3.968  12.524  0.5760  0.7247  0.5826
16158TIP3    H169889   0.368   3.925  12.481  0.0409  0.6540 -0.2825
16158TIP3    H269890   0.218   3.917  12.499 -0.1796  2.5486 -1.0984
16159TIP3   OH269891   3.693   0.192   3.866 -0.5708 -0.6217  0.1083
16159TIP3    H169892   3.659   0.102   3.859  1.1562 -1.4263  1.3274
16159TIP3    H269893   3.656   0.225   3.947 -0.4646 -0.5752  0.1374
16160TIP3   OH269894   2.031   3.349   2.122 -0.3354 -0.3326 -0.0212
16160TIP3    H169895   2.028   3.320   2.213 -0.3213  0.3167  0.1953
16160TIP3    H269896   2.105   3.410   2.118  0.9570 -1.8867 -0.9476
16161TIP3   OH269897   1.694   2.057  15.851 -0.4320 -0.5279 -0.0045
16161TIP3    H169898   1.734   1.970  15.853 -1.3192 -1.0003 -1.4490
16161TIP3    H269899   1.606   2.042  15.819 -0.9827  0.7928  0.8180
16162TIP3   OH269900   6.456   5.725  15.087 -0.6008  0.4276  0.0694
16162TIP3    H169901   6.458   5.678  15.170  1.4487  1.3940  0.6292
16162TIP3    H269902   6.365   5.720  15.059 -0.6624 -3.0145  0.5383
16163TIP3   OH269903   5.937   1.042  16.722  0.2337  0.8297 -0.2527
16163TIP3    H169904   6.032   1.054  16.721  0.2735  0.4893 -0.6657
16163TIP3    H269905   5.906   1.088  16.644  0.0032  1.3488  0.1335
16164TIP3   OH269906   1.994   0.253   0.202 -0.2422  0.6302  0.1513
16164TIP3    H169907   2.070   0.289   0.248 -1.0766  1.1420  1.1581
16164TIP3    H269908   1.976   0.170   0.246 -0.2580  0.5013 -0.0973
16165TIP3   OH269909   5.955   6.690  10.655 -0.1471  0.3410  0.3180
16165TIP3    H169910   5.914   6.618  10.607  1.8583  0.3672 -1.6118
16165TIP3    H269911   5.977   6.653  10.740 -1.6546 -0.4601  0.3858
16166TIP3   OH269912   2.381   0.717   3.295 -0.2468 -0.4157  0.1019
16166TIP3    H169913   2.418   0.774   3.361  0.2682 -1.0376  0.3611
16166TIP3    H269914   2.291   0.749   3.283 -0.0094  0.3563  0.3256
16167TIP3   OH269915   0.691   4.120  13.877 -0.3898  0.0701 -0.0737
16167TIP3    H169916   0.656   4.197  13.832 -1.0122 -0.7725 -1.0843
16167TIP3    H269917   0.642   4.046  13.840 -0.6991 -0.7137  1.7724
16168TIP3   OH269918   4.411   4.886  10.585  0.1921 -0.3577  0.0451
16168TIP3    H169919   4.415   4.800  10.626 -0.5400 -0.8340 -0.8517
16168TIP3    H269920   4.372   4.870  10.500  1.1092  0.7028 -0.6019
16169TIP3   OH269921   1.295   3.364  16.234  0.1458 -0.3571 -0.1547
16169TIP3    H169922   1.357   3.349  16.163  0.5611  0.7998 -0.0474
16169TIP3    H269923   1.345   3.344  16.314  0.9473  2.1037  0.0439
16170TIP3   OH269924   3.998   4.695   0.291 -0.7663  0.1291 -0.3558
16170TIP3    H169925   3.966   4.605   0.297  0.7500 -0.3947  0.6199
16170TIP3    H269926   3.986   4.731   0.379 -0.1088  0.4028 -0.3699
16171TIP3   OH269927   4.070   4.979   1.403  0.0244  0.1949 -0.1134
16171TIP3    H169928   4.017   5.034   1.462  0.1841 -1.1101  1.2893
16171TIP3    H269929   4.038   5.002   1.315 -3.1942 -0.7770  0.6555
16172TIP3   OH269930   6.123   5.587  12.091  0.2765 -0.0126 -0.0784
16172TIP3    H169931   6.061   5.640  12.141  0.1326 -1.6387  1.5767
16172TIP3    H269932   6.195   5.647  12.070 -0.2617  1.0508  0.9992
16173TIP3   OH269933   4.587   1.343   0.234 -0.9568 -0.0116 -0.0964
16173TIP3    H169934   4.632   1.275   0.184  0.9621  1.4029 -0.4561
16173TIP3    H269935   4.532   1.388   0.170  1.6245  1.9102 -1.1550
16174TIP3   OH269936   0.973   4.991  12.020 -0.0895  0.0291  0.9091
16174TIP3    H169937   0.893   4.946  12.046 -2.3070  2.4298 -1.1432
16174TIP3    H269938   0.956   5.083  12.040  1.6542  0.7511 -0.6204
16175TIP3   OH269939   2.654   2.973   0.452  0.0932 -0.7135  0.2152
16175TIP3    H169940   2.583   3.001   0.509 -0.9801 -0.0034 -1.3869
16175TIP3    H269941   2.708   3.051   0.441 -1.2397  0.0142 -1.8575
16176TIP3   OH269942   6.166   0.700  13.092  0.3369 -0.4314 -0.5389
16176TIP3    H169943   6.195   0.712  13.002  0.5498  0.9255 -0.3222
16176TIP3    H269944   6.237   0.737  13.145  0.0851 -0.9508  0.1688
16177TIP3   OH269945   4.155   2.842  12.351  1.1586 -0.2159  0.2130
16177TIP3    H169946   4.086   2.790  12.310  1.1526  0.5657 -0.8020
16177TIP3    H269947   4.110   2.921  12.382  1.6596  0.5666 -0.9697
16178TIP3   OH269948   1.380   4.324   5.906  0.0947  0.3819  0.7919
16178TIP3    H169949   1.287   4.346   5.916  0.0861  0.7141  0.0673
16178TIP3    H269950   1.423   4.409   5.894  0.3441  0.1561  0.0436
16179TIP3   OH269951   6.411   2.181   4.798 -0.2845 -0.5865  0.4015
16179TIP3    H169952   6.320   2.211   4.809 -0.5392 -0.7449 -1.0425
16179TIP3    H269953   6.403   2.087   4.784  0.2469 -0.8486  1.7509
16180TIP3   OH269954   6.247   0.315  13.236 -0.0478  0.1279 -0.1206
16180TIP3    H169955   6.271   0.225  13.212  0.6541  0.0502  0.7787
16180TIP3    H269956   6.190   0.345  13.165 -0.6313 -1.1700 -0.2326
16181TIP3   OH269957   6.179   4.301  11.850  0.7577  0.4113  0.2491
16181TIP3    H169958   6.099   4.251  11.834 -0.0004  1.7137 -0.1166
16181TIP3    H269959   6.212   4.268  11.933  1.1639 -1.8160 -0.7123
16182TIP3   OH269960   3.651   2.287  15.974 -0.5119  0.5139 -0.7583
16182TIP3    H169961   3.651   2.367  16.026  2.7638 -0.1077  0.4630
16182TIP3    H269962   3.723   2.299  15.912  0.0124 -1.3951 -0.5992
16183TIP3   OH269963   6.608   2.545   3.017  0.0489 -0.2722 -0.1607
16183TIP3    H169964   6.532   2.587   2.976  0.4614 -1.5424 -2.4101
16183TIP3    H269965   6.634   2.605   3.087 -1.2516  1.6443 -1.2151
16184TIP3   OH269966   4.817   1.489   2.337  0.3613  0.0365  0.3507
16184TIP3    H169967   4.842   1.581   2.347 -0.3349  0.4542 -1.4243
16184TIP3    H269968   4.900   1.444   2.318  0.3754  0.8289 -1.8144
16185TIP3   OH269969   2.431   5.498   2.329  0.0448 -0.1520 -0.7698
16185TIP3    H169970   2.364   5.494   2.397  0.5687  2.4540 -0.0254
16185TIP3    H269971   2.382   5.501   2.247 -0.7256  0.8586 -0.2810
16186TIP3   OH269972   3.301   3.314  10.667 -0.0846 -0.3505 -0.4316
16186TIP3    H169973   3.262   3.378  10.607 -0.2036 -0.1656 -0.1585
16186TIP3    H269974   3.388   3.350  10.686  0.2215 -0.7635 -1.0427
16187TIP3   OH269975   4.846   1.670   5.342  0.4383 -1.0238  0.6174
16187TIP3    H169976   4.825   1.576   5.350 -0.2029 -0.9655 -0.2296
16187TIP3    H269977   4.942   1.673   5.344  0.4866 -1.7703  0.0320
16188TIP3   OH269978   2.358   0.621  16.820  0.0406  0.1772 -0.4187
16188TIP3    H169979   2.405   0.538  16.818 -0.5220 -0.2014  1.0316
16188TIP3    H269980   2.305   0.620  16.740  0.7912 -0.3844 -0.9296
16189TIP3   OH269981   3.672   6.036   1.621  0.2811  0.7591  0.4850
16189TIP3    H169982   3.593   6.033   1.675 -1.6440  1.8020 -2.0740
16189TIP3    H269983   3.723   6.108   1.656  0.0103  0.2500  2.0013
16190TIP3   OH269984   0.699   0.762   3.278 -0.3747  0.2260  0.2056
16190TIP3    H169985   0.778   0.797   3.237 -0.9467 -0.4736 -1.5806
16190TIP3    H269986   0.719   0.669   3.291 -0.4410  0.3117  0.9286
16191TIP3   OH269987   2.176   3.218  15.641  0.3149  0.2397 -0.6136
16191TIP3    H169988   2.257   3.169  15.627 -0.6825 -1.7626  0.1954
16191TIP3    H269989   2.113   3.177  15.581 -0.5816  0.4260  0.1777
16192TIP3   OH269990   4.222   2.701   3.400 -0.1502  0.5484  0.4972
16192TIP3    H169991   4.312   2.692   3.431  0.2190  2.1919  0.0094
16192TIP3    H269992   4.193   2.784   3.436 -0.6695  1.1545 -1.2273
16193TIP3   OH269993   3.492   4.319  16.268  0.0476  0.1689 -0.1428
16193TIP3    H169994   3.463   4.310  16.178  0.9202  2.9688 -0.8088
16193TIP3    H269995   3.577   4.276  16.271  0.1277  0.2794 -0.7308
16194TIP3   OH269996   3.599   2.954   2.512  0.6031  0.0887 -0.3945
16194TIP3    H169997   3.654   3.000   2.447 -0.7843  1.6666 -0.5161
16194TIP3    H269998   3.578   3.021   2.576 -0.4768 -0.7164  0.1088
16195TIP3   OH269999   0.924   5.544  11.525 -0.6276 -0.5709  0.7392
16195TIP3    H170000   0.998   5.485  11.534  0.0111  0.1498  0.3543
16195TIP3    H270001   0.962   5.627  11.496 -1.3378  0.3908  2.3853
16196TIP3   OH270002   3.320   1.772   2.535  0.0098  0.0251 -0.2875
16196TIP3    H170003   3.329   1.846   2.474  1.4003 -2.2492 -3.0580
16196TIP3    H270004   3.230   1.779   2.567 -1.2380  0.7866 -3.5336
16197TIP3   OH270005   3.353   1.576   3.873 -0.9774 -0.0234  0.4405
16197TIP3    H170006   3.385   1.520   3.802 -0.4459  1.0085 -0.1646
16197TIP3    H270007   3.273   1.534   3.903 -0.4154 -1.2913  0.2453
16198TIP3   OH270008   3.691   4.883   5.017 -0.1246 -0.0201  0.0160
16198TIP3    H170009   3.603   4.899   5.052  0.0624 -1.2875  1.1396
16198TIP3    H270010   3.699   4.787   5.016  1.2497  0.0791 -0.0819
16199TIP3   OH270011   3.544   3.427  10.723  0.5033  0.1972 -0.1349
16199TIP3    H170012   3.518   3.422  10.815  0.9519 -0.8353 -0.0416
16199TIP3    H270013   3.640   3.429  10.725  0.5013  0.8602 -0.5606
16200TIP3   OH270014   2.019   4.940  15.115 -0.6709  0.5362 -0.6568
16200TIP3    H170015   1.968   5.020  15.133 -0.0017  0.9920 -0.7336
16200TIP3    H270016   1.967   4.870  15.153 -0.1823  1.2637  1.4986
16201TIP3   OH270017   3.387   5.698  13.517 -0.1716 -0.1811 -0.2379
16201TIP3    H170018   3.481   5.713  13.526 -0.6947  2.8158  1.5444
16201TIP3    H270019   3.351   5.714  13.604 -2.5520  0.8406 -1.3008
16202TIP3   OH270020   3.810   5.103   5.773 -0.1942 -0.2747 -0.2274
16202TIP3    H170021   3.798   5.017   5.733 -1.0510  0.3102 -1.2771
16202TIP3    H270022   3.721   5.138   5.784  0.1173  0.2900  0.6022
16203TIP3   OH270023   2.089   1.284  13.578  0.2415  0.6099  0.6949
16203TIP3    H170024   2.112   1.209  13.633  0.4328  0.4619  0.4129
16203TIP3    H270025   2.138   1.271  13.497 -1.0586  0.1335 -0.0369
16204TIP3   OH270026   5.748   4.377  12.287 -0.2032  0.5116 -0.0589
16204TIP3    H170027   5.708   4.453  12.330  0.2035 -0.1481  1.5662
16204TIP3    H270028   5.817   4.414  12.233  0.5389  1.2785  1.3430
16205TIP3   OH270029   1.374   5.537  14.851  0.0010  0.0501  0.0246
16205TIP3    H170030   1.446   5.597  14.874 -0.7183  0.0546  2.5792
16205TIP3    H270031   1.295   5.587  14.872 -0.6594 -0.9928  0.0644
16206TIP3   OH270032   1.920   4.018   3.961 -0.2763 -0.6918 -0.0945
16206TIP3    H170033   1.871   3.970   3.895 -0.3138  0.5783 -1.0169
16206TIP3    H270034   1.855   4.076   4.002  0.0345 -0.4756  0.0984
16207TIP3   OH270035   4.672   2.337  14.199 -0.2096  0.4456 -0.3904
16207TIP3    H170036   4.624   2.262  14.234 -0.6197  0.5319 -0.7560
16207TIP3    H270037   4.634   2.413  14.243  0.5705  0.3975  0.3740
16208TIP3   OH270038   6.230   3.451   1.459  0.5388 -0.3502 -0.0842
16208TIP3    H170039   6.273   3.370   1.431 -0.0188 -0.1662 -1.5588
16208TIP3    H270040   6.267   3.468   1.546  3.2492 -0.3506 -1.1139
16209TIP3   OH270041   1.837   4.556  12.342 -0.3777 -0.1637 -0.1348
16209TIP3    H170042   1.868   4.561  12.433 -1.8271  0.2044  0.3687
16209TIP3    H270043   1.761   4.498  12.346  0.6308 -1.6468 -1.4578
16210TIP3   OH270044   4.725   3.848  14.751  0.1354 -0.2595 -0.5635
16210TIP3    H170045   4.658   3.899  14.706 -0.1211 -0.1716 -0.0825
16210TIP3    H270046   4.806   3.896  14.736  0.1554 -0.5379 -1.4265
16211TIP3   OH270047   5.816   2.505   1.302 -0.2297 -0.2482 -0.1462
16211TIP3    H170048   5.814   2.409   1.297 -0.7121 -0.2113 -0.6568
16211TIP3    H270049   5.865   2.523   1.382 -1.6844 -0.9479  0.9584
16212TIP3   OH270050   0.193   6.194  11.813  0.2107 -0.0595  0.0388
16212TIP3    H170051   0.225   6.103  11.814  1.0475  0.1977  2.5653
16212TIP3    H270052   0.270   6.246  11.789  0.9866  0.2909  2.9793
16213TIP3   OH270053   3.838   0.397   1.248  0.6201  0.0794 -0.3097
16213TIP3    H170054   3.904   0.378   1.315  0.1302 -0.3723  0.0565
16213TIP3    H270055   3.888   0.427   1.172  1.2482 -0.2908 -0.0463
16214TIP3   OH270056   1.178   3.326   2.551  0.2009  0.3762  0.2614
16214TIP3    H170057   1.123   3.391   2.595  0.5004  0.7499  0.0843
16214TIP3    H270058   1.173   3.248   2.607  0.3548  0.7546  0.8042
16215TIP3   OH270059   3.103   4.749  14.190  0.2390 -0.4404 -0.3351
16215TIP3    H170060   3.045   4.710  14.256  0.9310  0.5636  0.8992
16215TIP3    H270061   3.151   4.817  14.237  3.1762 -1.8537 -1.0224
16216TIP3   OH270062   0.231   6.641  16.807 -0.1020 -0.2398  0.4820
16216TIP3    H170063   0.263   6.603  16.889 -0.4435 -2.7260 -0.4541
16216TIP3    H270064   0.246   6.574  16.741  0.6990  1.8954 -1.6816
16217TIP3   OH270065   0.044   3.776   5.036 -0.0892 -0.6606 -0.4809
16217TIP3    H170066   0.053   3.771   5.131 -1.2652  1.1496 -0.2164
16217TIP3    H270067   0.131   3.758   5.002  0.6306 -0.1270  1.0174
16218TIP3   OH270068   1.769   0.395  12.345  0.4569  0.1918 -0.2031
16218TIP3    H170069   1.708   0.408  12.272 -1.5061  0.1768  1.3314
16218TIP3    H270070   1.723   0.336  12.404  2.3523 -0.4867  0.6819
16219TIP3   OH270071   1.376   0.500   6.322 -0.0140 -0.3696  0.0702
16219TIP3    H170072   1.463   0.477   6.289  0.1788  1.9573 -1.3004
16219TIP3    H270073   1.385   0.590   6.353 -1.7419 -0.3624  0.6460
16220TIP3   OH270074   1.088   1.699   0.640  0.6072 -0.0158  0.3567
16220TIP3    H170075   1.145   1.714   0.715 -0.6029 -0.0494  1.3191
16220TIP3    H270076   1.000   1.720   0.672  0.1141  0.3979 -1.1856
16221TIP3   OH270077   0.058   2.389  12.554  0.0116 -0.4172 -0.4804
16221TIP3    H170078   0.144   2.392  12.597  0.0558  3.3153 -0.5114
16221TIP3    H270079   0.006   2.454  12.601 -3.6062 -3.8299  0.7947
16222TIP3   OH270080   4.267   1.873  15.686  0.1788 -0.1896  0.2924
16222TIP3    H170081   4.193   1.933  15.685 -0.4128 -0.7755  2.5780
16222TIP3    H270082   4.337   1.922  15.729  0.7231 -0.0827 -0.6949
16223TIP3   OH270083   1.913   3.032  15.145  0.5630 -0.1588  0.3832
16223TIP3    H170084   1.954   3.003  15.064 -2.4082 -0.1186 -1.2844
16223TIP3    H270085   1.910   2.953  15.200 -1.2874 -1.4002 -1.3627
16224TIP3   OH270086   3.274   1.819   1.470 -0.0048 -0.2443  0.1129
16224TIP3    H170087   3.210   1.791   1.536 -1.7945 -0.1428 -1.5022
16224TIP3    H270088   3.256   1.764   1.394  1.7317 -0.0655 -0.4660
16225TIP3   OH270089   0.229   0.205   0.918 -0.5248  0.2151  0.4171
16225TIP3    H170090   0.255   0.288   0.959 -0.0014 -0.9511  2.5605
16225TIP3    H270091   0.192   0.153   0.989  1.4539 -2.3429 -0.2475
16226TIP3   OH270092   1.285   2.583   3.203 -0.2324 -0.1580  0.1009
16226TIP3    H170093   1.375   2.608   3.184 -0.4301  0.6452  0.2008
16226TIP3    H270094   1.232   2.656   3.172 -0.9648 -1.1893 -1.1787
16227TIP3   OH270095   4.193   0.296  16.162 -0.1894 -0.1316  0.1853
16227TIP3    H170096   4.241   0.375  16.137 -2.3527  1.0473 -0.4887
16227TIP3    H270097   4.169   0.255  16.078  0.8412 -1.4763  0.5301
16228TIP3   OH270098   6.043   6.728   3.254 -0.2120 -0.0804 -0.1089
16228TIP3    H170099   6.116   6.688   3.206  0.6954 -1.0069  1.9133
16228TIP3    H270100   6.002   6.654   3.300 -0.2415  0.9270  1.5347
16229TIP3   OH270101   6.461   4.186   0.442  0.1169  0.0071 -0.2017
16229TIP3    H170102   6.421   4.267   0.411 -0.4441 -0.1608  0.0621
16229TIP3    H270103   6.553   4.208   0.455  0.4952 -0.0138 -2.3809
16230TIP3   OH270104   2.886   4.308  16.471  0.3397 -0.1146 -0.0591
16230TIP3    H170105   2.881   4.403  16.469 -0.6697 -0.1570 -0.1493
16230TIP3    H270106   2.881   4.285  16.563 -1.7270 -0.1573 -0.1429
16231TIP3   OH270107   3.674   3.827  16.019 -0.2075  0.6375  0.1957
16231TIP3    H170108   3.594   3.827  16.072 -0.8703  0.7566 -0.7617
16231TIP3    H270109   3.741   3.865  16.075 -0.3894 -1.0810  1.6531
16232TIP3   OH270110   2.465   1.019   4.090  0.7234  0.0828 -0.0030
16232TIP3    H170111   2.472   0.949   4.024 -3.0032  0.6991 -1.3280
16232TIP3    H270112   2.422   0.977   4.164 -1.3145  0.7888 -0.7129
16233TIP3   OH270113   6.533   6.345  15.978 -0.0575  0.4172 -0.4114
16233TIP3    H170114   6.488   6.346  16.063  0.6742 -0.4429  0.0075
16233TIP3    H270115   6.626   6.349  16.000  0.1806 -0.6698 -1.1166
16234TIP3   OH270116   5.266   6.751  14.827 -0.4297  0.3097  0.7142
16234TIP3    H170117   5.360   6.757  14.814 -0.4464 -0.4173  0.2288
16234TIP3    H270118   5.229   6.810  14.761 -0.3728 -0.7005 -0.2457
16235TIP3   OH270119   0.560   2.887  17.004 -0.4572 -0.0127 -0.4517
16235TIP3    H170120   0.481   2.928  17.039  1.0914  1.1203  1.9095
16235TIP3    H270121   0.589   2.947  16.935 -0.0111  1.1828  0.7505
16236TIP3   OH270122   0.826   0.665  11.441 -0.0104  0.1763 -0.3944
16236TIP3    H170123   0.839   0.744  11.389 -1.1491  0.0546 -0.8874
16236TIP3    H270124   0.735   0.640  11.425 -0.2749 -0.1126  1.3208
16237TIP3   OH270125   1.051   5.269  14.256 -0.1968 -0.3918  0.1133
16237TIP3    H170126   1.114   5.312  14.198 -0.6231  0.2795  0.1393
16237TIP3    H270127   1.007   5.341  14.301  0.8640 -0.9156  2.0932
16238TIP3   OH270128   1.810   6.695   0.934 -0.6253  0.5546  0.6927
16238TIP3    H170129   1.729   6.737   0.964 -0.5526  1.6783 -0.5449
16238TIP3    H270130   1.819   6.725   0.843 -0.5247 -2.1401 -0.2874
16239TIP3   OH270131   3.255   1.753   3.377 -0.0727  0.3465  0.4532
16239TIP3    H170132   3.343   1.786   3.391  1.1559 -1.6653 -1.8021
16239TIP3    H270133   3.218   1.811   3.310  0.1882  0.1608  0.1481
16240TIP3   OH270134   4.764   3.157   3.868 -0.3266 -0.0682  0.5028
16240TIP3    H170135   4.715   3.094   3.921 -2.0453 -1.7398 -2.7540
16240TIP3    H270136   4.706   3.233   3.863 -0.1907  0.0673  0.9477
16241TIP3   OH270137   4.829   5.365   4.927  0.0766  0.5044 -0.2580
16241TIP3    H170138   4.830   5.460   4.931 -1.7767  0.5527  0.2689
16241TIP3    H270139   4.894   5.342   4.861 -0.6428  2.2306 -1.6303
16242TIP3   OH270140   2.855   2.200  13.695 -0.3368  0.2894  0.2348
16242TIP3    H170141   2.764   2.210  13.725  0.1114  1.4554  1.2981
16242TIP3    H270142   2.908   2.216  13.773  0.8090  0.4787 -0.5611
16243TIP3   OH270143   2.523   3.500  14.427 -0.2317 -0.6210  0.8824
16243TIP3    H170144   2.576   3.462  14.356 -0.1234 -2.6852  1.9798
16243TIP3    H270145   2.537   3.594  14.420  4.0674 -1.0408  1.4395
16244TIP3   OH270146   3.702   1.329   2.914 -0.7567 -0.0364  0.4216
16244TIP3    H170147   3.617   1.288   2.900 -0.9055  0.9899 -2.6385
16244TIP3    H270148   3.683   1.423   2.917  0.3309  0.5340 -3.6226
16245TIP3   OH270149   6.622   1.610   3.149  0.2218  0.0504  0.3016
16245TIP3    H170150   6.556   1.668   3.110  0.4337  0.5997  0.7484
16245TIP3    H270151   6.703   1.660   3.146  0.3096 -0.0260  1.1396
16246TIP3   OH270152   1.991   1.315   2.931 -0.5189 -0.6953  0.1840
16246TIP3    H170153   2.056   1.257   2.891  0.1398  0.0416  0.1746
16246TIP3    H270154   2.029   1.338   3.016 -0.7756 -0.2693  0.1818
16247TIP3   OH270155   2.801   0.718  10.259  0.6524  0.1920 -0.4504
16247TIP3    H170156   2.864   0.688  10.325  1.2197  1.1605 -0.5411
16247TIP3    H270157   2.820   0.665  10.182  0.4367 -0.4700 -0.0571
16248TIP3   OH270158   3.370   3.609   3.542 -0.0766 -0.1162  0.1332
16248TIP3    H170159   3.285   3.564   3.544  0.2691 -0.7604  0.6290
16248TIP3    H270160   3.350   3.698   3.569 -0.5356 -0.3822  0.6992
16249TIP3   OH270161   1.977   2.587   5.992  0.3224 -0.4192  0.2230
16249TIP3    H170162   1.927   2.515   6.030  1.8668 -1.4166  0.4575
16249TIP3    H270163   1.919   2.624   5.925 -0.0866 -2.6694 -0.7707
16250TIP3   OH270164   5.994   6.591   1.278  0.2849 -0.1358  0.1421
16250TIP3    H170165   6.076   6.573   1.233 -0.0079  0.2531 -0.5695
16250TIP3    H270166   5.960   6.669   1.235 -0.8138 -0.7066 -0.0596
16251TIP3   OH270167   6.498   1.580  10.377  0.2437 -0.1755  0.0612
16251TIP3    H170168   6.558   1.590  10.304 -0.4393  0.3237 -0.4430
16251TIP3    H270169   6.411   1.578  10.337 -0.0985 -0.6173  0.7996
16252TIP3   OH270170   5.127   1.828  10.600 -0.7545  0.0793  0.0680
16252TIP3    H170171   5.155   1.766  10.667  1.0926  1.8348  1.0183
16252TIP3    H270172   5.032   1.831  10.609 -0.5451  1.6979  4.1160
16253TIP3   OH270173   5.388   5.568   2.195 -0.7898 -0.0983 -0.5962
16253TIP3    H170174   5.381   5.479   2.230 -0.4734  0.3923  0.7492
16253TIP3    H270175   5.373   5.625   2.270 -0.4124  0.9886 -1.3258
16254TIP3   OH270176   5.195   2.656   3.187 -0.3409  0.3189  0.1834
16254TIP3    H170177   5.229   2.711   3.116  0.7620 -1.3803 -0.6569
16254TIP3    H270178   5.273   2.627   3.235 -0.9801  0.3341  1.2704
16255TIP3   OH270179   4.403   2.059   0.757 -0.3879  0.3977  0.0246
16255TIP3    H170180   4.322   2.107   0.740 -1.6116 -1.6763 -0.4171
16255TIP3    H270181   4.373   1.973   0.787  1.6313 -0.6586 -0.8053
16256TIP3   OH270182   6.627   3.707  13.856  0.0177 -0.4144 -0.2154
16256TIP3    H170183   6.629   3.622  13.813 -0.1191 -0.7143  0.3605
16256TIP3    H270184   6.535   3.734  13.853  0.2388  0.2742 -1.4585
16257TIP3   OH270185   5.088   4.497  15.776  0.2798 -0.4278 -0.1538
16257TIP3    H170186   5.146   4.488  15.701 -1.1481  1.0809 -1.5121
16257TIP3    H270187   5.055   4.409  15.792 -0.3421 -0.5913 -2.1251
16258TIP3   OH270188   2.524   5.318   3.227  0.1638 -0.2304  0.1588
16258TIP3    H170189   2.450   5.359   3.272 -1.0133 -1.6316 -0.4101
16258TIP3    H270190   2.507   5.334   3.134  1.2814  0.5422  0.0658
16259TIP3   OH270191   3.625   4.375   4.094 -0.5441 -0.4567  0.1636
16259TIP3    H170192   3.603   4.353   4.184  0.4973  0.5964  0.6971
16259TIP3    H270193   3.634   4.470   4.094 -1.1234 -0.3796 -1.1963
16260TIP3   OH270194   1.261   2.971   5.440 -0.1817  0.2431 -0.5215
16260TIP3    H170195   1.186   2.964   5.498  0.1906  1.8354  0.2159
16260TIP3    H270196   1.223   2.981   5.353 -0.8564  1.3480 -0.1215
16261TIP3   OH270197   4.276   2.524  12.396  0.0364 -0.1343  0.7679
16261TIP3    H170198   4.196   2.484  12.361 -0.3392  1.1212  0.1257
16261TIP3    H270199   4.345   2.495  12.337 -0.1844 -0.0766  0.4780
16262TIP3   OH270200   2.953   4.684   4.441  0.4307  0.4328 -0.1675
16262TIP3    H170201   2.919   4.626   4.509  2.0320  0.1706  0.4394
16262TIP3    H270202   2.910   4.654   4.361  0.2924 -0.7880  0.3358
16263TIP3   OH270203   5.351   5.321  16.246  0.5157  0.1292  0.2899
16263TIP3    H170204   5.327   5.401  16.199  1.0664 -0.9444 -1.9279
16263TIP3    H270205   5.278   5.261  16.230  1.2322 -0.6358 -0.1482
16264TIP3   OH270206   2.930   0.656   0.419 -0.8526  0.7569 -0.3935
16264TIP3    H170207   2.982   0.576   0.413 -2.0274 -0.2373  1.5648
16264TIP3    H270208   2.864   0.647   0.350 -0.0884  0.7511 -1.1326
16265TIP3   OH270209   2.777   3.007  14.958  0.1796 -0.2450 -0.3855
16265TIP3    H170210   2.686   3.031  14.942 -0.7966 -2.7630  0.7649
16265TIP3    H270211   2.792   3.029  15.050  0.7262  0.1003 -0.5487
16266TIP3   OH270212   0.566   6.105  11.524  0.1638 -0.0946  0.1852
16266TIP3    H170213   0.483   6.060  11.510  0.0120  0.6545 -1.5099
16266TIP3    H270214   0.551   6.158  11.603 -1.7342  1.6286 -1.2248
16267TIP3   OH270215   6.338   5.524   2.151 -0.0327  0.1213  0.8100
16267TIP3    H170216   6.410   5.546   2.210 -0.6518 -0.4774  1.8193
16267TIP3    H270217   6.358   5.435   2.121  0.1398  0.3204  0.3295
16268TIP3   OH270218   1.000   0.192  14.208 -0.0151  0.4345 -0.2277
16268TIP3    H170219   1.015   0.230  14.122  0.5707 -1.4610 -1.0107
16268TIP3    H270220   1.007   0.098  14.195 -2.0078 -0.0430  1.4950
16269TIP3   OH270221   2.725   2.755  14.404 -0.1042  0.4907 -0.6795
16269TIP3    H170222   2.655   2.806  14.444  0.2486  1.5766 -1.3959
16269TIP3    H270223   2.765   2.708  14.477 -0.0751  1.6876  0.1074
16270TIP3   OH270224   1.443   2.325  15.280 -0.1785 -0.6888 -0.3425
16270TIP3    H170225   1.378   2.370  15.333  1.7901 -0.2845  1.9128
16270TIP3    H270226   1.473   2.391  15.217 -0.4789 -0.2355 -0.0141
16271TIP3   OH270227   2.435   4.237   4.926 -0.5588 -0.5479  0.3404
16271TIP3    H170228   2.382   4.166   4.889 -0.1873 -1.0721  0.7989
16271TIP3    H270229   2.522   4.199   4.937 -0.3112  0.0374  0.4287
16272TIP3   OH270230   3.026   6.566   5.415 -0.3249 -0.7359 -0.4288
16272TIP3    H170231   2.945   6.603   5.380  0.9072  1.1795 -1.4134
16272TIP3    H270232   3.022   6.473   5.393 -1.6815 -0.4324 -1.5614
16273TIP3   OH270233   4.112   0.937  15.481 -0.0439 -0.2155  0.4564
16273TIP3    H170234   4.022   0.959  15.459  0.1965 -0.5258 -0.9224
16273TIP3    H270235   4.107   0.901  15.570 -1.7619 -3.1373 -0.6739
16274TIP3   OH270236   2.875   1.635   2.567  0.5195 -0.2294  0.1589
16274TIP3    H170237   2.911   1.555   2.528  0.5347  0.6254 -1.6874
16274TIP3    H270238   2.781   1.619   2.574  0.3962 -0.1185 -1.0284
16275TIP3   OH270239   5.039   2.634  15.248  0.1262  0.1321 -0.5660
16275TIP3    H170240   5.038   2.543  15.220 -0.4300 -0.2303  0.5569
16275TIP3    H270241   4.959   2.672  15.212  1.5344  0.9065 -3.1538
16276TIP3   OH270242   0.433   3.118  13.647 -0.0284  0.5855 -0.3923
16276TIP3    H170243   0.339   3.130  13.638 -0.9026 -2.5290  2.2707
16276TIP3    H270244   0.457   3.059  13.575 -0.3964  0.3577 -0.3295
16277TIP3   OH270245   6.539   6.273  11.775  0.4987  0.6992  0.0438
16277TIP3    H170246   6.510   6.326  11.849  0.2249 -0.2069  0.6133
16277TIP3    H270247   6.597   6.330  11.725  0.1119  1.5619  0.5555
16278TIP3   OH270248   5.576   2.662   5.989  0.2245 -0.5889  0.3895
16278TIP3    H170249   5.576   2.658   6.085 -0.3587 -0.2832  0.4084
16278TIP3    H270250   5.550   2.752   5.969 -0.4904 -0.8867 -0.0552
16279TIP3   OH270251   2.165   4.554   1.658  0.5458 -0.1139  0.2356
16279TIP3    H170252   2.093   4.532   1.718  0.7163 -1.8323 -0.1413
16279TIP3    H270253   2.151   4.646   1.637 -0.0130  0.3116  2.2289
16280TIP3   OH270254   3.175   4.132  14.122  0.8014  0.2229 -0.4516
16280TIP3    H170255   3.091   4.175  14.112  1.7091  2.2960  0.3251
16280TIP3    H270256   3.153   4.044  14.153 -1.0302  1.1445  1.0520
16281TIP3   OH270257   6.020   6.412  12.040  0.5785 -0.3441 -0.2004
16281TIP3    H170258   6.019   6.420  12.135 -1.2708 -0.1872 -0.2039
16281TIP3    H270259   6.091   6.469  12.012  0.8857 -0.0803  1.0552
16282TIP3   OH270260   2.271   0.807  11.040 -0.2067  0.0023 -0.7503
16282TIP3    H170261   2.243   0.860  10.965 -1.5864  0.8812  0.3538
16282TIP3    H270262   2.195   0.804  11.098 -0.0235 -2.7670 -0.4912
16283TIP3   OH270263   2.884   1.183  14.101 -0.2919 -0.1540 -0.4557
16283TIP3    H170264   2.793   1.204  14.079 -0.6292 -0.7328  0.3369
16283TIP3    H270265   2.928   1.268  14.104 -0.9764  0.1977 -0.1043
16284TIP3   OH270266   1.490   2.267   5.183 -0.1696  0.1760 -0.3471
16284TIP3    H170267   1.447   2.181   5.182  1.1060 -0.5099  0.5175
16284TIP3    H270268   1.420   2.329   5.163 -1.5813 -0.8740  1.1193
16285TIP3   OH270269   3.763   0.688  16.411 -0.3282  0.2767  0.0822
16285TIP3    H170270   3.717   0.738  16.479  0.9313  1.2487  0.2583
16285TIP3    H270271   3.761   0.597  16.442  0.8214  0.7882  1.8108
16286TIP3   OH270272   2.169   3.808   1.862 -0.0741  0.0605 -0.1243
16286TIP3    H170273   2.111   3.862   1.916 -0.7300 -0.2108 -0.5422
16286TIP3    H270274   2.256   3.844   1.877 -0.3306  0.4053  0.6043
16287TIP3   OH270275   6.197   1.080  12.056 -0.6405  0.0800  0.3550
16287TIP3    H170276   6.180   1.146  11.989 -1.0374 -0.0575  0.3220
16287TIP3    H270277   6.289   1.055  12.042  0.0278  1.7986  1.4013
16288TIP3   OH270278   5.919   1.150   4.462  0.3176  0.3048  0.7562
16288TIP3    H170279   5.965   1.182   4.539  2.3383  0.9579 -0.6580
16288TIP3    H270280   5.988   1.117   4.404 -1.0718  0.3398 -1.0158
16289TIP3   OH270281   6.739   2.364   0.095  0.0607 -0.4387 -0.2042
16289TIP3    H170282   6.803   2.307   0.139  0.5119 -0.7061 -1.1694
16289TIP3    H270283   6.792   2.420   0.039 -0.4622  0.3015  0.0290
16290TIP3   OH270284   1.626   3.129  17.032 -0.1690  0.2387 -0.3131
16290TIP3    H170285   1.647   3.125  16.939  0.3343  1.5999 -0.2843
16290TIP3    H270286   1.557   3.195  17.039 -1.1004 -0.7447  0.1572
16291TIP3   OH270287   3.276   0.504  15.100 -0.0567  0.1800  0.3391
16291TIP3    H170288   3.239   0.562  15.166 -1.7112 -1.1794  0.6751
16291TIP3    H270289   3.355   0.549  15.070 -1.3895  2.7520  0.3521
16292TIP3   OH270290   2.176   3.094   1.485 -0.1402  0.0656  0.2882
16292TIP3    H170291   2.265   3.099   1.520  0.3958 -0.2526 -0.9811
16292TIP3    H270292   2.121   3.086   1.563  0.8985  0.6194  1.1189
16293TIP3   OH270293   1.897   2.959   5.844  0.3374 -0.8422  0.2805
16293TIP3    H170294   1.831   3.017   5.805  1.6925 -0.0303 -0.9046
16293TIP3    H270295   1.850   2.878   5.861 -1.0893 -0.1181 -0.0478
16294TIP3   OH270296   4.538   1.016  11.479  0.1536 -0.2868 -0.1848
16294TIP3    H170297   4.452   1.054  11.499 -0.0772  0.0783 -1.7491
16294TIP3    H270298   4.543   0.939  11.535 -0.8993  0.0676  0.4360
16295TIP3   OH270299   3.982   0.453   1.952  0.9969 -0.1726 -0.6798
16295TIP3    H170300   3.894   0.416   1.944  0.9171 -0.1141 -0.0865
16295TIP3    H270301   3.969   0.538   1.993  1.3631 -0.3010 -0.2944
16296TIP3   OH270302   0.815   3.317   2.427 -0.3716 -0.5100  0.1049
16296TIP3    H170303   0.804   3.222   2.433 -2.5575 -0.2368  1.5945
16296TIP3    H270304   0.910   3.331   2.435 -0.1708 -2.4767  2.1507
16297TIP3   OH270305   3.592   6.059  12.919 -0.1091 -0.0781 -0.2743
16297TIP3    H170306   3.668   6.116  12.930 -0.4861  0.3224  0.3050
16297TIP3    H270307   3.568   6.033  13.008  1.4714 -3.0604 -0.6248
16298TIP3   OH270308   0.002   2.680  16.936 -0.1483  0.0296 -0.0392
16298TIP3    H170309  -0.089   2.702  16.958  0.2330  1.9625 -0.2115
16298TIP3    H270310   0.022   2.737  16.862  1.2633 -0.2566  0.1077
16299TIP3   OH270311   2.587   6.806   3.361 -0.1081 -0.6138  0.0050
16299TIP3    H170312   2.509   6.845   3.319 -0.1645 -2.3032 -1.6367
16299TIP3    H270313   2.563   6.797   3.453 -1.5072 -0.2332 -0.2968
16300TIP3   OH270314   4.273   5.302  16.982  0.4716 -0.0863  0.2519
16300TIP3    H170315   4.329   5.225  16.970  2.1416  1.0623  0.2087
16300TIP3    H270316   4.334   5.376  16.980 -0.9737  1.1925  1.0954
16301TIP3   OH270317   1.764   5.876   5.304  0.1145  0.2375 -0.4749
16301TIP3    H170318   1.848   5.881   5.348 -0.8814 -0.0005  1.5718
16301TIP3    H270319   1.777   5.813   5.233  1.3203 -0.7464  0.5875
16302TIP3   OH270320   6.016   5.912  11.620  0.2168  0.1435  0.0925
16302TIP3    H170321   6.028   5.994  11.666 -1.0165 -0.4675  1.6052
16302TIP3    H270322   6.030   5.845  11.687  0.0929 -0.8375 -0.8367
16303TIP3   OH270323   6.112   3.080  11.400 -0.2043  0.0580 -0.2421
16303TIP3    H170324   6.028   3.082  11.445 -0.2704  1.5727 -0.3758
16303TIP3    H270325   6.092   3.050  11.311 -0.3459 -1.1265  0.1691
16304TIP3   OH270326   4.089   1.659  15.653  0.3867  0.3090  0.4322
16304TIP3    H170327   4.149   1.733  15.638 -0.2205  0.6042 -0.6544
16304TIP3    H270328   4.010   1.682  15.604 -0.0402 -0.7839  0.5811
16305TIP3   OH270329   5.871   5.180   2.919  0.7178  0.2616 -0.7259
16305TIP3    H170330   5.865   5.148   3.008  1.0814  1.2287 -0.3376
16305TIP3    H270331   5.791   5.232   2.907  1.8078  2.1810 -0.0891
16306TIP3   OH270332   5.973   6.550  16.456 -0.3695 -0.3022  0.0352
16306TIP3    H170333   5.944   6.608  16.526  0.7645  2.4245 -1.5853
16306TIP3    H270334   6.066   6.569  16.447  0.1529 -2.7263 -0.3521
16307TIP3   OH270335   4.961   0.243  14.717  0.1486  0.7193  0.3675
16307TIP3    H170336   4.867   0.261  14.724 -0.1350 -0.8337  0.9325
16307TIP3    H270337   4.978   0.175  14.782  1.7894  1.3331  0.6373
16308TIP3   OH270338   4.460   6.553   5.075 -0.8197 -0.1595 -0.8090
16308TIP3    H170339   4.434   6.640   5.105  1.5114  0.8974 -1.6630
16308TIP3    H270340   4.452   6.557   4.980  0.0297 -0.6183 -0.9050
16309TIP3   OH270341   6.796   3.606  11.205 -0.3176 -0.5054  0.2283
16309TIP3    H170342   6.815   3.686  11.156 -1.8068  1.2305  2.2541
16309TIP3    H270343   6.765   3.638  11.290  0.0780 -3.2976  1.5107
16310TIP3   OH270344   2.686   5.177   1.854  0.0211  0.3282  0.0140
16310TIP3    H170345   2.641   5.143   1.777  1.4664 -1.8577  0.0299
16310TIP3    H270346   2.630   5.247   1.886 -2.0821 -0.6387 -1.3385
16311TIP3   OH270347   5.199   5.028  13.949 -0.0424 -0.0732 -0.3315
16311TIP3    H170348   5.204   5.104  14.007  2.2044  0.4374 -1.0839
16311TIP3    H270349   5.247   4.959  13.995  2.2226  0.4885 -1.6809
16312TIP3   OH270350   4.334   3.181  15.350 -0.0387  0.2460 -0.1144
16312TIP3    H170351   4.308   3.126  15.424 -0.2631 -0.9057 -1.0189
16312TIP3    H270352   4.275   3.156  15.279  0.4888  0.9694 -0.8246
16313TIP3   OH270353   5.277   6.726   5.028 -0.0310  0.1445 -0.3201
16313TIP3    H170354   5.306   6.811   4.995 -0.1095 -0.8185 -3.1599
16313TIP3    H270355   5.186   6.719   5.000  0.0015 -0.8866 -0.2132
16314TIP3   OH270356   6.059   6.222  14.276  0.4370  0.3312 -0.2076
16314TIP3    H170357   6.137   6.265  14.312  0.1404  0.3397  0.4304
16314TIP3    H270358   6.074   6.129  14.292  0.2561  0.3439  0.0357
16315TIP3   OH270359   2.756   1.195   5.422 -0.6188  0.1387 -0.2258
16315TIP3    H170360   2.773   1.198   5.328 -1.4128 -0.5348 -0.3986
16315TIP3    H270361   2.837   1.159   5.459  0.8485  3.1000 -0.2934
16316TIP3   OH270362   2.119   4.462   5.583  0.7085 -0.2787  0.3317
16316TIP3    H170363   2.188   4.417   5.633  0.8747 -0.2690  0.1091
16316TIP3    H270364   2.061   4.391   5.555  1.1355 -0.3931 -0.2785
16317TIP3   OH270365   2.956   1.873  12.802 -0.0763 -0.6551  0.0909
16317TIP3    H170366   2.945   1.921  12.884 -4.0781 -2.8791  1.1156
16317TIP3    H270367   3.050   1.853  12.799  0.6052  1.3950  2.9215
16318TIP3   OH270368   1.626   4.692  11.473 -0.4679  0.1462 -0.1465
16318TIP3    H170369   1.619   4.728  11.385 -1.4329  1.3269  0.3929
16318TIP3    H270370   1.543   4.647  11.487 -0.8735  1.1004  0.6313
16319TIP3   OH270371   4.281   0.898   6.453 -0.1126 -0.1836 -0.0517
16319TIP3    H170372   4.245   0.841   6.521 -2.2135  2.1995  1.0180
16319TIP3    H270373   4.257   0.856   6.371 -0.5358 -1.4182  0.6708
16320TIP3   OH270374   0.233   3.916  11.229  0.0034  0.0409  0.2079
16320TIP3    H170375   0.192   3.980  11.288 -2.2362  0.4579 -1.6508
16320TIP3    H270376   0.307   3.964  11.190 -1.4411  1.4950 -0.9032
16321TIP3   OH270377   6.521   4.445   2.522  0.6670 -0.7848  0.6465
16321TIP3    H170378   6.551   4.411   2.438 -1.1681  0.8366 -0.7609
16321TIP3    H270379   6.456   4.381   2.551 -0.4313 -0.1643 -0.3833
16322TIP3   OH270380   3.573   1.069   6.294  0.3030  0.6145  0.4919
16322TIP3    H170381   3.631   1.145   6.298  0.1570  0.6848  1.3587
16322TIP3    H270382   3.594   1.018   6.372  0.4002 -0.2474 -0.0867
16323TIP3   OH270383   1.893   1.175  15.072  0.7314 -0.1457  0.8206
16323TIP3    H170384   1.899   1.087  15.036 -3.0882  0.0784 -0.7782
16323TIP3    H270385   1.929   1.167  15.160  1.8290 -2.8986  0.2415
16324TIP3   OH270386   1.385   3.435   1.258  0.1345  0.5699  0.1953
16324TIP3    H170387   1.302   3.419   1.212  0.4696 -1.1056  0.0903
16324TIP3    H270388   1.445   3.464   1.189  0.2899 -0.7017 -0.2401
16325TIP3   OH270389   5.837   4.781  11.521  0.3801  0.3359  0.4513
16325TIP3    H170390   5.921   4.759  11.561  0.9608  2.7261  0.7227
16325TIP3    H270391   5.860   4.818  11.435 -0.6298 -1.4744 -0.6804
16326TIP3   OH270392   3.726   5.087  14.927 -0.0679  0.3236 -0.4641
16326TIP3    H170393   3.699   5.002  14.892  0.5770 -0.1789  0.2160
16326TIP3    H270394   3.645   5.137  14.934 -1.0066 -1.3351  2.0229
16327TIP3   OH270395   4.669   1.647  14.393  0.1610 -0.2268 -0.0350
16327TIP3    H170396   4.763   1.630  14.386  0.3068  0.9124 -1.2612
16327TIP3    H270397   4.664   1.732  14.437 -0.3392 -0.6919  0.8281
16328TIP3   OH270398   5.952   0.142  13.908  0.2094  0.5250 -0.2409
16328TIP3    H170399   5.882   0.140  13.844 -1.8238  2.3540  1.7343
16328TIP3    H270400   6.007   0.216  13.882 -0.1356  0.7487 -0.3321
16329TIP3   OH270401   5.336   3.053   4.756  0.5150 -0.6267 -0.1082
16329TIP3    H170402   5.280   3.063   4.833  1.5171  0.3214  0.5105
16329TIP3    H270403   5.306   2.971   4.716 -0.0599 -1.1028  1.2449
16330TIP3   OH270404   4.926   1.204   0.525  0.5360 -0.2971  0.5444
16330TIP3    H170405   4.837   1.234   0.506  0.6182  1.1310  2.1526
16330TIP3    H270406   4.974   1.218   0.444  0.0611  2.1222  0.6191
16331TIP3   OH270407   4.965   4.729  13.824  0.0840 -0.7747  0.0279
16331TIP3    H170408   4.902   4.661  13.798  0.9817 -2.2242  1.4579
16331TIP3    H270409   4.911   4.798  13.863 -0.6294 -2.0781  1.4091
16332TIP3   OH270410   3.044   3.125   1.757  0.1250  1.2005  0.2333
16332TIP3    H170411   2.953   3.142   1.780 -0.0408 -0.1135  0.6126
16332TIP3    H270412   3.093   3.191   1.806 -0.6439  2.3784 -0.5303
16333TIP3   OH270413   0.087   6.180   3.532 -0.6057 -0.2486  0.1077
16333TIP3    H170414   0.051   6.257   3.574  0.9368 -1.2631  3.7230
16333TIP3    H270415   0.134   6.213   3.456 -1.0782  2.2141  0.8181
16334TIP3   OH270416   6.477   5.601  14.750  0.5151  0.6162 -0.0088
16334TIP3    H170417   6.414   5.646  14.806  0.2904 -0.0435  0.2738
16334TIP3    H270418   6.451   5.509  14.754  2.9254 -0.0943  2.0990
16335TIP3   OH270419   6.443   2.823   0.123 -0.0145 -0.6242 -0.1277
16335TIP3    H170420   6.527   2.822   0.168 -0.3745  2.0637  0.7709
16335TIP3    H270421   6.378   2.816   0.194 -0.5642  0.6374 -0.4914
16336TIP3   OH270422   4.628   6.217  15.116  0.1993 -0.1034  0.0351
16336TIP3    H170423   4.714   6.176  15.110 -0.4685 -1.5395  0.0903
16336TIP3    H270424   4.618   6.238  15.209 -0.2125 -1.5270  0.3306
16337TIP3   OH270425   1.640   6.166  16.047 -0.6273 -0.6480  0.0635
16337TIP3    H170426   1.592   6.162  16.130 -2.2491  3.0505 -0.4817
16337TIP3    H270427   1.573   6.151  15.981 -0.4510  1.2895 -0.6229
16338TIP3   OH270428   2.690   6.277  14.678  0.1039 -0.1700  0.2572
16338TIP3    H170429   2.773   6.321  14.694  0.0121  0.6814 -1.4127
16338TIP3    H270430   2.681   6.275  14.583 -2.3758  0.9748  0.3584
16339TIP3   OH270431   1.193   5.366   2.477  0.4853 -0.1244  0.6868
16339TIP3    H170432   1.128   5.394   2.541  0.5944 -0.7488  1.0806
16339TIP3    H270433   1.267   5.424   2.491  0.6609 -0.5069  1.4068
16340TIP3   OH270434   3.293   5.202   2.416 -0.4411  0.5630  0.3360
16340TIP3    H170435   3.218   5.166   2.370 -0.1820 -1.2354  1.2131
16340TIP3    H270436   3.359   5.133   2.411  0.4868  1.3558  1.1876
16341TIP3   OH270437   2.219   4.852  16.288 -0.7528  0.2591  0.0811
16341TIP3    H170438   2.207   4.896  16.372  0.0827 -0.8171  0.7856
16341TIP3    H270439   2.289   4.789  16.303 -0.0369  0.5875 -1.6487
16342TIP3   OH270440   2.261   2.920  12.509 -0.3504  0.6637 -0.3198
16342TIP3    H170441   2.169   2.898  12.524  0.4453 -1.2232  2.7801
16342TIP3    H270442   2.283   2.976  12.584  1.5935 -1.0582  0.4767
16343TIP3   OH270443   0.722   2.577  12.973 -0.4900  0.3007  0.6023
16343TIP3    H170444   0.804   2.565  12.926 -0.0783 -0.4603  1.4857
16343TIP3    H270445   0.748   2.611  13.058 -0.9862 -0.9447  1.2753
16344TIP3   OH270446   1.540   2.805  16.028  0.0839  0.1091 -0.0335
16344TIP3    H170447   1.497   2.734  16.076 -0.1497 -0.3346 -0.8684
16344TIP3    H270448   1.563   2.766  15.944 -1.5178  1.4388 -1.1736
16345TIP3   OH270449   2.852   0.930   0.526 -0.0574  0.8901 -0.3049
16345TIP3    H170450   2.914   0.943   0.598 -0.7000  0.3565  0.3678
16345TIP3    H270451   2.880   0.848   0.485 -1.0244 -0.0237  0.7831
16346TIP3   OH270452   3.053   0.219  10.404 -0.2477  0.3828  0.4346
16346TIP3    H170453   3.097   0.194  10.486  0.0427  0.0768  0.1878
16346TIP3    H270454   2.964   0.241  10.431 -0.4600 -0.7522  0.6928
16347TIP3   OH270455   3.245   2.407  13.872  0.2728 -0.2244  0.3605
16347TIP3    H170456   3.301   2.453  13.935 -1.1616 -1.2820  2.5582
16347TIP3    H270457   3.190   2.476  13.835  0.5985  0.3372  0.9043
16348TIP3   OH270458   4.259   1.287  11.402  0.2657 -0.2516 -0.1507
16348TIP3    H170459   4.322   1.349  11.364  0.0080 -0.1396 -0.3977
16348TIP3    H270460   4.197   1.343  11.449 -1.0001 -0.1564 -1.8384
16349TIP3   OH270461   0.249   4.954   4.842  0.2660 -0.4956 -0.1326
16349TIP3    H170462   0.294   4.900   4.778  1.4973 -1.6147  1.5916
16349TIP3    H270463   0.170   4.905   4.864 -0.2155 -0.0582 -0.8065
16350TIP3   OH270464   1.533   1.486   2.950  0.0295  0.4028  0.2044
16350TIP3    H170465   1.496   1.508   2.864 -0.4688  1.1329  0.6022
16350TIP3    H270466   1.619   1.528   2.951  0.6835 -0.8400 -0.5045
16351TIP3   OH270467   1.481   1.884  14.875  0.8184 -0.3064  0.1346
16351TIP3    H170468   1.388   1.880  14.852  1.0625  1.0754 -1.2491
16351TIP3    H270469   1.519   1.807  14.833  0.1779 -1.4990  1.6091
16352TIP3   OH270470   3.943   2.456   3.787 -0.3532 -0.6038  0.0036
16352TIP3    H170471   3.990   2.412   3.716  0.0032  0.7654 -0.6490
16352TIP3    H270472   3.861   2.407   3.795 -0.4333 -0.7635 -1.4294
16353TIP3   OH270473   6.477   6.568  14.751  0.0709 -0.2788  0.3827
16353TIP3    H170474   6.446   6.652  14.784 -0.7851 -0.3556 -0.1948
16353TIP3    H270475   6.445   6.504  14.815 -0.5543 -0.3104  0.0397
16354TIP3   OH270476   1.359   4.652  11.570  0.0066  0.2523  0.4048
16354TIP3    H170477   1.351   4.726  11.630 -3.3006  0.9514 -0.6634
16354TIP3    H270478   1.319   4.683  11.489  0.3757 -2.0739 -0.7528
16355TIP3   OH270479   2.962   3.827   1.204 -0.4289  0.1420  0.4000
16355TIP3    H170480   3.002   3.829   1.117 -0.3102 -1.0184  0.4088
16355TIP3    H270481   2.960   3.734   1.227 -1.4122  0.3447  1.2030
16356TIP3   OH270482   6.010   4.540   3.556  0.1379  0.3130  0.4508
16356TIP3    H170483   6.096   4.501   3.570 -0.4626 -0.9472  0.8626
16356TIP3    H270484   6.013   4.576   3.468  1.5710  1.6768  1.0102
16357TIP3   OH270485   2.471   2.383  15.031  0.0505  0.0395 -0.5904
16357TIP3    H170486   2.533   2.338  15.089 -1.3668  1.6464  2.4474
16357TIP3    H270487   2.388   2.381  15.079 -1.6203  0.2867 -3.2901
16358TIP3   OH270488   3.428   6.749   3.008  0.1708 -0.3797 -0.5639
16358TIP3    H170489   3.423   6.783   3.098 -0.3327 -0.1924 -0.6580
16358TIP3    H270490   3.375   6.669   3.010 -0.1310 -0.1851 -0.7768
16359TIP3   OH270491   1.568   5.221   2.308  0.0502  0.3496  0.4634
16359TIP3    H170492   1.485   5.182   2.337  0.0627  0.1388  0.2233
16359TIP3    H270493   1.567   5.309   2.344 -0.3409  0.3912  0.3525
16360TIP3   OH270494   0.208   3.494   6.094 -0.1371  0.0476  0.1175
16360TIP3    H170495   0.113   3.494   6.094 -0.1373  0.0948  0.1079
16360TIP3    H270496   0.232   3.554   6.165 -0.1138 -0.3267  0.4289
16361TIP3   OH270497   0.864   5.233   4.142 -0.5910  0.4992 -0.8523
16361TIP3    H170498   0.925   5.307   4.140 -0.2751  0.2670 -0.2053
16361TIP3    H270499   0.904   5.170   4.202 -1.6943  0.5324 -0.0495
16362TIP3   OH270500   6.278   5.666   3.954 -0.1573 -0.6389  0.4331
16362TIP3    H170501   6.318   5.734   3.899 -1.8096 -1.3480 -1.8457
16362TIP3    H270502   6.326   5.669   4.036  1.5986  1.4340 -0.5720
16363TIP3   OH270503   5.662   1.323  15.734 -0.4839 -0.3602 -0.3687
16363TIP3    H170504   5.666   1.418  15.744 -0.5643 -0.4614  0.8080
16363TIP3    H270505   5.746   1.299  15.693 -0.3842  0.1904 -0.4879
16364TIP3   OH270506   1.325   0.805   4.570 -0.0577 -0.1657 -0.1896
16364TIP3    H170507   1.373   0.741   4.623 -0.5365  1.4791  2.3816
16364TIP3    H270508   1.285   0.752   4.500  1.9194 -2.1937  0.0855
16365TIP3   OH270509   4.257   6.096   1.476  0.2621 -0.7174 -0.4615
16365TIP3    H170510   4.230   6.059   1.392 -1.4199  0.9538 -0.7159
16365TIP3    H270511   4.347   6.123   1.463  0.0496 -0.5831 -1.6911
16366TIP3   OH270512   2.437   3.422  12.960  0.3658  0.1089  0.1112
16366TIP3    H170513   2.481   3.341  12.987  0.2542 -0.0103 -0.0660
16366TIP3    H270514   2.464   3.435  12.869  0.0975  0.0785  0.0274
16367TIP3   OH270515   2.127   0.106  15.347 -0.0437 -0.0415  0.0847
16367TIP3    H170516   2.172   0.118  15.263 -0.7769  0.3958 -0.2537
16367TIP3    H270517   2.041   0.146  15.334 -0.2677 -0.2240  0.9573
16368TIP3   OH270518   5.417   2.998  13.720 -0.2573 -0.0817  0.2844
16368TIP3    H170519   5.490   3.048  13.757 -0.6576  0.5562  0.2218
16368TIP3    H270520   5.390   3.047  13.643 -0.1759 -0.7969 -0.2086
16369TIP3   OH270521   5.962   6.686   2.844  0.3332 -0.1311  0.3236
16369TIP3    H170522   6.032   6.746   2.817 -1.9164  2.1878 -0.7540
16369TIP3    H270523   5.935   6.718   2.930 -0.0754 -0.3820  0.2910
16370TIP3   OH270524   1.009   5.012  15.723 -0.1030  0.2126  0.3784
16370TIP3    H170525   0.941   4.949  15.701 -0.5186  1.1545 -1.1547
16370TIP3    H270526   1.061   5.020  15.643  2.5806 -1.3522  1.8265
16371TIP3   OH270527   1.215   3.614  16.136 -0.6772 -0.0517  0.1540
16371TIP3    H170528   1.142   3.658  16.180 -0.5437 -0.1358  0.4657
16371TIP3    H270529   1.210   3.523  16.167 -1.5823 -0.5215 -1.2782
16372TIP3   OH270530   2.431   1.839   5.371 -0.2971 -0.0123 -0.0392
16372TIP3    H170531   2.492   1.766   5.375 -1.0294 -0.5974  1.1832
16372TIP3    H270532   2.432   1.876   5.459 -1.4294  0.1891 -0.0921
16373TIP3   OH270533   4.973   2.881   2.948  0.5596 -0.6634 -0.2730
16373TIP3    H170534   5.015   2.905   3.031  1.4022 -0.8751 -0.6272
16373TIP3    H270535   4.892   2.837   2.974  0.3132  0.1572  0.4167
16374TIP3   OH270536   2.660   1.232   3.797  0.1355  0.1020  0.1747
16374TIP3    H170537   2.566   1.228   3.817  0.1326 -0.8253  0.0171
16374TIP3    H270538   2.681   1.325   3.800 -0.7769  0.3147  0.2787
16375TIP3   OH270539   5.377   4.505   5.701 -0.0197 -0.3806 -0.3777
16375TIP3    H170540   5.337   4.522   5.786 -0.6442  0.6014 -0.8504
16375TIP3    H270541   5.322   4.552   5.638  0.9685 -0.3167 -1.2293
16376TIP3   OH270542   1.775   6.420  14.337  0.1374  0.0748  0.2579
16376TIP3    H170543   1.731   6.503  14.321 -1.9149 -0.8378  0.8376
16376TIP3    H270544   1.841   6.414  14.268  0.7248  2.4049  0.5417
16377TIP3   OH270545   6.589   0.291  14.526 -0.2263  0.0734  0.0530
16377TIP3    H170546   6.671   0.336  14.502 -1.2318  2.3797  0.6074
16377TIP3    H270547   6.531   0.307  14.451 -0.7076  0.0072  0.4078
16378TIP3   OH270548   5.917   1.871  16.924  0.3759 -0.1754 -0.4704
16378TIP3    H170549   5.945   1.810  16.856 -0.6294 -0.8177 -0.3282
16378TIP3    H270550   5.935   1.958  16.888 -1.5420 -0.4288 -2.2210
16379TIP3   OH270551   6.109   0.269   1.405 -0.1736 -0.6574  0.1639
16379TIP3    H170552   6.016   0.291   1.402  0.2622  1.9613  2.1199
16379TIP3    H270553   6.149   0.320   1.335  0.1356  0.8565  1.3717
16380TIP3   OH270554   4.150   2.413   4.571  0.2266  0.0006  0.2681
16380TIP3    H170555   4.136   2.424   4.476  0.4730  1.3013  0.3583
16380TIP3    H270556   4.067   2.379   4.603  0.4141 -1.2781 -0.5238
16381TIP3   OH270557   5.970   4.010  14.125  0.1885  0.3676 -0.4695
16381TIP3    H170558   5.929   4.079  14.072 -0.9913  0.7082  0.8272
16381TIP3    H270559   5.906   3.991  14.193  1.1636 -0.9159  0.1299
16382TIP3   OH270560   3.461   5.640  13.975  0.3420  0.4977  0.1742
16382TIP3    H170561   3.543   5.685  13.994  1.1286 -1.4634  1.6444
16382TIP3    H270562   3.401   5.669  14.044 -0.3420  2.0797 -1.0080
16383TIP3   OH270563   6.508   3.795  16.122 -1.0942 -0.0312  0.7337
16383TIP3    H170564   6.526   3.810  16.030  0.5758 -2.0517  0.6584
16383TIP3    H270565   6.412   3.790  16.127 -1.2154  0.3241 -0.8400
16384TIP3   OH270566   2.537   3.039   4.526  0.0532  0.2203  0.0973
16384TIP3    H170567   2.596   3.057   4.599  2.7507  2.4669 -2.3849
16384TIP3    H270568   2.458   3.090   4.546 -0.6600 -1.7971  2.8667
16385TIP3   OH270569   2.182   4.611  16.555 -0.4952 -0.2881  0.3455
16385TIP3    H170570   2.103   4.603  16.500  0.3402  2.2031 -1.4219
16385TIP3    H270571   2.254   4.596  16.494  0.5280  4.0315  0.1942
16386TIP3   OH270572   6.341   6.030   0.535 -0.3548 -0.3634  1.0052
16386TIP3    H170573   6.250   6.048   0.560 -1.1362 -1.0500 -1.0788
16386TIP3    H270574   6.341   5.937   0.512  0.6012 -0.1226 -0.0401
16387TIP3   OH270575   3.919   3.190   0.435  0.4181  0.2164  0.6968
16387TIP3    H170576   3.989   3.228   0.382  0.7142  0.6756  1.4016
16387TIP3    H270577   3.964   3.147   0.507  0.0903 -1.4709 -0.0451
16388TIP3   OH270578   2.358   0.494   4.921  0.3750 -0.2877  0.9366
16388TIP3    H170579   2.393   0.533   4.841  0.7339 -2.3812  0.0024
16388TIP3    H270580   2.292   0.556   4.951  0.5255  0.7505 -0.7492
16389TIP3   OH270581   1.324   2.700   0.418 -0.6019  0.1387 -0.2742
16389TIP3    H170582   1.274   2.709   0.499 -0.4806  0.9193 -0.2820
16389TIP3    H270583   1.260   2.717   0.348 -0.3099  1.2861 -0.2797
16390TIP3   OH270584   3.174   4.459  12.930 -0.1772  0.2861  0.2737
16390TIP3    H170585   3.182   4.434  12.838 -0.1843 -0.3131  0.4291
16390TIP3    H270586   3.128   4.543  12.929  1.5980  1.2826 -0.3675
16391TIP3   OH270587   1.285   3.769  10.419  0.3586  0.3597 -0.0974
16391TIP3    H170588   1.203   3.809  10.389  0.1513 -0.8312 -1.2060
16391TIP3    H270589   1.343   3.843  10.436 -0.8801  1.2255  0.5672
16392TIP3   OH270590   0.026   0.362   2.249  0.1115 -0.6418 -0.1865
16392TIP3    H170591  -0.028   0.294   2.290  0.8570 -0.8209  0.5163
16392TIP3    H270592   0.106   0.365   2.302  2.9960 -3.7098 -3.7935
16393TIP3   OH270593   3.842   5.333   0.232 -0.3565 -0.2513 -0.0092
16393TIP3    H170594   3.840   5.333   0.328 -1.5447  2.0464  0.0374
16393TIP3    H270595   3.778   5.267   0.207 -0.7372 -0.2028  0.8037
16394TIP3   OH270596   2.472   3.119  11.900 -0.2568  0.6510 -0.2339
16394TIP3    H170597   2.422   3.192  11.936 -0.7225  0.3967 -0.3649
16394TIP3    H270598   2.492   3.146  11.810 -0.5140  0.5712 -0.3133
16395TIP3   OH270599   1.683   4.512  12.064 -0.1587  0.2860 -0.6348
16395TIP3    H170600   1.630   4.478  12.136  1.3422 -0.5948  0.1094
16395TIP3    H270601   1.686   4.441  12.001  2.1268 -0.7112  0.4590
16396TIP3   OH270602   3.046   5.024   5.679 -0.0510 -0.5086  0.3918
16396TIP3    H170603   2.983   5.095   5.675 -1.5162 -1.7086  1.1341
16396TIP3    H270604   2.999   4.952   5.722  2.0006 -1.2659  1.5397
16397TIP3   OH270605   0.256   1.083  11.389 -0.0931 -0.5967  0.2745
16397TIP3    H170606   0.166   1.086  11.421 -0.1191  0.9951  0.1725
16397TIP3    H270607   0.276   1.174  11.367  1.2357 -1.0630 -0.5740
16398TIP3   OH270608   0.978   2.126   1.250  0.1435  0.1109  0.1888
16398TIP3    H170609   0.986   2.124   1.155  0.3896  0.9157  0.1836
16398TIP3    H270610   0.901   2.072   1.269 -1.5362  2.0726 -0.6736
16399TIP3   OH270611   3.653   1.719   0.682  0.2165  0.1534  0.0378
16399TIP3    H170612   3.612   1.645   0.726  0.5827 -1.7625 -2.6526
16399TIP3    H270613   3.581   1.764   0.637  0.3841 -0.3746 -0.7754
16400TIP3   OH270614   0.717   4.454  15.246  0.6925 -0.4199  0.6286
16400TIP3    H170615   0.782   4.421  15.309  1.6384  0.0772 -0.0603
16400TIP3    H270616   0.760   4.529  15.205  0.9311 -1.9159 -2.0672
16401TIP3   OH270617   3.112   0.656  14.205 -0.0792  0.2121 -0.4129
16401TIP3    H170618   3.206   0.673  14.215  0.5199 -2.2332 -1.1380
16401TIP3    H270619   3.093   0.591  14.273 -0.8121 -0.6282 -1.4001
16402TIP3   OH270620   1.525   0.378  14.077  0.4093 -0.4206 -0.2463
16402TIP3    H170621   1.620   0.369  14.081  0.3239 -1.2724  0.1535
16402TIP3    H270622   1.497   0.375  14.168 -0.2067 -2.9597 -0.4318
16403TIP3   OH270623   4.182   0.666  16.180 -0.6235  0.4093 -0.2292
16403TIP3    H170624   4.241   0.734  16.147 -0.0910 -0.6495 -1.5255
16403TIP3    H270625   4.123   0.713  16.240  0.9443  1.6561  0.4229
16404TIP3   OH270626   6.385   5.375  15.647 -0.1743  0.0269  0.4006
16404TIP3    H170627   6.295   5.396  15.673 -0.3367  0.7802 -0.7178
16404TIP3    H270628   6.377   5.297  15.591  0.0192 -0.6638  1.3006
16405TIP3   OH270629   3.736   6.317   4.586  0.0074  0.0090  0.1402
16405TIP3    H170630   3.681   6.287   4.659 -0.3228 -0.0380 -0.1293
16405TIP3    H270631   3.678   6.372   4.533 -0.2952 -1.4361 -1.0967
16406TIP3   OH270632   1.839   5.372  12.443  0.0055  0.2319 -0.7318
16406TIP3    H170633   1.806   5.460  12.458 -0.6760  0.1899 -1.9020
16406TIP3    H270634   1.856   5.338  12.531 -3.9496 -0.0870  0.0894
16407TIP3   OH270635   3.254   3.633   5.382 -0.7264 -0.2053 -0.1084
16407TIP3    H170636   3.164   3.606   5.402 -0.2246 -1.2644  0.7973
16407TIP3    H270637   3.307   3.596   5.453  0.4888  0.0322 -0.8624
16408TIP3   OH270638   5.717   0.463   3.946 -0.7730  0.1646  0.3074
16408TIP3    H170639   5.633   0.508   3.960 -0.2359  1.5683 -0.7559
16408TIP3    H270640   5.724   0.454   3.851  0.7855  1.1373  0.2941
16409TIP3   OH270641   5.303   5.241  13.265 -0.0677  0.1547 -0.2900
16409TIP3    H170642   5.283   5.156  13.304 -1.8366  0.1534 -1.0713
16409TIP3    H270643   5.320   5.221  13.173  1.1293  0.4798 -0.1494
16410TIP3   OH270644   0.551   5.116  11.480  0.0054 -0.5746 -0.6387
16410TIP3    H170645   0.623   5.144  11.423 -1.2523  0.9372 -1.5464
16410TIP3    H270646   0.479   5.175  11.459 -0.9216 -0.8053  1.6096
16411TIP3   OH270647   1.452   1.470   3.826  0.2019 -0.4443  0.0982
16411TIP3    H170648   1.530   1.443   3.874 -1.0280  0.0395  2.5047
16411TIP3    H270649   1.420   1.547   3.874 -2.3578 -1.2969 -0.1244
16412TIP3   OH270650   2.737   6.555   3.218 -0.0897 -0.0378 -0.3876
16412TIP3    H170651   2.657   6.513   3.185  0.2913 -0.6937 -0.5044
16412TIP3    H270652   2.706   6.623   3.277 -0.7265 -0.6534  0.0039
16413TIP3   OH270653   4.576   6.697  13.071 -0.0043  0.6998  0.0843
16413TIP3    H170654   4.508   6.761  13.051 -1.2892  0.1416  2.4502
16413TIP3    H270655   4.626   6.736  13.143 -1.8694 -1.5233  2.7863
16414TIP3   OH270656   0.710   2.692  12.601 -0.1337  0.3550  0.0863
16414TIP3    H170657   0.666   2.766  12.644 -0.1955  0.1009  0.4652
16414TIP3    H270658   0.640   2.643  12.559  0.0440  1.2567 -1.3454
16415TIP3   OH270659   5.067   5.940   3.342  0.3241 -0.1315 -0.4640
16415TIP3    H170660   5.129   5.959   3.413 -0.8256 -1.1845  0.8599
16415TIP3    H270661   5.103   5.987   3.267  1.4392  1.2461  0.8606
16416TIP3   OH270662   1.891   5.687   2.649  0.0222  0.3191 -0.0236
16416TIP3    H170663   1.935   5.614   2.692 -0.3759 -0.7211 -1.3163
16416TIP3    H270664   1.960   5.752   2.634  0.9699 -0.9097 -1.2124
16417TIP3   OH270665   5.789   1.893   2.901  0.0224 -0.2320 -0.0647
16417TIP3    H170666   5.722   1.880   2.968  0.8184 -1.4268  0.5251
16417TIP3    H270667   5.767   1.978   2.862 -1.4326 -0.2856  0.5594
16418TIP3   OH270668   3.352   3.799   1.514  0.5861 -0.4161 -0.0144
16418TIP3    H170669   3.337   3.883   1.472  0.7158  0.3879  1.4871
16418TIP3    H270670   3.366   3.738   1.442  0.4822  0.8409 -1.1236
16419TIP3   OH270671   5.327   1.338   4.916 -0.2788 -0.0374  0.8168
16419TIP3    H170672   5.356   1.258   4.960  1.2539 -0.6022 -1.0820
16419TIP3    H270673   5.377   1.408   4.958 -1.6917 -0.0161  2.5469
16420TIP3   OH270674   4.034   2.004   2.521  0.3068  0.6188 -0.0176
16420TIP3    H170675   4.038   1.915   2.555  0.9422 -0.2890 -2.3089
16420TIP3    H270676   3.991   2.054   2.591  0.0386 -1.4316  1.3761
16421TIP3   OH270677   4.930   5.439  16.363 -0.5633 -0.8064 -0.1613
16421TIP3    H170678   4.972   5.518  16.328 -0.4625 -1.2719 -1.1143
16421TIP3    H270679   4.975   5.423  16.446 -1.5382  0.9278  0.7601
16422TIP3   OH270680   6.423   0.360  12.211 -0.1950 -0.0463  0.5305
16422TIP3    H170681   6.489   0.380  12.145 -1.7670 -0.3583 -1.1837
16422TIP3    H270682   6.452   0.408  12.289  1.0872  1.2365 -0.6928
16423TIP3   OH270683   4.996   6.378   4.286  0.1961 -0.5999  0.1127
16423TIP3    H170684   5.027   6.442   4.222 -2.1848  0.0767 -0.4925
16423TIP3    H270685   4.993   6.295   4.237  0.5280 -0.5674  0.0347
16424TIP3   OH270686   4.776   2.386   0.575  0.7744  0.5230 -0.1946
16424TIP3    H170687   4.748   2.467   0.534  1.3999  2.4052  2.7709
16424TIP3    H270688   4.713   2.372   0.646  0.6788 -1.6260 -0.6397
16425TIP3   OH270689   0.722   4.518  16.250  0.2529 -0.8457  0.1003
16425TIP3    H170690   0.717   4.424  16.232 -1.0135 -0.5246 -1.4472
16425TIP3    H270691   0.803   4.546  16.208  0.5037 -1.1933  0.3465
16426TIP3   OH270692   4.701   1.232  11.235  0.0691 -0.2305  0.4061
16426TIP3    H170693   4.795   1.245  11.220  0.2433 -2.6817 -1.0294
16426TIP3    H270694   4.659   1.269  11.158  0.0387 -1.2112 -0.0566
16427TIP3   OH270695   2.157   0.354  13.346 -0.7487  0.7860  0.8948
16427TIP3    H170696   2.155   0.340  13.251  0.7194  0.5496  0.8634
16427TIP3    H270697   2.069   0.384  13.368 -1.2296  0.4790 -0.4815
16428TIP3   OH270698   2.530   5.107   0.034  0.3120  0.0971 -0.2251
16428TIP3    H170699   2.580   5.091   0.114  0.1632 -2.1321 -0.5169
16428TIP3    H270700   2.481   5.026   0.020 -1.1663  1.1686 -1.5236
16429TIP3   OH270701   6.454   2.933   5.527 -0.6063 -0.4028  0.2768
16429TIP3    H170702   6.425   2.904   5.440  1.7426 -2.3931  0.0640
16429TIP3    H270703   6.422   2.866   5.586  1.0600 -1.1164  0.4030
16430TIP3   OH270704   3.787   6.799  11.679  0.1367 -0.3501  0.1733
16430TIP3    H170705   3.800   6.713  11.718  1.5719 -0.1915  0.0796
16430TIP3    H270706   3.698   6.796  11.645  0.5866 -2.2607 -0.9949
16431TIP3   OH270707   2.718   5.318   0.142  0.1849 -0.0811 -0.2350
16431TIP3    H170708   2.742   5.267   0.064 -0.9943  0.1804 -0.7885
16431TIP3    H270709   2.664   5.389   0.108  0.1289  0.3629  0.7676
16432TIP3   OH270710   1.577   6.059  13.743  0.4379 -0.1813 -0.2166
16432TIP3    H170711   1.486   6.087  13.740  0.7435  0.8989  0.2908
16432TIP3    H270712   1.584   5.994  13.673 -0.5359  0.2500 -0.7372
16433TIP3   OH270713   3.609   3.521   6.011 -0.2940 -0.2105 -0.0930
16433TIP3    H170714   3.611   3.607   5.969 -1.3969 -0.9146 -1.6754
16433TIP3    H270715   3.701   3.496   6.018 -0.0245  0.4348 -1.0782
16434TIP3   OH270716   3.207   4.394   5.811 -0.3268  0.3008  0.0567
16434TIP3    H170717   3.144   4.378   5.740 -0.1948  0.1037 -0.0159
16434TIP3    H270718   3.265   4.318   5.809  1.0666  1.3558 -1.0960
16435TIP3   OH270719   2.558   5.632   2.079  0.5938  0.5735 -0.1939
16435TIP3    H170720   2.505   5.647   2.157 -0.7598  0.1354 -1.0115
16435TIP3    H270721   2.648   5.647   2.109  0.1562 -0.0074  1.5576
16436TIP3   OH270722   4.501   2.476   5.490  0.4140  0.0685  0.2255
16436TIP3    H170723   4.445   2.417   5.439 -0.5518  0.1639  1.1418
16436TIP3    H270724   4.486   2.562   5.453 -1.2499  0.3368  1.4268
16437TIP3   OH270725   3.239   1.705  11.343 -0.1621 -0.4031  0.4512
16437TIP3    H170726   3.253   1.786  11.293  0.8171  0.5968  2.2248
16437TIP3    H270727   3.154   1.673  11.313 -0.1906  0.8143 -0.9118
16438TIP3   OH270728   2.681   5.190  15.543  0.6902  0.2170  0.0573
16438TIP3    H170729   2.703   5.251  15.614  2.4834 -2.4889  2.0056
16438TIP3    H270730   2.636   5.118  15.586  2.9916 -2.1567 -1.2403
16439TIP3   OH270731   1.442   2.405  15.927 -0.2598 -0.1493 -0.1145
16439TIP3    H170732   1.424   2.390  16.020  0.3451 -0.7100 -0.0841
16439TIP3    H270733   1.501   2.480  15.926 -1.1375  0.5727 -0.1245
16440TIP3   OH270734   3.090   1.112   3.731  0.0144  0.5098  0.2333
16440TIP3    H170735   3.146   1.090   3.805 -0.1222 -0.3411  0.0963
16440TIP3    H270736   3.041   1.189   3.760  1.4239  1.4328  0.2611
16441TIP3   OH270737   4.605   4.310   3.938  0.1999 -0.1290  0.1985
16441TIP3    H170738   4.546   4.268   4.000  0.2741 -2.3164 -1.1128
16441TIP3    H270739   4.665   4.240   3.911  1.0357  1.0995 -1.2695
16442TIP3   OH270740   1.821   2.547  14.861 -0.2141 -0.1865  0.3095
16442TIP3    H170741   1.821   2.603  14.782 -1.0657 -1.0382 -0.3149
16442TIP3    H270742   1.900   2.493  14.851  1.7396  2.1495  1.8889
16443TIP3   OH270743   2.461   2.451   2.938 -0.0867  0.6730 -0.3353
16443TIP3    H170744   2.441   2.367   2.978  1.2852 -0.7764 -2.4747
16443TIP3    H270745   2.556   2.453   2.930 -0.0496  2.6079 -0.0472
16444TIP3   OH270746   6.150   3.934  10.634 -0.2014  0.2296  0.9101
16444TIP3    H170747   6.118   4.024  10.623  0.8232  0.5517  0.5084
16444TIP3    H270748   6.075   3.880  10.611 -0.8985  0.9719  1.3435
16445TIP3   OH270749   6.484   3.995  14.361 -0.1193 -0.4104 -0.3845
16445TIP3    H170750   6.477   3.906  14.396 -1.1006  0.0463  0.6368
16445TIP3    H270751   6.394   4.023  14.347  0.2051  0.0730 -1.6804
16446TIP3   OH270752   0.031   5.567   1.594  0.2601 -0.2307  0.2821
16446TIP3    H170753   0.101   5.567   1.659 -1.2826  0.1557  2.0242
16446TIP3    H270754   0.011   5.474   1.581  1.1761 -0.3502 -0.3442
16447TIP3   OH270755   3.271   6.283  13.320  0.0056  0.0166 -0.0692
16447TIP3    H170756   3.176   6.295  13.318 -0.0808 -0.7357 -1.3824
16447TIP3    H270757   3.284   6.189  13.314  0.8538  0.1464 -0.4149
16448TIP3   OH270758   4.764   3.057  14.638 -0.1688  0.1664 -0.5447
16448TIP3    H170759   4.696   3.008  14.683 -2.1576  2.9291 -0.2813
16448TIP3    H270760   4.797   3.119  14.703  0.3386  0.9796 -1.5387
16449TIP3   OH270761   4.876   6.419  15.780  0.0423 -0.1823  0.5463
16449TIP3    H170762   4.959   6.410  15.825  0.3391 -0.3461 -0.0219
16449TIP3    H270763   4.864   6.513  15.769  0.0798 -0.1533  0.7588
16450TIP3   OH270764   5.712   4.512  16.730  1.0062 -0.3915 -0.0850
16450TIP3    H170765   5.708   4.480  16.820 -0.3128 -1.5891 -0.5345
16450TIP3    H270766   5.675   4.442  16.678 -0.8641  1.3651 -1.2616
16451TIP3   OH270767   6.262   0.475  13.466 -0.7992 -0.2141 -0.3187
16451TIP3    H170768   6.248   0.408  13.400 -0.8899 -1.4053  0.8769
16451TIP3    H270769   6.181   0.475  13.518 -0.2888 -0.0912  0.4912
16452TIP3   OH270770   1.343   4.068   0.942 -0.3910 -0.0379  0.4095
16452TIP3    H170771   1.265   4.090   0.993 -0.3555 -0.0610  0.4742
16452TIP3    H270772   1.336   4.122   0.863 -0.9226 -0.6769  0.0017
16453TIP3   OH270773   5.621   5.549   4.843 -0.7377 -0.2890  0.3017
16453TIP3    H170774   5.698   5.595   4.875  0.6303 -1.5344 -1.0504
16453TIP3    H270775   5.641   5.528   4.752 -4.1736  2.5234 -1.3671
16454TIP3   OH270776   6.597   0.132   5.379  0.4567 -0.2030  0.0547
16454TIP3    H170777   6.594   0.227   5.381  1.2456 -0.1739  1.6563
16454TIP3    H270778   6.609   0.110   5.287 -0.6901  1.1912 -0.4610
16455TIP3   OH270779   2.029   1.089  14.501 -0.7812  0.2366  0.0802
16455TIP3    H170780   2.053   1.165  14.554 -2.9358  0.8658  0.2379
16455TIP3    H270781   2.086   1.019  14.533  0.1841  1.3931  0.9935
16456TIP3   OH270782   4.001   2.361  14.817 -0.0349  0.4550  0.1757
16456TIP3    H170783   4.001   2.318  14.732 -0.4491 -2.2922  1.4599
16456TIP3    H270784   3.914   2.345  14.853 -0.0197  1.9602  0.9795
16457TIP3   OH270785   0.884   4.200   6.345 -0.0217  0.1395 -0.4714
16457TIP3    H170786   0.949   4.263   6.376  0.7418  0.2282 -2.1246
16457TIP3    H270787   0.932   4.117   6.338 -0.3405 -0.0263 -0.7377
16458TIP3   OH270788   3.948   0.367  14.218 -0.3521 -0.6515  0.1904
16458TIP3    H170789   3.986   0.435  14.274  0.4587 -2.9284  2.6188
16458TIP3    H270790   4.024   0.324  14.179 -0.8880  0.3331 -2.0703
16459TIP3   OH270791   5.238   6.048  14.528  0.4991 -0.1060  0.7085
16459TIP3    H170792   5.187   6.008  14.458  1.6560 -0.4408  0.0229
16459TIP3    H270793   5.179   6.052  14.603 -0.7417  0.1754 -0.2543
16460TIP3   OH270794   2.697   2.806  16.277 -0.7741 -0.2060  0.2309
16460TIP3    H170795   2.662   2.743  16.214 -1.4238 -1.0937  1.4264
16460TIP3    H270796   2.718   2.883  16.225 -4.7370  0.5460 -0.6296
16461TIP3   OH270797   1.071   4.473  12.324 -0.1875  0.1843  0.2101
16461TIP3    H170798   1.022   4.555  12.328  1.6194  1.3569 -0.6043
16461TIP3    H270799   1.037   4.429  12.246  0.4356  1.2860 -0.7204
16462TIP3   OH270800   0.691   4.654  11.677 -0.5966 -0.3716  0.8053
16462TIP3    H170801   0.776   4.686  11.646 -0.5295 -0.3324  1.0285
16462TIP3    H270802   0.650   4.617  11.599 -1.5571  2.0709  0.0814
16463TIP3   OH270803   2.879   6.633   2.863 -0.1740  0.6630 -0.0582
16463TIP3    H170804   2.793   6.592   2.854  0.5211 -0.6828 -0.8587
16463TIP3    H270805   2.860   6.723   2.890 -1.7428 -0.4998  3.3202
16464TIP3   OH270806   5.910   3.707   1.721 -0.0409  0.2138  0.5772
16464TIP3    H170807   5.917   3.753   1.637 -2.1053 -0.4111  0.0039
16464TIP3    H270808   5.936   3.617   1.701 -1.9819 -0.3029  0.1996
16465TIP3   OH270809   1.358   4.436  15.652  0.2743  0.5080  0.1412
16465TIP3    H170810   1.383   4.412  15.563 -1.0889  2.3325 -0.8240
16465TIP3    H270811   1.276   4.485  15.641  0.0314  0.7215  2.4114
16466TIP3   OH270812   1.500   1.142  11.276  0.4664  0.3244 -0.1210
16466TIP3    H170813   1.473   1.224  11.318  0.2282 -0.1840  0.7509
16466TIP3    H270814   1.580   1.164  11.229  1.6270  0.6017  1.8684
16467TIP3   OH270815   3.482   5.369   4.486 -0.0951 -0.3670  0.0789
16467TIP3    H170816   3.545   5.441   4.484 -1.0734  0.5042 -0.7981
16467TIP3    H270817   3.497   5.327   4.570  1.6199 -0.1698 -0.0868
16468TIP3   OH270818   5.021   1.956   3.901 -0.1621  0.4350  0.3944
16468TIP3    H170819   4.995   1.916   3.984 -0.5546  0.7737  0.4354
16468TIP3    H270820   4.980   2.043   3.902  1.2305  1.1139  0.6109
16469TIP3   OH270821   2.601   5.829  13.752 -0.1383 -0.2782  0.5679
16469TIP3    H170822   2.692   5.828  13.782 -0.0793 -0.2699  0.3885
16469TIP3    H270823   2.606   5.852  13.659 -0.4270  1.2909  0.9205
16470TIP3   OH270824   2.331   1.738  15.095 -0.7098 -0.4718  0.3909
16470TIP3    H170825   2.246   1.698  15.080 -0.7660  0.1314 -1.0050
16470TIP3    H270826   2.316   1.832  15.087  0.2201 -0.3925 -0.6892
16471TIP3   OH270827   5.767   1.980  15.367 -0.2808  0.3599  0.7092
16471TIP3    H170828   5.847   1.926  15.371 -0.7176 -0.2307  1.9729
16471TIP3    H270829   5.696   1.917  15.375 -0.8706  0.9527  0.2308
16472TIP3   OH270830   2.157   6.466   4.362  0.3047 -0.2141  0.0263
16472TIP3    H170831   2.085   6.457   4.424  0.5949  0.7265  0.5145
16472TIP3    H270832   2.119   6.440   4.278 -0.0059 -1.7855  0.6250
16473TIP3   OH270833   5.240   3.274  16.364 -0.0709 -0.3653 -0.7802
16473TIP3    H170834   5.153   3.256  16.399  0.0999 -1.9364 -1.1090
16473TIP3    H270835   5.239   3.368  16.347 -0.4421  0.3856  2.6089
16474TIP3   OH270836   0.637   5.567  15.886  0.5489 -0.0675  0.3824
16474TIP3    H170837   0.668   5.612  15.808 -0.0308 -2.2021 -1.1911
16474TIP3    H270838   0.680   5.611  15.959  3.9520 -0.1755 -1.3794
16475TIP3   OH270839   6.013   4.041   5.407 -0.0849 -0.2970 -0.0145
16475TIP3    H170840   6.079   4.077   5.348  0.3344  0.1394  0.7063
16475TIP3    H270841   5.972   3.971   5.357 -0.1802  0.4859 -1.0462
16476TIP3   OH270842   3.664   2.680  12.448  0.0689  0.4780  0.1084
16476TIP3    H170843   3.698   2.769  12.449 -0.6457  0.7792 -0.7178
16476TIP3    H270844   3.575   2.688  12.413  0.1175 -0.5923 -0.3139
16477TIP3   OH270845   0.036   4.225  11.545 -0.4404  0.0445  0.3724
16477TIP3    H170846   0.053   4.225  11.451 -2.5557  3.5498 -0.1792
16477TIP3    H270847   0.117   4.257  11.584 -0.5773  1.6988 -0.6229
16478TIP3   OH270848   4.499   0.581   0.211  0.3372 -0.0600  0.3227
16478TIP3    H170849   4.506   0.588   0.116  1.2663  0.5173  0.4258
16478TIP3    H270850   4.485   0.670   0.241 -2.1605 -0.4770  0.5922
16479TIP3   OH270851   2.400   0.729  14.016  0.0563 -0.1117 -0.2680
16479TIP3    H170852   2.488   0.692  14.025 -0.3283 -1.2246 -0.9069
16479TIP3    H270853   2.368   0.736  14.106  0.4448 -0.5854 -0.0909
16480TIP3   OH270854   6.295   6.785  11.159  1.0698 -0.2059 -0.3879
16480TIP3    H170855   6.314   6.703  11.205 -0.7259 -1.0171 -0.9791
16480TIP3    H270856   6.221   6.823  11.206 -0.0117 -0.4401 -1.8021
16481TIP3   OH270857   6.224   6.679   5.965 -0.1556  0.3296 -0.4132
16481TIP3    H170858   6.210   6.585   5.957 -3.1032  0.4521  1.6303
16481TIP3    H270859   6.292   6.688   6.032  0.2061 -0.3276 -0.6855
16482TIP3   OH270860   4.269   3.252   0.135  0.1448 -0.1722  0.2201
16482TIP3    H170861   4.251   3.249   0.229 -2.0295  1.1965 -0.0737
16482TIP3    H270862   4.292   3.343   0.118  0.9674 -0.5048 -0.5360
16483TIP3   OH270863   3.590   2.987  15.821 -0.3766 -0.2529  0.1413
16483TIP3    H170864   3.635   3.064  15.856  0.2422 -0.5406 -0.0064
16483TIP3    H270865   3.517   3.024  15.770  0.6348  0.3008 -0.9549
16484TIP3   OH270866   3.662   6.720   4.233  0.2523  0.4946 -0.0309
16484TIP3    H170867   3.738   6.751   4.282  2.2624 -1.6275 -1.5778
16484TIP3    H270868   3.593   6.783   4.253  3.0254  3.9607 -0.4542
16485TIP3   OH270869   5.236   2.561   1.576 -0.1241 -0.2410  0.3859
16485TIP3    H170870   5.193   2.645   1.568  0.5458  0.3306  2.2637
16485TIP3    H270871   5.328   2.579   1.555 -0.2906 -0.9130 -1.0367
16486TIP3   OH270872   0.473   2.961   3.470  0.6853  0.2490 -0.0246
16486TIP3    H170873   0.486   3.048   3.432  2.4093 -0.4455 -1.1502
16486TIP3    H270874   0.558   2.937   3.507  0.3842 -1.1522 -0.1694
16487TIP3   OH270875   2.140   5.276  11.603 -0.0039 -0.1710 -0.1638
16487TIP3    H170876   2.094   5.357  11.584  2.3824  2.2068  3.0409
16487TIP3    H270877   2.223   5.284  11.556 -0.4194 -1.6530 -1.2215
16488TIP3   OH270878   4.761   2.824   2.195  0.6834  0.2069 -0.1798
16488TIP3    H170879   4.669   2.849   2.193  0.7740  0.5053 -1.4636
16488TIP3    H270880   4.808   2.906   2.177  1.0673 -0.4394 -2.4335
16489TIP3   OH270881   4.411   2.270  14.710  0.0167  0.0972 -0.2757
16489TIP3    H170882   4.458   2.187  14.718 -0.0105  0.0567 -0.5095
16489TIP3    H270883   4.469   2.324  14.656  0.3562  0.4742  0.4582
16490TIP3   OH270884   5.088   0.481  15.706 -0.1183 -0.2682 -0.0273
16490TIP3    H170885   4.995   0.460  15.701  0.2610 -2.1762  0.3620
16490TIP3    H270886   5.126   0.411  15.759  1.0835  2.1288  2.4783
16491TIP3   OH270887   5.169   0.673  10.647  0.1444  0.1169 -0.3572
16491TIP3    H170888   5.225   0.731  10.596  0.7679  0.5071  0.7423
16491TIP3    H270889   5.214   0.662  10.730 -0.7085 -0.7342  0.0195
16492TIP3   OH270890   6.361   5.612   3.676  0.2797 -0.1024 -0.4700
16492TIP3    H170891   6.276   5.602   3.633  0.7033  0.4364 -1.4626
16492TIP3    H270892   6.340   5.617   3.770 -0.7994  0.2068 -0.7114
16493TIP3   OH270893   0.981   3.057  12.332 -0.0582  0.1111 -0.1462
16493TIP3    H170894   1.000   3.075  12.240  2.1665  0.2876  0.2729
16493TIP3    H270895   0.958   3.143  12.369  0.8646  0.3821 -0.1778
16494TIP3   OH270896   0.450   1.967  13.465  0.3149 -0.0409  0.4558
16494TIP3    H170897   0.530   1.980  13.414  0.2235  0.4144  0.4194
16494TIP3    H270898   0.392   1.919  13.406  0.6656 -0.6484  0.5914
16495TIP3   OH270899   2.080   1.910   2.494 -0.8276 -0.8633  0.4338
16495TIP3    H170900   2.069   2.002   2.470 -0.9875 -0.5664  1.5850
16495TIP3    H270901   1.991   1.880   2.515 -0.5717 -0.7581  1.7932
16496TIP3   OH270902   4.295   2.851   2.516 -0.0140 -0.1899 -0.1784
16496TIP3    H170903   4.285   2.945   2.535  0.6619 -0.0815 -0.3285
16496TIP3    H270904   4.381   2.844   2.474 -0.5150 -0.7354 -1.1509
16497TIP3   OH270905   0.758   3.938   1.689  0.4283  0.2337 -0.2847
16497TIP3    H170906   0.733   4.014   1.742  2.2596 -0.0047  1.0171
16497TIP3    H270907   0.728   3.863   1.739  0.3046  0.0520 -0.6294
16498TIP3   OH270908   3.126   3.014  15.264 -0.0346 -0.1967 -0.2965
16498TIP3    H170909   3.099   2.922  15.267  1.1039 -0.5159  1.2881
16498TIP3    H270910   3.132   3.034  15.171 -1.5519 -1.3259 -0.6876
16499TIP3   OH270911   3.184   6.616   2.833  0.5499 -0.2341  0.2713
16499TIP3    H170912   3.090   6.600   2.827  0.3463  0.2902  1.6559
16499TIP3    H270913   3.213   6.561   2.906  1.4766 -0.9802 -0.6252
16500TIP3   OH270914   6.716   3.849  12.265  0.3008 -0.0456 -0.0080
16500TIP3    H170915   6.671   3.915  12.212  0.7052  1.3992  1.3722
16500TIP3    H270916   6.648   3.786  12.288 -0.2801  0.3134 -0.6885
16501TIP3   OH270917   5.057   1.496  15.054  0.1564  0.1207  0.2167
16501TIP3    H170918   4.984   1.464  15.000 -1.0732  1.0469  1.2558
16501TIP3    H270919   5.056   1.591  15.043  0.2539  0.2730  1.3821
16502TIP3   OH270920   0.053   4.262   5.313 -0.2439 -0.5817 -0.6864
16502TIP3    H170921  -0.012   4.259   5.382  1.1955 -0.2263  0.7413
16502TIP3    H270922   0.042   4.180   5.265 -0.9403 -1.0492  0.2548
16503TIP3   OH270923   4.642   4.968  17.047  0.1085 -0.4960  0.2043
16503TIP3    H170924   4.588   4.946  17.123 -0.1535  0.5467  0.3366
16503TIP3    H270925   4.685   5.050  17.072 -0.3337  0.0987 -0.9327
16504TIP3   OH270926   3.964   4.244  10.708  0.0336 -0.0143 -0.0346
16504TIP3    H170927   3.937   4.158  10.676  1.6110 -0.4277 -0.3198
16504TIP3    H270928   3.892   4.302  10.684 -0.3978 -0.9813 -1.1486
16505TIP3   OH270929   4.536   3.633   4.529 -0.6660  0.3278 -0.4865
16505TIP3    H170930   4.590   3.603   4.456 -0.6321 -0.2845 -0.2157
16505TIP3    H270931   4.558   3.726   4.538  0.0157  0.1932 -0.6648
16506TIP3   OH270932   5.186   2.882  13.112 -0.5485 -0.0955  0.2072
16506TIP3    H170933   5.280   2.870  13.103 -0.5505 -0.0851  0.1713
16506TIP3    H270934   5.176   2.935  13.191 -0.6190 -1.7738  1.3822
16507TIP3   OH270935   0.032   0.413  16.773 -0.0379 -0.3998 -0.2871
16507TIP3    H170936   0.005   0.329  16.811  0.8135 -0.3005  0.5736
16507TIP3    H270937   0.126   0.418  16.791  0.1994  0.0945 -1.5823
16508TIP3   OH270938   0.465   4.391   6.412 -0.0155 -0.2494 -0.0467
16508TIP3    H170939   0.543   4.411   6.361  0.8061  2.0394  1.8820
16508TIP3    H270940   0.403   4.461   6.389 -0.6795 -0.8009  0.0389
16509TIP3   OH270941   2.182   4.539  14.010 -0.0479 -0.5479  0.4752
16509TIP3    H170942   2.174   4.568  14.101 -1.9611 -0.4568  0.3082
16509TIP3    H270943   2.239   4.605  13.970 -0.2725  0.1685  1.2987
16510TIP3   OH270944   3.206   1.706  12.790 -0.4486 -0.2152 -0.4465
16510TIP3    H170945   3.283   1.727  12.843  0.9341  1.1841 -2.8236
16510TIP3    H270946   3.238   1.705  12.700 -2.5349 -3.1724 -1.3225
16511TIP3   OH270947   0.611   0.251  13.355  0.3575  0.0172 -0.1310
16511TIP3    H170948   0.644   0.314  13.290  1.9796  1.2628  1.7692
16511TIP3    H270949   0.519   0.277  13.368  0.3758  0.5608 -0.9615
16512TIP3   OH270950   6.760   4.988   6.160  0.8072  0.2844 -0.3958
16512TIP3    H170951   6.835   4.929   6.170  0.4548 -0.1818 -0.5072
16512TIP3    H270952   6.774   5.031   6.076  0.8496  0.0559 -0.5045
16513TIP3   OH270953   4.015   2.960  11.747 -0.4268 -0.2417 -0.3162
16513TIP3    H170954   4.049   2.871  11.734  1.1302  0.2060  0.4829
16513TIP3    H270955   3.921   2.952  11.731 -0.2014 -1.8608 -1.0650
16514TIP3   OH270956   1.633   0.040   4.913  0.5203  0.5145  0.5112
16514TIP3    H170957   1.671   0.034   4.826 -0.4557  1.1476  0.0269
16514TIP3    H270958   1.630  -0.050   4.945  0.8728  0.2814 -0.1034
16515TIP3   OH270959   5.124   1.057  12.871 -0.3180  0.3234  0.0133
16515TIP3    H170960   5.185   1.093  12.935 -1.5641 -0.4398  1.7193
16515TIP3    H270961   5.134   0.962  12.879  0.0484  0.2082 -1.5137
16516TIP3   OH270962   5.001   1.855   5.784 -0.0236 -0.2445  0.0189
16516TIP3    H170963   4.947   1.835   5.708 -0.4526  0.2920  0.1757
16516TIP3    H270964   5.031   1.945   5.769 -1.5889  0.5559  1.3174
16517TIP3   OH270965   3.400   1.797  14.414  0.3488 -0.4329 -0.5664
16517TIP3    H170966   3.479   1.794  14.361 -0.7482 -3.0168 -2.2675
16517TIP3    H270967   3.404   1.717  14.467 -1.3418 -0.8925 -1.0747
16518TIP3   OH270968   5.134   5.782  14.383 -0.1896 -0.9986 -0.2445
16518TIP3    H170969   5.145   5.798  14.477 -0.0930 -1.7810 -0.1096
16518TIP3    H270970   5.119   5.687  14.377 -3.4229 -0.5824 -0.7307
16519TIP3   OH270971   4.742   4.646   3.441 -0.1057 -0.1617  0.3194
16519TIP3    H170972   4.666   4.676   3.392 -0.1585 -0.3195  0.3049
16519TIP3    H270973   4.708   4.578   3.499  0.1240 -0.6157 -0.0756
16520TIP3   OH270974   4.810   2.332  16.420  0.3898  0.8978 -0.5497
16520TIP3    H170975   4.832   2.416  16.380  1.6536  0.2500 -1.2881
16520TIP3    H270976   4.715   2.336  16.435  0.1192  1.7298 -2.2851
16521TIP3   OH270977   6.549   2.066   2.654 -0.0390 -0.3906  0.8520
16521TIP3    H170978   6.624   2.048   2.712  1.2444 -0.0595 -0.6288
16521TIP3    H270979   6.516   1.979   2.630  0.5899 -0.5819  0.6541
16522TIP3   OH270980   2.218   1.574   3.624  0.7090  1.0414 -0.0275
16522TIP3    H170981   2.272   1.516   3.571 -1.7667 -0.5358 -1.0201
16522TIP3    H270982   2.256   1.570   3.711  0.8192 -1.9566 -0.1138
16523TIP3   OH270983   0.142   3.297  15.484 -0.0631 -0.6121  0.0483
16523TIP3    H170984   0.233   3.284  15.510 -0.6536  0.3159  2.9554
16523TIP3    H270985   0.140   3.384  15.444  0.5413 -1.2387 -1.3905
16524TIP3   OH270986   6.211   2.034  11.135 -0.3699  0.2561  0.3162
16524TIP3    H170987   6.178   2.110  11.088 -1.1740  0.4236  1.1266
16524TIP3    H270988   6.257   1.982  11.068  0.0912  1.3789 -0.2619
16525TIP3   OH270989   2.484   5.176   1.328  0.7961 -0.1021 -0.1298
16525TIP3    H170990   2.515   5.095   1.287  1.3142  0.9149 -1.8090
16525TIP3    H270991   2.523   5.246   1.277  1.2163  1.2661  1.9369
16526TIP3   OH270992   5.474   1.154   4.110  0.5481 -0.3067 -0.3181
16526TIP3    H170993   5.456   1.103   4.031  1.0210 -1.3849  0.2401
16526TIP3    H270994   5.443   1.242   4.090  0.0665 -0.7188 -1.4631
16527TIP3   OH270995   1.970   4.751   4.617  0.2634  0.5151  0.5637
16527TIP3    H170996   2.065   4.743   4.605  0.0531 -0.9385 -0.4579
16527TIP3    H270997   1.953   4.709   4.701  0.3436 -1.0407 -0.1536
16528TIP3   OH270998   2.079   4.387   3.229  0.3578 -0.1522 -0.4080
16528TIP3    H170999   2.014   4.331   3.273  0.4808 -0.3183 -0.4388
16528TIP3    H271000   2.057   4.475   3.259 -0.2381 -0.1417 -0.8543
16529TIP3   OH271001   6.624   0.822  10.866  0.3071 -0.1843  0.3697
16529TIP3    H171002   6.662   0.880  10.932 -0.0292 -0.2479  0.6218
16529TIP3    H271003   6.689   0.820  10.796  2.0975 -2.4649  1.9403
16530TIP3   OH271004   4.774   6.113  13.876 -0.6409  0.1076  0.2199
16530TIP3    H171005   4.788   6.153  13.961  1.5018 -0.7739  0.3345
16530TIP3    H271006   4.756   6.021  13.895 -2.7674  0.3665 -0.1987
16531TIP3   OH271007   0.166   2.532  14.499 -0.2311  0.5866 -0.3461
16531TIP3    H171008   0.104   2.604  14.509 -1.0523 -0.1110 -0.3046
16531TIP3    H271009   0.156   2.505  14.408  0.5438  0.9324 -0.5426
16532TIP3   OH271010   0.685   2.836  10.770 -0.1578  0.2926  0.0744
16532TIP3    H171011   0.597   2.845  10.805  0.7387  1.3520  2.2929
16532TIP3    H271012   0.723   2.763  10.820  0.7650  1.0187  0.4670
16533TIP3   OH271013   5.862   1.357   4.686 -0.3505  0.2389  0.4599
16533TIP3    H171014   5.821   1.334   4.769 -2.6060  1.4792 -0.2070
16533TIP3    H271015   5.955   1.364   4.705 -0.8436  0.7294  2.9308
16534TIP3   OH271016   5.674   3.535  13.243 -0.6394 -0.0427  0.1101
16534TIP3    H171017   5.615   3.563  13.314  0.1651  0.1873  0.6953
16534TIP3    H271018   5.691   3.443  13.262 -0.8125 -0.1108 -0.0638
16535TIP3   OH271019   2.646   6.136   1.604  0.8458  0.3794 -0.1138
16535TIP3    H171020   2.669   6.168   1.517 -1.2951 -1.1546 -1.3461
16535TIP3    H271021   2.561   6.176   1.622  0.3394 -0.8692  0.3704
16536TIP3   OH271022   5.678   2.137  14.219 -0.1707 -0.3296 -0.7169
16536TIP3    H171023   5.721   2.141  14.134 -1.9399 -0.6510 -1.6863
16536TIP3    H271024   5.585   2.131  14.198 -0.7821  1.1185  1.2751
16537TIP3   OH271025   2.783   2.108   3.816  0.2332  0.4227 -0.3272
16537TIP3    H171026   2.788   2.086   3.723 -2.9244  0.5290 -0.6273
16537TIP3    H271027   2.804   2.026   3.861  1.0623  0.1803 -1.1313
16538TIP3   OH271028   3.932   5.098   6.013 -0.0791 -0.1737  0.6796
16538TIP3    H171029   3.894   5.112   5.926  0.2120  0.1161  0.5927
16538TIP3    H271030   3.942   5.186   6.049  2.4779 -0.0240 -0.1634
16539TIP3   OH271031   2.306   5.825  11.093  0.5787  0.0029  0.2491
16539TIP3    H171032   2.349   5.749  11.055  1.2196 -0.0691  1.0838
16539TIP3    H271033   2.220   5.794  11.120  0.2158 -0.0038 -0.8971
16540TIP3   OH271034   6.340   3.472   4.456  0.1006 -0.9706 -0.3085
16540TIP3    H171035   6.253   3.433   4.445  0.8291 -2.0174 -3.2488
16540TIP3    H271036   6.397   3.398   4.476  0.4602 -0.3873  0.8938
16541TIP3   OH271037   6.782   6.371   3.706 -0.1349  0.0898  0.2191
16541TIP3    H171038   6.808   6.462   3.722  0.9330 -0.3186  0.9537
16541TIP3    H271039   6.760   6.337   3.792 -0.0259 -0.4986  0.0188
16542TIP3   OH271040   2.423   4.718  13.077  0.4366 -0.2045 -0.3341
16542TIP3    H171041   2.466   4.803  13.070  1.9334 -1.0039 -1.5109
16542TIP3    H271042   2.385   4.718  13.165  1.2159  1.3021  0.0506
16543TIP3   OH271043   6.137   4.926   0.246  0.4918 -0.0286  0.1037
16543TIP3    H171044   6.124   4.993   0.314  0.7496 -0.1226  0.2468
16543TIP3    H271045   6.152   4.977   0.166 -4.1218  0.1910 -0.8652
16544TIP3   OH271046   5.145   3.254  14.052  0.2066  0.0863  0.1319
16544TIP3    H171047   5.091   3.224  13.979  0.0306  0.5270  0.0768
16544TIP3    H271048   5.083   3.290  14.115  0.2718 -1.2204  0.9637
16545TIP3   OH271049   4.516   2.136   3.613 -0.1600 -0.3014 -0.2716
16545TIP3    H171050   4.481   2.165   3.697 -1.7066 -3.1493  0.2050
16545TIP3    H271051   4.490   2.203   3.551 -0.6686  0.9136  1.2008
16546TIP3   OH271052   5.961   2.181  16.091  0.2906  0.2256 -0.2684
16546TIP3    H171053   5.985   2.093  16.061 -2.5322 -1.4199  1.7425
16546TIP3    H271054   5.956   2.233  16.011 -0.8337 -2.2576 -1.9516
16547TIP3   OH271055   4.262   6.513  11.353  0.3036 -0.2815  0.7236
16547TIP3    H171056   4.324   6.556  11.411  1.2790 -2.0299  1.0538
16547TIP3    H271057   4.222   6.445  11.407 -1.4616  0.3833  0.3275
16548TIP3   OH271058   2.467   2.041   5.645  0.6141 -0.0600 -0.1636
16548TIP3    H171059   2.531   2.103   5.610  1.6516  0.1750  1.9937
16548TIP3    H271060   2.514   1.958   5.652 -0.1310 -0.5716 -1.0297
16549TIP3   OH271061   5.042   0.508   1.039 -0.9305  0.3009 -0.2226
16549TIP3    H171062   5.042   0.526   0.945  1.3863  1.1679 -0.1396
16549TIP3    H271063   5.018   0.592   1.080 -0.8277  0.2389 -0.0312
16550TIP3   OH271064   5.376   5.204   3.646 -0.0484 -0.0302  0.0236
16550TIP3    H171065   5.345   5.122   3.608  2.1124  0.1460 -2.4219
16550TIP3    H271066   5.319   5.271   3.608 -1.0383 -0.2790  1.0529
16551TIP3   OH271067   5.281   2.306  12.843  0.5258 -0.4852 -0.1537
16551TIP3    H171068   5.281   2.386  12.895 -0.2332  0.1921 -1.1506
16551TIP3    H271069   5.190   2.276  12.846  0.9126 -1.6580  0.6945
16552TIP3   OH271070   3.030   3.991   5.814  0.4801  0.2003  0.1086
16552TIP3    H171071   2.982   4.049   5.873 -1.2857 -2.1114  1.1156
16552TIP3    H271072   3.038   3.909   5.862  2.6347 -0.5222 -1.3554
16553TIP3   OH271073   1.112   1.179   5.228 -0.1465 -0.5315 -0.0336
16553TIP3    H171074   1.088   1.262   5.270 -0.9854 -0.7083 -0.1307
16553TIP3    H271075   1.075   1.112   5.286 -1.1944 -0.7819 -0.9444
16554TIP3   OH271076   1.524   2.188  11.725 -0.6844  0.1770 -0.4881
16554TIP3    H171077   1.470   2.183  11.647 -1.8009 -0.0992  0.2747
16554TIP3    H271078   1.569   2.103  11.728 -0.8597  0.0768 -0.6774
16555TIP3   OH271079   2.978   6.151  11.079  0.8631  0.4595 -0.2785
16555TIP3    H171080   2.892   6.109  11.082  0.8682  0.1946 -2.3701
16555TIP3    H271081   2.963   6.239  11.113  0.6285 -0.7859  3.1930
16556TIP3   OH271082   1.027   0.177  14.630  0.0295  0.2462  0.2282
16556TIP3    H171083   0.938   0.185  14.663 -0.0051  0.7285  0.0276
16556TIP3    H271084   1.073   0.126  14.697 -0.4593 -0.2270  0.2084
16557TIP3   OH271085   3.532   1.851  10.466  0.3554  0.0060 -0.9009
16557TIP3    H171086   3.487   1.935  10.455  0.4548 -0.1190 -2.5519
16557TIP3    H271087   3.482   1.805  10.533  0.3639  1.4170  0.1280
16558TIP3   OH271088   0.536   5.726   4.708  0.1639 -0.0623  0.0387
16558TIP3    H171089   0.440   5.731   4.709  0.1177 -0.8978  0.6130
16558TIP3    H271090   0.557   5.653   4.766  1.0617 -1.2182 -1.6539
16559TIP3   OH271091   5.889   4.770  13.199  0.0934 -0.1200  0.3553
16559TIP3    H171092   5.861   4.721  13.122  0.1997 -1.4182  1.1100
16559TIP3    H271093   5.914   4.856  13.165 -1.9376  0.0924 -0.7477
16560TIP3   OH271094   0.409   3.564   2.678  0.1476 -0.1660 -0.1611
16560TIP3    H171095   0.382   3.639   2.732 -1.7769 -1.7115  1.1717
16560TIP3    H271096   0.362   3.490   2.715  1.7774 -2.0313 -1.6009
16561TIP3   OH271097   0.505   6.098   1.772 -0.0745  0.0763  0.1292
16561TIP3    H171098   0.450   6.103   1.694  1.2588 -2.3580 -1.0697
16561TIP3    H271099   0.591   6.130   1.744  0.2879 -0.3433  0.7378
16562TIP3   OH271100   6.242   4.354   0.756 -0.6787  0.6239  0.4199
16562TIP3    H171101   6.191   4.278   0.784  1.0487 -0.6723  0.2044
16562TIP3    H271102   6.235   4.354   0.661  2.8077 -2.0291 -0.0527
16563TIP3   OH271103   0.943   3.212   0.913  0.2241  0.4662 -0.2458
16563TIP3    H171104   0.997   3.172   0.980  0.7329 -0.1628 -1.0104
16563TIP3    H271105   0.999   3.277   0.871  0.3290 -0.0441 -0.9061
16564TIP3   OH271106   2.306   0.700   5.364 -0.3021 -0.1940 -0.1322
16564TIP3    H171107   2.257   0.780   5.346 -2.0949 -0.9720  0.9808
16564TIP3    H271108   2.334   0.708   5.454  1.1829 -0.0079 -0.5939
16565TIP3   OH271109   3.850   6.242   0.102 -0.2347 -0.5110  0.2537
16565TIP3    H171110   3.828   6.335   0.114  1.2673 -0.2744  1.6273
16565TIP3    H271111   3.766   6.197   0.107 -0.7937  0.5997  1.8310
16566TIP3   OH271112   2.354   2.192   1.482 -0.2330  0.1456 -0.0993
16566TIP3    H171113   2.341   2.154   1.569 -0.9724  2.6872  0.9976
16566TIP3    H271114   2.430   2.249   1.493 -0.3663  0.5238 -1.0972
16567TIP3   OH271115   2.254   2.371  13.281  0.0583 -0.3588  0.5052
16567TIP3    H171116   2.248   2.286  13.323  2.1245 -0.7235  0.1511
16567TIP3    H271117   2.217   2.358  13.193  0.1191 -0.8051  0.5472
16568TIP3   OH271118   0.034   2.153   5.485  0.1270  0.0917  0.3242
16568TIP3    H171119   0.046   2.134   5.578  3.1193 -1.7430 -0.3178
16568TIP3    H271120   0.044   2.248   5.479  1.3433  0.0938  1.7414
16569TIP3   OH271121   6.633   6.099  11.548  0.0377 -0.3743 -0.5846
16569TIP3    H171122   6.643   6.088  11.642  1.0322 -0.9808 -0.7535
16569TIP3    H271123   6.570   6.031  11.523  0.7887 -1.0994 -0.5491
16570TIP3   OH271124   2.059   3.923  16.084  0.3248 -0.0125 -0.5803
16570TIP3    H171125   2.020   3.876  16.010  2.3288 -2.0384 -0.4685
16570TIP3    H271126   1.996   3.914  16.155 -0.5278 -0.1750 -1.3442
16571TIP3   OH271127   5.386   1.794   5.480  0.5854 -0.5934  0.6010
16571TIP3    H171128   5.451   1.836   5.423 -0.7064 -1.2110 -1.4595
16571TIP3    H271129   5.319   1.862   5.494 -0.4564 -1.2246 -0.9852
16572TIP3   OH271130   0.810   0.509  14.647  0.1152 -0.0248 -0.3063
16572TIP3    H171131   0.820   0.429  14.698 -1.2121 -0.1943 -0.2804
16572TIP3    H271132   0.889   0.512  14.592  0.0608 -1.4945 -0.5161
16573TIP3   OH271133   4.444   2.141  15.680 -0.3436  0.4328  0.1037
16573TIP3    H171134   4.437   2.226  15.724 -4.0408  1.4367 -1.9892
16573TIP3    H271135   4.513   2.154  15.614 -0.6365  1.7288  0.0206
16574TIP3   OH271136   0.037   1.819   6.257  0.0560 -0.0575 -0.1126
16574TIP3    H171137   0.070   1.861   6.178 -0.8749 -0.0793 -0.5260
16574TIP3    H271138  -0.045   1.864   6.276  0.1020 -0.2758  0.6574
16575TIP3   OH271139   1.104   4.054   4.227  0.0130  0.7951  0.3070
16575TIP3    H171140   1.170   4.120   4.206 -2.4705  3.3091 -0.2032
16575TIP3    H271141   1.054   4.043   4.145 -0.4002 -0.8131  0.7414
16576TIP3   OH271142   1.399   1.726  10.506 -0.5101  0.1005 -0.0252
16576TIP3    H171143   1.429   1.806  10.549 -0.7972 -0.0993  0.5629
16576TIP3    H271144   1.325   1.696  10.560 -1.3639  0.2416 -1.0683
16577TIP3   OH271145   1.311   0.796  12.599  0.1626 -0.4951  0.6340
16577TIP3    H171146   1.243   0.738  12.565  0.3855  0.2463 -1.2307
16577TIP3    H271147   1.387   0.780  12.542  0.8928  0.1532  1.3923
16578TIP3   OH271148   5.594   0.424   5.768  0.0379  0.2381 -0.0879
16578TIP3    H171149   5.611   0.486   5.839 -1.3282 -0.7182  1.1325
16578TIP3    H271150   5.585   0.339   5.812  0.7148 -0.6639 -1.5927
16579TIP3   OH271151   6.315   3.446   3.267  0.1020  0.1076  0.3439
16579TIP3    H171152   6.293   3.381   3.334 -1.6532  0.1593 -0.1393
16579TIP3    H271153   6.402   3.421   3.237 -0.1286 -1.4150  0.8759
16580TIP3   OH271154   2.031   6.573   1.402  0.3872 -0.2595  0.0393
16580TIP3    H171155   1.993   6.660   1.393  1.2351 -0.0699 -2.2198
16580TIP3    H271156   2.019   6.532   1.316  0.1325 -2.3423  0.9921
16581TIP3   OH271157   2.654   4.254   4.508  0.1136  0.1787 -0.4653
16581TIP3    H171158   2.681   4.305   4.432  1.4559 -2.2968 -1.7738
16581TIP3    H271159   2.565   4.226   4.489  0.0846  0.3907 -0.6409
16582TIP3   OH271160   0.273   6.462   3.783  0.0167 -0.0983  0.2104
16582TIP3    H171161   0.225   6.508   3.715  0.3731 -2.2170 -1.6011
16582TIP3    H271162   0.254   6.510   3.863 -2.5478  0.9594 -0.9410
16583TIP3   OH271163   0.077   5.705  11.827  0.8600  0.2830  0.3667
16583TIP3    H171164   0.147   5.641  11.810  0.7434 -0.0127  0.9663
16583TIP3    H271165   0.039   5.677  11.910 -0.0088  0.4168  0.0230
16584TIP3   OH271166   4.882   2.567   4.737 -0.7836 -0.2078  0.0059
16584TIP3    H171167   4.853   2.619   4.662 -1.7367 -0.9706 -0.1734
16584TIP3    H271168   4.957   2.517   4.703  1.1167  2.0674  0.5833
16585TIP3   OH271169   6.297   3.979  15.978  0.0908 -0.0783  0.0540
16585TIP3    H171170   6.383   4.018  15.961  0.1501 -0.3093 -0.1820
16585TIP3    H271171   6.279   4.000  16.070  0.9018 -0.9924  0.4388
16586TIP3   OH271172   6.050   2.551  12.752 -0.2018 -0.3346  0.6362
16586TIP3    H171173   6.028   2.642  12.731 -0.3327 -0.7077 -0.9553
16586TIP3    H271174   5.965   2.506  12.751 -0.0049 -0.6967  0.2344
16587TIP3   OH271175   0.314   2.252   3.068  0.3103  0.0480  0.4068
16587TIP3    H171176   0.366   2.212   2.998 -0.0323 -3.7688  2.0866
16587TIP3    H271177   0.376   2.264   3.140  0.0446  1.1145  0.4711
16588TIP3   OH271178   5.629   5.832  13.195  0.2335  0.0446 -0.3690
16588TIP3    H171179   5.694   5.845  13.125  1.6451  1.9963  1.1649
16588TIP3    H271180   5.631   5.915  13.244 -3.3520  0.1245 -0.1387
16589TIP3   OH271181   5.783   1.785  11.029  0.1883  0.2194  0.1609
16589TIP3    H171182   5.818   1.769  10.941 -0.8806 -0.2509 -0.2010
16589TIP3    H271183   5.736   1.704  11.050  0.9522  0.0800  1.4388
16590TIP3   OH271184   1.168   3.087  15.434  0.0547  0.4567  0.2232
16590TIP3    H171185   1.183   3.181  15.424  0.0505  0.3433 -0.9317
16590TIP3    H271186   1.219   3.047  15.363 -0.4400 -0.3740  0.3281
16591TIP3   OH271187   4.288   4.184  15.138  0.3895  0.0344 -0.5020
16591TIP3    H171188   4.327   4.269  15.160  0.4788  0.2925 -1.6258
16591TIP3    H271189   4.316   4.126  15.209  1.5818  0.5758 -0.5115
16592TIP3   OH271190   4.761   1.052  13.908 -0.1291 -0.3001 -0.4708
16592TIP3    H171191   4.730   0.980  13.963 -0.6359  0.9577  0.9715
16592TIP3    H271192   4.854   1.060  13.930  0.4032 -1.6374 -1.9989
16593TIP3   OH271193   2.172   0.749  13.531 -0.2901 -0.0216  0.0804
16593TIP3    H171194   2.265   0.732  13.517 -0.2474  1.7326 -2.5826
16593TIP3    H271195   2.170   0.834  13.576 -0.5686  0.5331 -0.9470
16594TIP3   OH271196   0.270   2.208  14.830 -0.1372 -0.0106 -0.6377
16594TIP3    H171197   0.243   2.123  14.865 -2.7564  1.1641  0.4605
16594TIP3    H271198   0.308   2.253  14.905  1.3104 -0.2014 -1.2351
16595TIP3   OH271199   1.358   6.338   4.072  0.5301 -0.6950  0.5081
16595TIP3    H171200   1.390   6.427   4.053 -0.0851 -0.6827 -0.5411
16595TIP3    H271201   1.418   6.281   4.024 -0.0695 -0.7491 -0.1975
16596TIP3   OH271202   3.811   3.356  14.636  0.1108 -0.5750  0.1927
16596TIP3    H171203   3.758   3.358  14.717  0.5199  0.0547  0.4501
16596TIP3    H271204   3.772   3.423  14.580  1.1554  0.5179  0.7287
16597TIP3   OH271205   5.475   1.989   1.417 -0.3193 -0.6047 -0.1222
16597TIP3    H171206   5.422   1.916   1.387 -0.5315 -1.8902  3.0401
16597TIP3    H271207   5.436   2.015   1.501 -0.5482  3.5124 -1.2953
16598TIP3   OH271208   1.348   4.835  15.790 -0.2724 -0.7891  0.1635
16598TIP3    H171209   1.396   4.775  15.847  1.1355 -0.0041 -0.1303
16598TIP3    H271210   1.275   4.866  15.843  0.3701 -0.9206  1.1507
16599TIP3   OH271211   0.752   3.378   1.820 -0.1672  0.5415  0.2692
16599TIP3    H171212   0.729   3.468   1.799 -1.7819 -0.3191 -1.9957
16599TIP3    H271213   0.847   3.373   1.805 -0.4510  1.2771 -2.2229
16600TIP3   OH271214   5.747   6.791  14.597  0.2306 -0.4229 -0.4140
16600TIP3    H171215   5.754   6.695  14.594  1.0621 -0.4137  0.7996
16600TIP3    H271216   5.677   6.811  14.535 -0.4314 -1.8672 -0.1799
16601TIP3   OH271217   1.489   2.126  15.480 -0.3604  0.6370 -0.1957
16601TIP3    H171218   1.584   2.139  15.486 -0.2270 -0.6096  0.9795
16601TIP3    H271219   1.463   2.173  15.402  1.2491  0.9414 -0.5833
16602TIP3   OH271220   6.109   0.441   4.213 -0.0996 -0.6058 -0.2796
16602TIP3    H171221   6.099   0.456   4.307 -1.7335  1.2828 -0.7051
16602TIP3    H271222   6.122   0.346   4.206  0.8168 -0.7078  1.8741
16603TIP3   OH271223   1.073   3.718   3.468 -0.7710 -0.3835  0.3749
16603TIP3    H171224   1.086   3.732   3.561  0.5567  0.4308  0.0960
16603TIP3    H271225   1.157   3.741   3.428 -1.3982 -0.4318 -1.0457
16604TIP3   OH271226   3.038   2.093   1.860 -0.0416  0.5451  0.8898
16604TIP3    H171227   3.009   2.138   1.781  0.1776 -1.3936 -0.3380
16604TIP3    H271228   3.054   2.164   1.923 -1.7950  2.0240 -0.2399
16605TIP3   OH271229   4.413   6.024  15.944  0.0708  0.2563 -0.0850
16605TIP3    H171230   4.473   6.097  15.926 -0.3353  0.4063 -0.9062
16605TIP3    H271231   4.337   6.065  15.985  0.4871  0.0752  0.8956
16606TIP3   OH271232   3.994   1.665  14.808 -0.0071  0.0419 -0.2825
16606TIP3    H171233   3.986   1.760  14.795 -1.6021 -0.2917 -2.1587
16606TIP3    H271234   4.017   1.631  14.722 -0.7415 -1.3850  0.0506
16607TIP3   OH271235   1.285   3.709   0.257  0.2171 -0.4103  0.3361
16607TIP3    H171236   1.348   3.646   0.222 -1.0326 -0.5081 -1.9305
16607TIP3    H271237   1.318   3.794   0.228 -0.5264 -0.4416 -0.6444
16608TIP3   OH271238   0.801   5.244  12.632  0.2403  0.4211  0.3115
16608TIP3    H171239   0.774   5.167  12.582  0.3576  0.8600 -0.4411
16608TIP3    H271240   0.752   5.316  12.593  1.4336  1.0026 -0.1343
16609TIP3   OH271241   2.104   0.196   3.421  0.0704  0.1290  0.3978
16609TIP3    H171242   2.102   0.289   3.444 -0.8871  0.5463 -1.2312
16609TIP3    H271243   2.077   0.151   3.501 -1.2760  1.3838  0.6886
16610TIP3   OH271244   1.500   6.730   3.617 -0.0482 -0.1120  0.0746
16610TIP3    H171245   1.491   6.820   3.648  1.5269 -0.5644  2.0413
16610TIP3    H271246   1.410   6.699   3.606 -0.7835  0.4594  3.3625
16611TIP3   OH271247   5.148   2.277  13.813  0.6426  0.0837 -0.1082
16611TIP3    H171248   5.222   2.270  13.752 -0.3916 -1.5462 -1.2746
16611TIP3    H271249   5.099   2.353  13.782  1.9604  1.3900  0.8872
16612TIP3   OH271250   0.255   4.306  15.112 -0.5412 -0.3776  0.2219
16612TIP3    H171251   0.280   4.215  15.129 -0.6825 -0.3615  0.5254
16612TIP3    H271252   0.339   4.351  15.096 -0.5696 -0.8530 -1.4458
16613TIP3   OH271253   3.226   5.183   1.662 -0.0607  0.0992 -0.2400
16613TIP3    H171254   3.227   5.273   1.630  0.0240  0.1203 -0.1791
16613TIP3    H271255   3.153   5.180   1.724  0.9643  0.5756  1.0381
16614TIP3   OH271256   1.075   4.765   4.112 -0.1200  0.4800 -0.5651
16614TIP3    H171257   1.120   4.833   4.061  0.0678  0.9010  0.1503
16614TIP3    H271258   0.992   4.804   4.137 -0.4358  0.0855 -0.9727
16615TIP3   OH271259   2.444   4.311   1.007  0.2243  0.3167 -0.5744
16615TIP3    H171260   2.505   4.359   1.062 -0.9784  0.7167  0.4642
16615TIP3    H271261   2.415   4.237   1.060  0.6686 -0.5346 -1.4835
16616TIP3   OH271262   5.972   1.891  15.627 -0.6135 -0.0692  0.2138
16616TIP3    H171263   5.883   1.922  15.609 -0.6381  0.0155  0.4904
16616TIP3    H271264   5.998   1.845  15.546 -0.1304  1.6502 -0.6532
16617TIP3   OH271265   0.367   0.424  13.661  0.0947  0.4412 -0.0094
16617TIP3    H171266   0.298   0.373  13.703  0.1034 -0.3774 -0.9626
16617TIP3    H271267   0.324   0.505  13.633 -0.1664  0.4963  0.5227
16618TIP3   OH271268   2.571   2.961  14.115  0.2842 -0.3652  0.3577
16618TIP3    H171269   2.662   2.941  14.136  0.9518  2.4226  0.5588
16618TIP3    H271270   2.533   2.991  14.197 -0.4756 -0.3985  0.0255
16619TIP3   OH271271   2.522   4.843  10.599 -0.0071 -0.2732  0.6124
16619TIP3    H171272   2.563   4.832  10.513 -0.7835 -1.3022  0.3444
16619TIP3    H271273   2.585   4.805  10.661  0.8863  1.1403  0.6059
16620TIP3   OH271274   1.775   3.271   3.609  0.2518  0.5431  0.2113
16620TIP3    H171275   1.706   3.323   3.650  1.0075  1.2610  0.6089
16620TIP3    H271276   1.849   3.278   3.669  1.0450  0.7438 -0.7695
16621TIP3   OH271277   2.199   5.612  13.935  0.0052 -0.7565 -0.0914
16621TIP3    H171278   2.220   5.524  13.903  0.6240 -0.2107 -1.2265
16621TIP3    H271279   2.121   5.637  13.886 -0.9232 -1.1465  1.1391
16622TIP3   OH271280   6.660   0.992  12.210 -0.0327 -0.1831  0.0817
16622TIP3    H171281   6.579   1.015  12.256  0.3342 -0.1806  0.7336
16622TIP3    H271282   6.696   1.076  12.183 -0.5740 -0.2199 -0.7826
16623TIP3   OH271283   1.617   0.237  11.623 -0.0499 -0.0567  0.1065
16623TIP3    H171284   1.583   0.153  11.593 -0.1354  0.1528 -0.3967
16623TIP3    H271285   1.707   0.239  11.590  0.1704 -0.2379  0.6916
16624TIP3   OH271286   6.484   2.000   5.757  0.0640 -0.0524  0.2068
16624TIP3    H171287   6.389   1.987   5.764  0.1184  0.2818  2.8296
16624TIP3    H271288   6.522   1.915   5.778  0.3190  0.1574  0.6284
16625TIP3   OH271289   0.143   2.972   2.995  0.0693 -0.4764  0.7694
16625TIP3    H171290   0.137   2.923   3.077  0.2812 -0.8228  0.5783
16625TIP3    H271291   0.215   2.931   2.947  0.8390  0.5892  0.9815
16626TIP3   OH271292   4.605   6.500  13.923 -0.1986  0.3871  0.1480
16626TIP3    H171293   4.632   6.436  13.857 -1.2905  0.5264 -0.4479
16626TIP3    H271294   4.624   6.457  14.007  1.8364  0.4901 -0.2262
16627TIP3   OH271295   0.695   5.723  10.422  0.3497 -0.1998  0.3591
16627TIP3    H171296   0.711   5.639  10.465 -0.4942 -0.8170 -0.5266
16627TIP3    H271297   0.734   5.714  10.335  1.7530  0.9323  0.8234
16628TIP3   OH271298   6.325   2.565  12.948 -0.0787  0.9694 -0.5767
16628TIP3    H171299   6.248   2.536  12.899  0.0641  1.4315 -1.0863
16628TIP3    H271300   6.386   2.596  12.881  1.3999 -1.2590 -0.3532
16629TIP3   OH271301   6.586   3.626  16.865 -0.4186 -0.2548 -0.0794
16629TIP3    H171302   6.647   3.653  16.797 -1.1885  0.1142 -0.6340
16629TIP3    H271303   6.571   3.533  16.849 -0.9544 -0.0710 -0.7204
16630TIP3   OH271304   5.766   1.956   1.408 -0.8676  0.2524  0.6613
16630TIP3    H171305   5.689   1.979   1.356 -1.2653 -0.1337  1.0698
16630TIP3    H271306   5.744   1.986   1.496  0.0108  1.3791  0.5295
16631TIP3   OH271307   1.474   2.070   3.534 -0.5530  0.2411  0.0599
16631TIP3    H171308   1.407   2.122   3.579  0.8471  1.2961  1.0108
16631TIP3    H271309   1.468   2.097   3.442 -0.1040  1.8680  0.4740
16632TIP3   OH271310   0.716   1.357  12.114 -0.1170 -0.3199 -0.2058
16632TIP3    H171311   0.653   1.372  12.184  0.0066 -1.3889  0.1488
16632TIP3    H271312   0.745   1.266  12.126  0.8678 -0.1077 -0.8624
16633TIP3   OH271313   0.064   4.966  12.397 -0.3469 -0.3561  0.0881
16633TIP3    H171314   0.142   4.916  12.375 -0.7187  0.0108 -2.4284
16633TIP3    H271315   0.094   5.057  12.402  0.0028 -0.5431  2.8995
16634TIP3   OH271316   2.441   6.605   2.080  0.0194  0.3376 -0.6282
16634TIP3    H171317   2.479   6.553   2.151  1.3590  1.5502 -0.4020
16634TIP3    H271318   2.512   6.663   2.053 -1.1488  1.4191 -1.4724
16635TIP3   OH271319   3.821   4.550  15.422 -0.7650 -0.0498  0.0027
16635TIP3    H171320   3.869   4.604  15.359  0.5648 -0.1356  0.9083
16635TIP3    H271321   3.729   4.571  15.406 -0.3547  1.3765 -0.6633
16636TIP3   OH271322   4.104   2.843   4.296  0.4074 -0.0556  1.0342
16636TIP3    H171323   4.028   2.810   4.248  1.0407 -0.1861  0.1092
16636TIP3    H271324   4.126   2.773   4.357  1.3961 -1.1569 -0.5213
16637TIP3   OH271325   2.235   5.872  15.887 -0.6395  0.1249  0.6397
16637TIP3    H171326   2.147   5.835  15.873  0.8111 -2.2320 -4.3661
16637TIP3    H271327   2.291   5.796  15.899  1.0957  1.4952  1.7423
16638TIP3   OH271328   4.911   3.002   1.508  0.4421  0.1506  0.2959
16638TIP3    H171329   4.924   3.058   1.584  1.0675  1.2112 -0.5698
16638TIP3    H271330   4.862   2.927   1.542  0.9905  0.4379  1.8003
16639TIP3   OH271331   1.287   1.312  14.295  0.0911  0.3735  0.0576
16639TIP3    H171332   1.332   1.228  14.306 -0.6683  0.0296  0.6572
16639TIP3    H271333   1.346   1.376  14.334  0.6549  0.1146 -0.3583
16640TIP3   OH271334   3.083   2.971   2.916 -0.6852  0.0087  0.9006
16640TIP3    H171335   3.063   3.051   2.965  0.4553  0.2501  1.0018
16640TIP3    H271336   3.174   2.951   2.939 -0.5607 -0.6264 -0.0791
16641TIP3   OH271337   4.767   1.792   0.029 -0.2463 -0.0415 -0.2300
16641TIP3    H171338   4.843   1.735   0.041 -0.1768  0.1938  0.5033
16641TIP3    H271339   4.774   1.856   0.101  0.3009  1.5869 -1.6633
16642TIP3   OH271340   2.702   4.501  12.116 -0.6038  0.0945 -0.2244
16642TIP3    H171341   2.684   4.513  12.023  1.1154  0.5386 -0.5262
16642TIP3    H271342   2.797   4.501  12.123 -0.6829  1.5756  1.7278
16643TIP3   OH271343   5.891   6.236   2.501  0.0082 -0.1580 -0.0614
16643TIP3    H171344   5.806   6.207   2.534 -0.8655  0.8776 -1.3283
16643TIP3    H271345   5.952   6.216   2.572 -1.3804 -0.3679  1.1203
16644TIP3   OH271346   0.902   5.401   0.502  0.5177 -0.4133 -0.2810
16644TIP3    H171347   0.980   5.358   0.537  0.2265  0.3654  1.4548
16644TIP3    H271348   0.861   5.441   0.579  0.4115  2.3492 -1.6328
16645TIP3   OH271349   0.286   1.974   5.643  0.1023 -0.7407  0.1790
16645TIP3    H171350   0.275   2.062   5.678 -1.9261 -0.6287 -0.6135
16645TIP3    H271351   0.208   1.927   5.671  0.4947 -1.8742 -0.5615
16646TIP3   OH271352   0.239   0.461   4.946 -0.2665 -0.4051  0.0958
16646TIP3    H171353   0.302   0.461   5.019 -1.8221  0.3009  1.4956
16646TIP3    H271354   0.155   0.483   4.987 -1.0397  0.8787 -2.0601
16647TIP3   OH271355   4.109   1.366  12.517 -0.1777 -0.2562 -0.4097
16647TIP3    H171356   4.103   1.375  12.612  0.6368 -1.1545 -0.2612
16647TIP3    H271357   4.018   1.376  12.486 -0.4894 -0.2720  0.4805
16648TIP3   OH271358   6.352   1.801  12.442 -0.5916  0.5111 -0.5100
16648TIP3    H171359   6.277   1.829  12.389 -0.4338 -0.7017 -1.4191
16648TIP3    H271360   6.403   1.881  12.455 -0.5479  0.8392 -2.3635
16649TIP3   OH271361   5.701   2.164  10.869  0.5669  0.5726  0.2349
16649TIP3    H171362   5.653   2.205  10.796 -0.7541 -0.2253  0.6197
16649TIP3    H271363   5.789   2.149  10.834 -0.0109  0.2954 -1.1630
16650TIP3   OH271364   4.664   3.579   1.666  0.0296 -0.3831  0.5363
16650TIP3    H171365   4.735   3.640   1.644 -1.1232  1.0012  0.5113
16650TIP3    H271366   4.589   3.636   1.683 -1.4378 -1.8644 -0.7236
16651TIP3   OH271367   5.995   4.707  16.267  0.2946 -0.0127  0.3769
16651TIP3    H171368   5.990   4.705  16.363 -1.3673  1.5600  0.3804
16651TIP3    H271369   6.026   4.795  16.246  0.6289 -0.3360 -0.5417
16652TIP3   OH271370   5.540   3.265   4.761 -0.4364  0.1257 -0.7827
16652TIP3    H171371   5.612   3.246   4.821 -0.6668 -0.0246 -0.5507
16652TIP3    H271372   5.468   3.209   4.791 -1.4891  2.0524  0.5898
16653TIP3   OH271373   4.033   6.085  11.873 -0.5211 -0.2595 -0.1308
16653TIP3    H171374   4.091   6.080  11.949  0.5035  0.0447 -0.8676
16653TIP3    H271375   4.075   6.149  11.815 -0.6718 -1.2905 -1.4378
16654TIP3   OH271376   0.715   3.887   5.053  0.1196 -0.1355  0.1650
16654TIP3    H171377   0.662   3.949   5.103  0.6868 -0.7321  1.5606
16654TIP3    H271378   0.805   3.915   5.066  0.4597 -1.6586  1.5181
16655TIP3   OH271379   3.152   2.396  11.129  0.0988 -0.1312  0.5594
16655TIP3    H171380   3.100   2.335  11.183 -0.3658 -1.7312 -1.5542
16655TIP3    H271381   3.088   2.440  11.074  0.6415  0.9077  0.7315
16656TIP3   OH271382   6.420   1.206   1.719  0.4565 -0.5065 -0.1700
16656TIP3    H171383   6.430   1.173   1.630  0.5633 -1.7503  0.2818
16656TIP3    H271384   6.373   1.289   1.709 -1.9004 -1.8858 -1.1964
16657TIP3   OH271385   3.165   0.924   5.236  0.7217 -0.1616 -0.2234
16657TIP3    H171386   3.220   0.961   5.167 -0.2471 -0.4315 -1.1868
16657TIP3    H271387   3.110   0.859   5.190 -0.7938  0.5175  0.5541
16658TIP3   OH271388   0.475   0.296   0.689  0.1052  0.3010  0.7405
16658TIP3    H171389   0.566   0.280   0.714 -0.2357 -2.5856  0.4429
16658TIP3    H271390   0.425   0.285   0.771 -0.1179  0.3887  0.6171
16659TIP3   OH271391   5.700   1.031  12.918 -0.1304  0.0788  0.4416
16659TIP3    H171392   5.677   1.122  12.902 -0.6797  0.1277  1.3953
16659TIP3    H271393   5.623   0.981  12.890  0.9328 -0.3040 -2.0142
16660TIP3   OH271394   0.081   3.404   4.872  0.2645 -0.0172 -0.5091
16660TIP3    H171395   0.060   3.360   4.955  1.7294 -0.1104 -0.1536
16660TIP3    H271396   0.070   3.336   4.806 -1.7026  0.2663 -0.5249
16661TIP3   OH271397   2.351   0.746   2.694  0.4439 -0.1038  0.0797
16661TIP3    H171398   2.395   0.819   2.651  2.0994 -1.3823 -0.4721
16661TIP3    H271399   2.332   0.685   2.623 -0.5938 -0.3997  0.5915
16662TIP3   OH271400   4.894   3.098   4.801  0.6251 -0.5026 -0.1312
16662TIP3    H171401   4.880   3.011   4.837 -0.2782 -0.9310 -1.4561
16662TIP3    H271402   4.917   3.083   4.709  0.3748  0.6588 -0.4037
16663TIP3   OH271403   2.438   1.004   5.817 -0.2739  0.0740 -0.1452
16663TIP3    H171404   2.491   0.952   5.877  0.1510  0.9514  0.2549
16663TIP3    H271405   2.348   0.975   5.834 -0.1082 -0.0527  0.5527
16664TIP3   OH271406   4.890   4.509  13.711  0.3217 -0.0172  0.1030
16664TIP3    H171407   4.844   4.446  13.657 -0.3818 -0.0905  0.7688
16664TIP3    H271408   4.979   4.511  13.676 -0.1742  0.1210 -1.1922
16665TIP3   OH271409   1.188   5.697   5.800 -0.5208 -0.8582  1.1185
16665TIP3    H171410   1.204   5.733   5.887 -2.3491 -1.2431  1.6664
16665TIP3    H271411   1.101   5.729   5.777  0.5222  0.4788 -1.2489
16666TIP3   OH271412   5.216   5.651  11.975  0.2196 -0.3248 -0.6166
16666TIP3    H171413   5.168   5.726  11.942 -1.5025 -0.7228  0.8414
16666TIP3    H271414   5.289   5.689  12.025 -0.5291  0.3949 -0.0419
16667TIP3   OH271415   2.909   0.865  12.905 -0.2425  0.2245  0.1830
16667TIP3    H171416   2.900   0.947  12.856 -1.7263 -0.7514 -1.2979
16667TIP3    H271417   2.943   0.802  12.841 -0.9259 -0.7693  0.7558
16668TIP3   OH271418   2.737   3.475  16.290  0.4665  0.4656  0.2258
16668TIP3    H171419   2.709   3.526  16.215 -1.1269  0.1498  0.5647
16668TIP3    H271420   2.757   3.540  16.358  4.0967  0.8981 -1.0466
16669TIP3   OH271421   2.955   3.785   3.265 -0.6635  0.5837  0.1400
16669TIP3    H171422   3.031   3.802   3.210  0.1557  2.6335  1.7675
16669TIP3    H271423   2.989   3.735   3.339 -1.3762 -0.4659 -0.2161
16670TIP3   OH271424   2.607   0.070   0.571 -1.0209  0.6624 -0.4941
16670TIP3    H171425   2.702   0.059   0.560 -1.1434 -0.9748 -0.1797
16670TIP3    H271426   2.574   0.081   0.482 -0.6966 -0.5077 -0.7868
16671TIP3   OH271427   4.976   0.746   4.686 -0.1342  0.2439  0.1079
16671TIP3    H171428   4.985   0.663   4.639  2.1093  0.3487  0.2796
16671TIP3    H271429   5.012   0.729   4.773  0.1196  1.3317  0.2232
16672TIP3   OH271430   3.781   3.658   1.006  0.5605  0.0345 -0.1899
16672TIP3    H171431   3.685   3.649   1.010  0.6594 -0.6701  1.2924
16672TIP3    H271432   3.814   3.569   1.000  1.1700  0.1200  1.4264
16673TIP3   OH271433   4.915   1.161  16.547 -0.1089 -0.1027 -0.0487
16673TIP3    H171434   4.827   1.154  16.509 -0.4273 -3.3572  0.9723
16673TIP3    H271435   4.904   1.220  16.622 -1.3140 -0.0641 -0.2326
16674TIP3   OH271436   1.271   2.774  15.620  0.1022  0.0765 -0.4431
16674TIP3    H171437   1.361   2.755  15.596 -0.1367 -2.5668  0.3430
16674TIP3    H271438   1.219   2.745  15.545 -0.1892 -0.9465  0.1203
16675TIP3   OH271439   3.557   5.121   2.706 -0.1602  0.1718  1.0224
16675TIP3    H171440   3.488   5.088   2.648  0.3388 -1.7751  1.4493
16675TIP3    H271441   3.634   5.130   2.649 -0.4049  1.0260  0.8205
16676TIP3   OH271442   3.652   5.621  16.556  0.0816  0.3398 -0.0717
16676TIP3    H171443   3.654   5.660  16.644  0.9289  1.1566 -0.4414
16676TIP3    H271444   3.604   5.539  16.568  2.1209 -0.7251  1.6737
16677TIP3   OH271445   0.672   3.615  15.196 -0.0692 -0.5064 -0.1059
16677TIP3    H171446   0.767   3.609  15.181 -0.3407 -0.3050 -2.1341
16677TIP3    H271447   0.652   3.707  15.179 -0.7568 -0.7414 -0.5921
16678TIP3   OH271448   6.458   5.963  16.541  0.0804  0.0232 -0.0955
16678TIP3    H171449   6.362   5.962  16.549  0.0240  1.5594 -0.2209
16678TIP3    H271450   6.489   5.973  16.630  0.0546  1.0233 -0.1893
16679TIP3   OH271451   1.186   3.416   1.089  0.0788  0.7199 -0.3078
16679TIP3    H171452   1.237   3.341   1.061  0.3312 -0.0881  2.1179
16679TIP3    H271453   1.142   3.447   1.009 -0.7548 -2.5309 -1.2498
16680TIP3   OH271454   2.844   5.250  11.717 -0.0321  0.4572  1.3357
16680TIP3    H171455   2.837   5.213  11.629 -1.1054  2.4310  0.5093
16680TIP3    H271456   2.938   5.259  11.732  0.2216 -1.5627  1.1786
16681TIP3   OH271457   1.109   6.358  14.212 -0.1075 -0.3704  0.2056
16681TIP3    H171458   1.031   6.303  14.221  0.4190 -1.5164 -1.6446
16681TIP3    H271459   1.171   6.324  14.276 -0.4300 -0.7641  0.3129
16682TIP3   OH271460   0.726   3.478   4.874 -0.1839  0.2719  0.4564
16682TIP3    H171461   0.677   3.558   4.898 -0.0922  0.3601  0.3512
16682TIP3    H271462   0.691   3.411   4.932  1.5987  0.9540  2.4098
16683TIP3   OH271463   5.542   1.603   4.225 -0.0236 -0.2499  0.6047
16683TIP3    H171464   5.614   1.543   4.240 -0.6174 -1.5639 -1.3622
16683TIP3    H271465   5.552   1.630   4.133 -1.8221 -0.2116  0.3806
16684TIP3   OH271466   0.268   3.872   1.683 -0.0115 -0.0041 -0.2602
16684TIP3    H171467   0.210   3.870   1.607 -1.7447  0.4103  0.9888
16684TIP3    H271468   0.223   3.819   1.749  1.6313 -0.6600  0.3812
16685TIP3   OH271469   2.747   3.971  14.212  0.3365 -0.4607 -0.7632
16685TIP3    H171470   2.810   4.013  14.153  0.8639 -1.3844 -0.8773
16685TIP3    H271471   2.743   4.030  14.288  0.2580  0.3293 -1.3601
16686TIP3   OH271472   1.786   1.256  14.749 -0.0010 -0.8579 -1.0201
16686TIP3    H171473   1.803   1.348  14.772  0.1925 -1.3884  1.0921
16686TIP3    H271474   1.816   1.206  14.825 -0.0078 -2.7006 -2.1732
16687TIP3   OH271475   6.480   0.114   1.615 -0.2844  0.5287 -0.2672
16687TIP3    H171476   6.499   0.204   1.642 -1.5687  0.7204  0.0484
16687TIP3    H271477   6.479   0.064   1.696  0.8768  0.1251 -0.4863
16688TIP3   OH271478   1.013   4.929   3.017  0.7208  0.0195  0.0839
16688TIP3    H171479   1.023   5.002   3.078  0.6026  0.5688 -0.5487
16688TIP3    H271480   1.082   4.943   2.952  0.1480  0.0505 -0.5205
16689TIP3   OH271481   1.853   5.282  12.724  0.5572 -0.1628 -0.7550
16689TIP3    H171482   1.840   5.295  12.818  1.6447  0.4618 -0.6769
16689TIP3    H271483   1.857   5.187  12.713  2.4887 -0.2268  0.1568
16690TIP3   OH271484   6.365   0.737  15.924  0.4391 -0.5714  0.0617
16690TIP3    H171485   6.440   0.718  15.982 -0.2834 -0.3951  1.0764
16690TIP3    H271486   6.398   0.804  15.864  1.6130 -1.6964 -0.6103
16691TIP3   OH271487   1.232   5.192   1.944  0.5565 -0.6047 -0.2177
16691TIP3    H171488   1.271   5.213   1.859 -1.9765 -0.4024 -1.4258
16691TIP3    H271489   1.225   5.276   1.989 -1.3839 -0.0722 -1.3753
16692TIP3   OH271490   2.584   1.133  12.374 -0.3767  0.6256  0.3533
16692TIP3    H171491   2.617   1.164  12.458 -1.0964  1.3793  0.3681
16692TIP3    H271492   2.584   1.210  12.318  0.9979 -0.0654 -0.6432
16693TIP3   OH271493   1.723   3.017   1.510 -0.1776 -0.2053  0.5601
16693TIP3    H171494   1.767   3.098   1.534 -2.3560  1.5353 -0.9662
16693TIP3    H271495   1.718   3.019   1.415 -0.0084 -2.3279  0.4585
16694TIP3   OH271496   1.634   5.104   5.294  0.6801 -0.2374 -0.1121
16694TIP3    H171497   1.705   5.042   5.311 -0.0264 -1.3664 -1.1128
16694TIP3    H271498   1.589   5.112   5.378  1.7554  0.2082  0.4392
16695TIP3   OH271499   2.286   3.474   2.076 -0.3356  0.0010  0.3618
16695TIP3    H171500   2.289   3.510   1.988  1.0690  1.5852  0.9968
16695TIP3    H271501   2.324   3.386   2.067  1.3788  0.7594 -0.3926
16696TIP3   OH271502   1.345   1.166   3.704  0.2844 -0.6144 -0.2081
16696TIP3    H171503   1.427   1.120   3.684  0.2008  0.0237 -2.2230
16696TIP3    H271504   1.368   1.259   3.698 -0.2483 -0.4121  0.7570
16697TIP3   OH271505   4.687   1.485  13.027 -0.9045 -0.1179  0.5918
16697TIP3    H171506   4.756   1.456  12.966 -0.5593  1.0356  0.4138
16697TIP3    H271507   4.735   1.513  13.105 -0.9235  2.6332 -0.2638
16698TIP3   OH271508   0.806   3.037  16.642  0.7682  0.3979 -0.3120
16698TIP3    H171509   0.783   2.945  16.625  0.6644  0.1338  1.1630
16698TIP3    H271510   0.744   3.065  16.708  0.4072  1.7411 -1.1920
16699TIP3   OH271511   0.409   2.445   5.893 -0.3242  0.0875  0.0012
16699TIP3    H171512   0.428   2.447   5.799 -0.1002  0.4220  0.0520
16699TIP3    H271513   0.372   2.358   5.909  0.7425 -0.4023 -0.1807
16700TIP3   OH271514   4.923   3.653  15.624 -0.6261  0.1320  0.1194
16700TIP3    H171515   4.945   3.560  15.626  1.6212  0.5674 -0.9141
16700TIP3    H271516   5.001   3.697  15.657 -0.7845  1.7197 -1.4488
16701TIP3   OH271517   2.968   3.201  14.261 -0.0809 -0.0801 -0.2542
16701TIP3    H171518   2.918   3.141  14.318  0.1325 -0.8384 -0.8406
16701TIP3    H271519   2.945   3.173  14.172  0.4264  0.3788 -0.5325
16702TIP3   OH271520   5.692   2.621  13.764  0.0600  0.1587  0.1991
16702TIP3    H171521   5.650   2.536  13.775 -0.0919  0.3283  0.9895
16702TIP3    H271522   5.690   2.660  13.851  1.4803  0.3487  0.1655
16703TIP3   OH271523   5.795   1.946   3.270  0.6278 -0.2699 -0.3235
16703TIP3    H171524   5.731   2.008   3.235  1.8310  0.8970 -0.5683
16703TIP3    H271525   5.748   1.863   3.276 -0.5662  0.2716 -1.5856
16704TIP3   OH271526   3.192   1.451   1.753 -0.6065  0.6271  0.0505
16704TIP3    H171527   3.187   1.472   1.660 -0.2656 -0.8095 -0.3210
16704TIP3    H271528   3.278   1.483   1.781 -0.1706 -0.0762 -0.4538
16705TIP3   OH271529   2.758   4.197  12.057  0.0843  0.2173 -0.4525
16705TIP3    H171530   2.793   4.233  11.975  1.0845 -0.3873 -0.2991
16705TIP3    H271531   2.826   4.214  12.122  0.3140 -1.4052 -0.2411
16706TIP3   OH271532   4.104   0.530  15.210  0.1257 -0.6483 -0.7721
16706TIP3    H171533   4.093   0.505  15.118  0.6145  0.5302 -1.1732
16706TIP3    H271534   4.113   0.625  15.208 -1.6163 -0.3945  0.6827
16707TIP3   OH271535   2.257   2.127   3.910  0.6990 -0.6387 -0.0930
16707TIP3    H171536   2.350   2.116   3.889  0.7070 -0.5486 -0.1068
16707TIP3    H271537   2.233   2.209   3.867  0.1685 -1.5398 -1.6124
16708TIP3   OH271538   1.459   4.850  17.058 -0.2172  0.2685  0.4834
16708TIP3    H171539   1.510   4.807  16.989 -0.8779  0.8930 -0.4337
16708TIP3    H271540   1.368   4.836  17.031 -0.4583  1.7491  0.4462
16709TIP3   OH271541   6.177   5.844  12.393 -0.1405 -0.0829 -0.1767
16709TIP3    H171542   6.260   5.817  12.356 -1.4692 -3.9592 -0.8204
16709TIP3    H271543   6.176   5.807  12.481 -0.9464  0.4835  0.0737
16710TIP3   OH271544   4.733   1.396   5.330  0.1973  0.8022 -0.0485
16710TIP3    H171545   4.651   1.354   5.356  0.8942 -1.3983 -1.1125
16710TIP3    H271546   4.790   1.386   5.406 -0.6040  2.7673  0.8729
16711TIP3   OH271547   1.393   5.450   3.241 -0.4753 -0.4093 -0.2215
16711TIP3    H171548   1.338   5.376   3.214 -1.7045  0.3415  0.1305
16711TIP3    H271549   1.375   5.461   3.334 -0.8026  0.7139 -0.3952
16712TIP3   OH271550   0.006   5.782   0.490 -0.3716  0.1795  0.2962
16712TIP3    H171551   0.083   5.745   0.534  0.6039  0.4787 -1.0816
16712TIP3    H271552   0.043   5.847   0.430 -1.7784  0.8931  0.1730
16713TIP3   OH271553   3.364   4.818   5.280 -0.2334 -0.6071  0.1021
16713TIP3    H171554   3.399   4.884   5.219 -1.6476 -1.4380 -1.7263
16713TIP3    H271555   3.299   4.867   5.331  0.0776 -0.1623  0.0837
16714TIP3   OH271556   2.064   6.536  15.714  0.0407 -0.2888  0.1210
16714TIP3    H171557   2.113   6.519  15.634 -2.1866 -0.8459 -1.2128
16714TIP3    H271558   2.068   6.453  15.762  0.9736 -0.1028  0.3880
16715TIP3   OH271559   5.288   3.471   4.278 -0.3893  0.2526  0.4433
16715TIP3    H171560   5.205   3.503   4.314 -0.3528  0.3767  0.4150
16715TIP3    H271561   5.325   3.418   4.348 -0.2820  0.5569  0.6186
16716TIP3   OH271562   6.141   3.552  11.451  0.4111  0.1596  0.2004
16716TIP3    H171563   6.123   3.481  11.511 -0.2749  1.2301  1.3159
16716TIP3    H271564   6.231   3.578  11.469  0.2744  0.3385  0.6293
16717TIP3   OH271565   0.755   6.206  11.021 -0.2557  0.2150 -0.2299
16717TIP3    H171566   0.808   6.134  10.986 -1.5749 -0.6013 -0.5943
16717TIP3    H271567   0.778   6.281  10.966  0.0073 -0.2900 -0.8218
16718TIP3   OH271568   2.774   4.599  14.279  0.6656 -0.0252 -0.2679
16718TIP3    H171569   2.832   4.673  14.299  1.9403 -1.5855  2.3625
16718TIP3    H271570   2.834   4.527  14.257 -0.4498 -0.7929 -0.8815
16719TIP3   OH271571   1.722   1.495   3.908  0.9984  0.2772 -0.0010
16719TIP3    H171572   1.713   1.578   3.862  0.6879 -0.3371 -1.0826
16719TIP3    H271573   1.812   1.467   3.890  1.2911  0.6425  0.8417
16720TIP3   OH271574   0.814   0.227   3.134  0.7113 -1.0950  0.0103
16720TIP3    H171575   0.778   0.157   3.080  0.9397  0.4746 -2.2983
16720TIP3    H271576   0.885   0.264   3.083  0.1325  1.2975  0.7912
16721TIP3   OH271577   0.177   3.372   1.885  0.7509 -0.1401 -0.1526
16721TIP3    H171578   0.128   3.295   1.914 -0.0702 -0.7804 -2.9435
16721TIP3    H271579   0.234   3.392   1.959 -1.5985 -1.1420  2.1282
16722TIP3   OH271580   6.417   2.410  15.922  0.4495 -0.2307  0.5471
16722TIP3    H171581   6.489   2.459  15.882 -0.5183 -0.2830 -1.3480
16722TIP3    H271582   6.390   2.348  15.855 -1.7253  0.1524  1.0089
16723TIP3   OH271583   6.179   3.198   0.161  0.0286  0.1350  0.0545
16723TIP3    H171584   6.274   3.189   0.164 -0.1608 -2.1492  0.9525
16723TIP3    H271585   6.149   3.125   0.108 -1.1947  1.6292 -1.4247
16724TIP3   OH271586   1.445   3.183   5.565 -0.3782  0.7804  0.0137
16724TIP3    H171587   1.454   3.143   5.651 -1.9523  1.7356  0.6688
16724TIP3    H271588   1.412   3.114   5.509  0.9498  0.0657  0.0600
16725TIP3   OH271589   0.922   1.466  12.557 -0.2962  0.1957  0.0221
16725TIP3    H171590   0.865   1.439  12.629 -1.4539 -0.1543 -1.0036
16725TIP3    H271591   0.960   1.385  12.524 -2.1323 -0.0370 -1.6873
16726TIP3   OH271592   5.980   0.479  16.778 -0.3195  0.4795  0.1478
16726TIP3    H171593   6.013   0.527  16.702 -1.0942  1.0337  0.1469
16726TIP3    H271594   5.888   0.506  16.785 -0.4477 -0.1154  0.8511
16727TIP3   OH271595   6.787   5.468   5.455  0.3037 -0.3875 -0.1446
16727TIP3    H171596   6.833   5.551   5.464  0.8253 -0.6517 -0.2927
16727TIP3    H271597   6.857   5.402   5.457 -0.0990 -0.8135 -0.0827
16728TIP3   OH271598   4.076   5.087   0.904 -0.0314 -0.7233 -0.2284
16728TIP3    H171599   3.994   5.048   0.874 -1.6751  1.0827  1.6098
16728TIP3    H271600   4.072   5.177   0.873  1.4466 -0.6700 -0.3466
16729TIP3   OH271601   1.179   0.691  11.320  0.2211 -0.2642 -0.7585
16729TIP3    H171602   1.108   0.661  11.377  0.6932 -1.3932 -0.7332
16729TIP3    H271603   1.253   0.705  11.379 -0.2672  2.0405 -0.6194
16730TIP3   OH271604   0.268   1.892   2.489 -0.1803 -0.1199  0.1949
16730TIP3    H171605   0.298   1.804   2.466 -0.7819  0.1537 -1.7809
16730TIP3    H271606   0.302   1.948   2.419 -0.6380  1.0763  0.8953
16731TIP3   OH271607   3.012   2.726  12.333  0.0846 -0.3191 -0.6177
16731TIP3    H171608   3.099   2.764  12.319  1.1317 -1.6771  1.7625
16731TIP3    H271609   2.956   2.801  12.355  1.6779  0.2064  2.0874
16732TIP3   OH271610   0.869   5.031   4.359 -0.2754 -0.5291 -0.1309
16732TIP3    H171611   0.819   5.018   4.440 -2.1609  1.3086 -0.9046
16732TIP3    H271612   0.847   4.956   4.304  0.4738 -1.4330  0.7756
16733TIP3   OH271613   2.961   4.538  15.966 -0.7881 -0.5666  0.5726
16733TIP3    H171614   2.920   4.456  15.995  0.2139 -0.7323  1.6203
16733TIP3    H271615   3.052   4.515  15.951 -0.2958  0.5070  1.6867
16734TIP3   OH271616   3.732   4.136  15.652 -0.0801  0.2578 -0.7514
16734TIP3    H171617   3.658   4.145  15.591  0.0821  0.1591 -0.9665
16734TIP3    H271618   3.777   4.221  15.646 -1.6271  1.3062  1.3316
16735TIP3   OH271619   4.810   6.235  11.668  0.1916  0.0094  0.4326
16735TIP3    H171620   4.851   6.151  11.649 -2.0215 -0.6906 -1.8855
16735TIP3    H271621   4.820   6.285  11.587 -2.0613  0.3344  0.2797
16736TIP3   OH271622   1.311   4.703   0.505 -0.4734  0.2325 -0.3174
16736TIP3    H171623   1.256   4.660   0.570 -0.1147  1.7894  1.1265
16736TIP3    H271624   1.275   4.678   0.421 -1.4668 -1.2260  0.5019
16737TIP3   OH271625   0.881   2.127  14.671 -0.2670 -0.5007 -0.0148
16737TIP3    H171626   0.880   2.031  14.673  0.1055 -0.5693 -1.7607
16737TIP3    H271627   0.829   2.153  14.748  0.5973 -2.0685  1.1665
16738TIP3   OH271628   1.876   0.845  14.743 -0.1674  0.2866  0.5351
16738TIP3    H171629   1.938   0.849  14.670 -0.4870  0.0644  0.2514
16738TIP3    H271630   1.796   0.884  14.709 -0.5056 -0.3533  0.5759
16739TIP3   OH271631   2.940   6.804  13.039  0.1968  0.7020 -0.4182
16739TIP3    H171632   2.976   6.786  12.952  3.3837  0.9914  0.7097
16739TIP3    H271633   2.936   6.900  13.043 -1.2125  0.6713 -0.6686
16740TIP3   OH271634   3.769   0.941  11.083 -0.1932  0.0366  0.1293
16740TIP3    H171635   3.794   1.002  11.153  3.9485 -2.1746  0.8874
16740TIP3    H271636   3.715   0.876  11.127 -0.9503  0.7654  0.3083
16741TIP3   OH271637   5.528   6.677  16.712 -0.0439  0.1992 -0.1985
16741TIP3    H171638   5.623   6.683  16.719 -0.1104  1.1167  0.0370
16741TIP3    H271639   5.496   6.690  16.801 -0.4107  0.3667 -0.3514
16742TIP3   OH271640   5.513   3.613   1.379 -0.0922 -0.3298 -0.0857
16742TIP3    H171641   5.421   3.596   1.400 -0.7067 -0.0785 -2.3303
16742TIP3    H271642   5.550   3.644   1.461 -2.0342 -0.3044  0.8564
16743TIP3   OH271643   5.570   4.120   2.662 -0.2268 -0.0782  0.2172
16743TIP3    H171644   5.560   4.036   2.617  0.2738 -0.1454  0.2263
16743TIP3    H271645   5.607   4.097   2.747 -0.5696  0.1080  0.4204
16744TIP3   OH271646   0.261   4.235   2.426 -0.0346  0.3772  0.5187
16744TIP3    H171647   0.328   4.221   2.493  0.7437  0.3050 -0.2567
16744TIP3    H271648   0.272   4.162   2.365 -0.3188  0.7740 -0.0199
16745TIP3   OH271649   3.495   4.663   1.506 -0.8527 -0.0452 -0.0438
16745TIP3    H171650   3.589   4.672   1.492 -0.5299 -1.9328  0.6064
16745TIP3    H271651   3.455   4.717   1.437  0.7086 -0.4412 -1.3247
16746TIP3   OH271652   4.453   3.024   3.812  0.0417  0.0700  0.0641
16746TIP3    H171653   4.525   3.002   3.753  0.5899 -0.3923  0.8895
16746TIP3    H271654   4.494   3.069   3.885 -0.5260 -0.0540  0.4731
16747TIP3   OH271655   1.077   6.799   6.578  0.0820 -0.1085  0.1805
16747TIP3    H171656   1.166   6.831   6.563 -0.0201  0.2014  0.2258
16747TIP3    H271657   1.079   6.763   6.666  0.0109  0.4471  0.4163
16748TIP3   OH271658   5.420   4.472  12.311  0.3705  0.0043  0.1809
16748TIP3    H171659   5.499   4.520  12.285  0.1677 -0.3699 -1.1948
16748TIP3    H271660   5.363   4.477  12.235 -1.5486  1.4631  1.6173
16749TIP3   OH271661   1.074   4.218  14.799  0.4021 -0.0684  0.1391
16749TIP3    H171662   1.097   4.133  14.761  1.4160  0.2497  0.0314
16749TIP3    H271663   1.125   4.282  14.749 -1.0140  0.7120 -0.3939
16750TIP3   OH271664   1.474   0.291   4.742 -0.0626 -0.2781  0.1226
16750TIP3    H171665   1.483   0.219   4.680 -1.1418  0.3989 -0.8549
16750TIP3    H271666   1.556   0.290   4.792 -0.0935 -2.2142  0.1940
16751TIP3   OH271667   1.036   4.009   5.411 -0.0654 -0.6247  0.3141
16751TIP3    H171668   1.051   3.970   5.498  0.6953  0.1989  0.5747
16751TIP3    H271669   0.951   3.976   5.384  1.1291 -3.6420 -0.1274
16752TIP3   OH271670   6.062   1.822   2.910 -0.3625  0.3250 -0.2603
16752TIP3    H171671   6.010   1.762   2.963 -0.7775  1.2055  0.3686
16752TIP3    H271672   5.997   1.874   2.862 -0.0265  0.6506 -0.3667
16753TIP3   OH271673   0.535   0.581  15.497  0.1197  0.2697 -0.4413
16753TIP3    H171674   0.628   0.572  15.477  0.3703  0.0091  0.7653
16753TIP3    H271675   0.502   0.643  15.431  0.9030 -0.4523 -1.5284
16754TIP3   OH271676   6.195   3.976   3.075  0.2076 -0.1934  0.1347
16754TIP3    H171677   6.179   4.002   2.985  0.6951 -0.2057  0.0407
16754TIP3    H271678   6.110   3.948   3.108  0.2174 -1.2527 -0.6664
16755TIP3   OH271679   0.437   4.712   2.623  0.0174 -0.6184  0.3657
16755TIP3    H171680   0.484   4.672   2.695  2.4433 -0.5229 -1.0445
16755TIP3    H271681   0.401   4.639   2.574  2.0551 -1.0416 -0.6414
16756TIP3   OH271682   2.613   6.166  12.445 -0.1713  0.6214  0.3322
16756TIP3    H171683   2.546   6.152  12.379 -0.2418  1.1744  0.2811
16756TIP3    H271684   2.687   6.205  12.397 -0.2083  0.9874  0.5644
16757TIP3   OH271685   1.932   5.499   5.240  0.1780  0.3827 -0.6575
16757TIP3    H171686   1.886   5.566   5.189 -0.8746 -0.3553 -0.7160
16757TIP3    H271687   1.918   5.418   5.191  1.3726  0.0994 -0.5512
16758TIP3   OH271688   6.278   4.048   2.146 -0.0325 -0.0786  0.5324
16758TIP3    H171689   6.355   4.016   2.098 -0.3347  0.4743 -0.3654
16758TIP3    H271690   6.254   4.129   2.100 -1.1344 -0.2298  0.8168
16759TIP3   OH271691   2.674   0.830   1.715  0.0027  0.8378 -0.1105
16759TIP3    H171692   2.755   0.785   1.741  1.3666  1.9392 -2.1864
16759TIP3    H271693   2.658   0.801   1.625 -1.1917  1.6172 -0.1726
16760TIP3   OH271694   6.633   2.941  13.994 -0.5163 -0.0755  0.8736
16760TIP3    H171695   6.704   2.880  13.976 -0.6436 -0.2467  0.9543
16760TIP3    H271696   6.567   2.923  13.926 -0.3783  0.2487  0.6508
16761TIP3   OH271697   3.332   5.161  10.273 -0.2739  0.3187 -0.3407
16761TIP3    H171698   3.314   5.251  10.244 -1.4280  0.8331  1.8305
16761TIP3    H271699   3.325   5.164  10.368  0.3856 -1.9488 -0.1628
16762TIP3   OH271700   0.543   3.385   5.232  0.3084 -0.0512  0.3146
16762TIP3    H171701   0.564   3.354   5.320  1.4578  1.0606  0.4714
16762TIP3    H271702   0.572   3.476   5.232  0.9310 -0.2194 -1.4165
16763TIP3   OH271703   1.355   1.796   6.079 -0.4460  0.2278  0.3778
16763TIP3    H171704   1.310   1.822   5.999  1.3863  1.4186 -0.3385
16763TIP3    H271705   1.342   1.701   6.084 -1.3593  0.2701 -0.8309
16764TIP3   OH271706   2.763   1.931   2.372 -0.3250 -0.1196 -0.4888
16764TIP3    H171707   2.827   1.866   2.401  1.5286  1.4907 -0.7462
16764TIP3    H271708   2.790   1.953   2.283 -0.4279  1.5304 -0.1425
16765TIP3   OH271709   0.717   0.187  14.254 -0.5160 -0.6303 -0.6406
16765TIP3    H171710   0.721   0.162  14.346 -1.0460 -2.4602 -1.0725
16765TIP3    H271711   0.805   0.216  14.232 -0.6388  0.8797  0.6891
16766TIP3   OH271712   2.285   5.948  14.016 -0.0034  0.5233  0.2426
16766TIP3    H171713   2.283   5.874  14.075  3.4233  0.7734  0.8695
16766TIP3    H271714   2.302   5.910  13.930  1.2428  0.4901  0.4835
16767TIP3   OH271715   4.930   2.594   3.162 -0.6230 -0.4006  1.2400
16767TIP3    H171716   5.024   2.603   3.179 -0.9355  2.3839  1.9609
16767TIP3    H271717   4.926   2.565   3.071  0.9209 -2.9492  1.8914
16768TIP3   OH271718   0.922   1.363  13.355  0.5081 -0.0871  0.3524
16768TIP3    H171719   0.975   1.442  13.342  1.0110 -0.7045 -1.7446
16768TIP3    H271720   0.836   1.385  13.319  0.2226 -0.0593  1.0352
16769TIP3   OH271721   4.551   3.359  15.371  0.1655 -0.6007 -0.2855
16769TIP3    H171722   4.513   3.417  15.436  2.2288 -1.4353  1.7939
16769TIP3    H271723   4.494   3.282  15.372 -0.4618 -0.1395 -0.3026
16770TIP3   OH271724   6.240   4.671   0.354  0.4325  0.4593  0.2704
16770TIP3    H171725   6.251   4.624   0.271  0.5413  1.8337 -0.5181
16770TIP3    H271726   6.192   4.750   0.330 -0.9393  0.1377  1.7952
16771TIP3   OH271727   3.065   2.196   0.926 -0.5465 -0.8891  0.6802
16771TIP3    H171728   2.996   2.256   0.899  0.5241 -0.0251 -0.2431
16771TIP3    H271729   3.035   2.110   0.896 -0.9240 -0.4351 -0.2792
16772TIP3   OH271730   3.607   1.977   2.740  0.7087  0.2704 -0.2506
16772TIP3    H171731   3.671   2.018   2.682  1.2550  0.3104  0.3720
16772TIP3    H271732   3.524   2.021   2.720  1.2792  1.6677  0.3896
16773TIP3   OH271733   3.531   2.438  12.853 -0.0906  0.9622  0.5003
16773TIP3    H171734   3.537   2.342  12.857  1.9755  1.0848  1.5516
16773TIP3    H271735   3.527   2.457  12.760 -2.8187 -0.1921  0.2793
16774TIP3   OH271736   1.587   0.897   4.647 -0.2760  0.3886  0.4227
16774TIP3    H171737   1.634   0.974   4.679 -1.3759  0.6799  1.4327
16774TIP3    H271738   1.526   0.932   4.582  0.6919  0.0516 -0.6910
16775TIP3   OH271739   5.762   0.744  12.865 -0.4713  0.0498 -0.0541
16775TIP3    H171740   5.705   0.779  12.796 -0.8609 -2.1033 -0.8973
16775TIP3    H271741   5.847   0.735  12.822 -0.5144 -0.5402 -0.0157
16776TIP3   OH271742   1.677   6.714  14.644  0.5488 -0.1354  0.0541
16776TIP3    H171743   1.733   6.638  14.627 -0.8334 -0.9055 -1.3369
16776TIP3    H271744   1.625   6.689  14.720  0.9086 -0.1155  0.3066
16777TIP3   OH271745   4.698   4.272  13.079 -0.2263 -0.4622  0.1702
16777TIP3    H171746   4.728   4.349  13.032  0.7305 -0.8505  0.1158
16777TIP3    H271747   4.625   4.303  13.132 -0.2322  0.3478 -0.2955
16778TIP3   OH271748   4.858   0.624   1.305  0.6091 -0.3778 -0.1334
16778TIP3    H171749   4.884   0.694   1.245  1.5004  1.0997  1.8578
16778TIP3    H271750   4.940   0.585   1.334  0.3573  0.2611  1.5820
16779TIP3   OH271751   3.273   1.510  12.432 -0.0408 -0.0725  0.4059
16779TIP3    H171752   3.271   1.598  12.468 -0.8914  0.1946 -0.2596
16779TIP3    H271753   3.189   1.471  12.457 -0.9831  0.3785 -1.8484
16780TIP3   OH271754   1.433   0.850  13.264  0.4671 -0.1763  0.3420
16780TIP3    H171755   1.433   0.860  13.359 -2.4821 -2.3039  0.7131
16780TIP3    H271756   1.507   0.792  13.245  0.7809 -0.1290  1.3903
16781TIP3   OH271757   5.274   5.258  15.023  0.8448  0.5337  0.0902
16781TIP3    H171758   5.229   5.186  15.068  2.8497 -0.8497  0.0109
16781TIP3    H271759   5.261   5.240  14.930  0.5034  0.8695  0.0673
16782TIP3   OH271760   2.916   4.656   3.677 -0.0925 -0.0635  0.1178
16782TIP3    H171761   2.883   4.630   3.592  0.7524 -1.2094  0.1167
16782TIP3    H271762   2.993   4.710   3.657 -0.8246  1.0351  0.1527
16783TIP3   OH271763   2.721   1.878  15.218  0.4178  0.0673 -0.0800
16783TIP3    H171764   2.779   1.809  15.252 -0.2333 -0.6613 -0.4017
16783TIP3    H271765   2.669   1.833  15.151  0.4947  1.0587 -0.8269
16784TIP3   OH271766   1.413   6.297  10.727 -0.0561  0.3302  0.2805
16784TIP3    H171767   1.409   6.393  10.729 -0.1797  0.4110 -1.7037
16784TIP3    H271768   1.497   6.277  10.687 -0.0057 -0.3967  0.7384
16785TIP3   OH271769   3.651   3.008   0.923 -0.2196  0.3300 -0.1721
16785TIP3    H171770   3.654   2.958   1.005 -1.5295 -0.1243 -0.3705
16785TIP3    H271771   3.559   3.036   0.916  0.1987  1.6478 -0.7426
16786TIP3   OH271772   1.580   1.483  13.975  0.2863  0.0457  0.4824
16786TIP3    H171773   1.601   1.431  13.898  0.6415 -1.3751  1.4815
16786TIP3    H271774   1.485   1.471  13.987  0.4250 -0.7169  0.9145
16787TIP3   OH271775   4.861   1.297  16.807  0.5146 -0.2400  0.5572
16787TIP3    H171776   4.809   1.377  16.795  0.5192 -0.3481 -0.2321
16787TIP3    H271777   4.935   1.325  16.861 -0.0644  0.0375  1.2300
16788TIP3   OH271778   1.782   2.202   3.630  0.1836 -1.2336  0.5888
16788TIP3    H171779   1.771   2.121   3.580  0.2682 -1.1945  0.5083
16788TIP3    H271780   1.745   2.270   3.575  0.4978 -1.1557  0.4767
16789TIP3   OH271781   6.569   4.613  13.846  0.2724  0.3961  0.4748
16789TIP3    H171782   6.646   4.571  13.884  0.9734  2.5650  1.5777
16789TIP3    H271783   6.518   4.642  13.921  0.0093  1.8344 -0.2302
16790TIP3   OH271784   5.662   2.649   4.354 -0.3084  0.0823 -0.9487
16790TIP3    H171785   5.602   2.723   4.353 -0.5112 -0.0499  0.2006
16790TIP3    H271786   5.656   2.612   4.265  0.2998  1.8079 -1.7534
16791TIP3   OH271787   6.134   1.355   5.246  0.0059  0.4920  0.6697
16791TIP3    H171788   6.041   1.344   5.226 -0.2968  2.4292  0.8302
16791TIP3    H271789   6.145   1.312   5.331 -1.5947  3.2112  2.4030
16792TIP3   OH271790   2.185   1.933  12.466 -0.8352  0.3111  0.1414
16792TIP3    H171791   2.240   1.879  12.408  0.2886 -1.4914  2.6835
16792TIP3    H271792   2.096   1.916  12.437 -0.3025 -0.2912 -1.2310
16793TIP3   OH271793   6.728   5.002  14.982  0.3570  0.0694  0.1682
16793TIP3    H171794   6.780   4.933  15.024  0.8600 -2.0749 -3.5317
16793TIP3    H271795   6.792   5.068  14.958  0.7405 -0.5911 -0.6816
16794TIP3   OH271796   6.713   5.567   3.159  0.9853 -0.0513  0.3824
16794TIP3    H171797   6.649   5.497   3.149  0.7378  0.3723 -1.3544
16794TIP3    H271798   6.790   5.524   3.194  1.0030 -1.3423 -1.1096
16795TIP3   OH271799   2.260   0.001   2.001 -0.1075 -0.2717 -0.5261
16795TIP3    H171800   2.281   0.032   1.913  1.5032  0.2727  0.0124
16795TIP3    H271801   2.290  -0.090   2.001 -0.7804 -0.5047 -0.7391
16796TIP3   OH271802   6.425   5.609  11.838 -0.0930  0.4856 -0.0711
16796TIP3    H171803   6.421   5.536  11.776 -2.8043  0.2432  0.2794
16796TIP3    H271804   6.420   5.567  11.924 -0.1251  1.0115  0.1865
16797TIP3   OH271805   4.739   4.973  11.706  0.3002  0.0215 -0.0898
16797TIP3    H171806   4.755   5.060  11.742  1.7699  0.5358 -1.7832
16797TIP3    H271807   4.652   4.979  11.667 -0.1694  0.2923  0.9809
16798TIP3   OH271808   1.278   3.663   2.422 -0.4593 -0.2410 -0.1318
16798TIP3    H171809   1.250   3.700   2.338  0.5096 -1.3353 -0.9741
16798TIP3    H271810   1.300   3.572   2.402  3.4049  0.3966  0.4571
16799TIP3   OH271811   4.714   4.344   2.236  0.8645  0.3568  0.1914
16799TIP3    H171812   4.714   4.326   2.142 -0.7691 -2.0172  0.5411
16799TIP3    H271813   4.623   4.366   2.256  0.6323 -1.5595  1.5288
16800TIP3   OH271814   1.438   1.423   4.423 -0.5611  0.5739 -0.4883
16800TIP3    H171815   1.402   1.504   4.458 -0.8304  0.7040 -1.0409
16800TIP3    H271816   1.401   1.418   4.334  0.0609  0.2411 -0.7341
16801TIP3   OH271817   4.097   2.259   6.185 -0.4187 -0.4801  0.2679
16801TIP3    H171818   4.106   2.303   6.269 -1.9242  1.0757 -0.3286
16801TIP3    H271819   4.127   2.323   6.121 -1.8197 -0.6038 -0.5504
16802TIP3   OH271820   5.345   3.194   3.667  0.4983  0.1794  0.8492
16802TIP3    H171821   5.345   3.106   3.631  0.0180  0.4335  0.2158
16802TIP3    H271822   5.253   3.213   3.685  0.2441  1.5662 -1.5643
16803TIP3   OH271823   5.103   6.292  12.697 -0.1053 -0.1612  0.2919
16803TIP3    H171824   5.073   6.211  12.736  0.2081 -0.1965  0.4573
16803TIP3    H271825   5.137   6.267  12.611  0.0100 -0.2070  0.3511
16804TIP3   OH271826   1.445   5.591   2.990  0.1207  0.5922  0.3228
16804TIP3    H171827   1.477   5.582   3.080 -1.0804  1.2613  0.8317
16804TIP3    H271828   1.478   5.677   2.962  0.8237  0.2184 -0.0348
16805TIP3   OH271829   2.541   6.348   1.897  0.4953 -0.6929 -0.4590
16805TIP3    H171830   2.515   6.375   1.985  1.8726  2.2490 -0.8167
16805TIP3    H271831   2.463   6.305   1.861 -0.4195 -1.0814  1.8177
16806TIP3   OH271832   2.701   3.167  13.006 -0.0826  0.2495 -0.0311
16806TIP3    H171833   2.653   3.110  13.066  1.3275 -1.7886 -0.7249
16806TIP3    H271834   2.774   3.200  13.058 -1.2266  2.0165  0.5465
16807TIP3   OH271835   2.945   5.850   2.978  0.1730 -0.6998  0.2575
16807TIP3    H171836   2.965   5.928   2.927  0.2983 -1.2845 -0.6117
16807TIP3    H271837   2.852   5.859   2.999  0.3336 -0.0145  0.7204
16808TIP3   OH271838   2.494   5.323  13.006  0.6158 -0.7438 -0.4450
16808TIP3    H171839   2.439   5.261  12.958 -0.9607 -0.1275  0.4760
16808TIP3    H271840   2.566   5.270  13.039  0.1986 -1.7428 -1.0669
16809TIP3   OH271841   1.874   1.098  11.266  0.4587  0.0520 -0.2640
16809TIP3    H171842   1.822   1.104  11.186 -0.8362 -0.6822  0.4867
16809TIP3    H271843   1.957   1.140  11.244 -0.2180  0.7016 -1.6917
16810TIP3   OH271844   0.832   1.690   0.770  0.4286  0.2845  0.1136
16810TIP3    H171845   0.759   1.711   0.711 -0.2969 -0.8439  0.5853
16810TIP3    H271846   0.790   1.676   0.855  1.0300 -1.5458  0.1485
16811TIP3   OH271847   2.809   2.356   1.406 -0.3314  0.0212  0.3454
16811TIP3    H171848   2.823   2.388   1.317  1.6739 -1.0895  0.2264
16811TIP3    H271849   2.874   2.403   1.458 -2.0200  1.2906  1.4517
16812TIP3   OH271850   4.137   4.710  12.364  0.5259 -0.5368 -0.3217
16812TIP3    H171851   4.092   4.627  12.380  0.7991 -0.9119 -1.4352
16812TIP3    H271852   4.212   4.687  12.309 -0.2753  0.6297 -1.9952
16813TIP3   OH271853   2.880   5.187  16.365 -0.5585 -0.0119 -0.1570
16813TIP3    H171854   2.934   5.244  16.419 -0.9832  0.8050 -0.5742
16813TIP3    H271855   2.804   5.241  16.341 -0.8121 -0.6447 -0.8267
16814TIP3   OH271856   4.492   4.012  13.626 -0.2756 -0.0462 -0.4615
16814TIP3    H171857   4.416   4.069  13.637 -0.6979 -0.1664 -2.2991
16814TIP3    H271858   4.566   4.063  13.659 -1.0629  0.2945  0.8397
16815TIP3   OH271859   2.620   0.939  13.200  0.3762 -0.4907  0.0426
16815TIP3    H171860   2.665   0.991  13.133 -2.7717  0.1827 -1.7614
16815TIP3    H271861   2.559   1.000  13.240  0.8777 -1.3775  2.3242
16816TIP3   OH271862   6.028   6.186  12.477  0.3250 -0.4557  0.9836
16816TIP3    H171863   5.970   6.247  12.523 -0.1820  0.6884 -1.0500
16816TIP3    H271864   5.973   6.145  12.411  0.8700 -2.5751  1.7709
16817TIP3   OH271865   5.466   0.831  14.088 -0.0788  0.0398  0.2011
16817TIP3    H171866   5.399   0.898  14.076 -0.0467  0.2475  1.0626
16817TIP3    H271867   5.426   0.767  14.148  0.8352  0.7127  1.5890
16818TIP3   OH271868   5.269   2.755  16.822  0.4430 -0.3167 -0.0456
16818TIP3    H171869   5.345   2.731  16.769  1.3524 -0.0410  1.1017
16818TIP3    H271870   5.304   2.815  16.888 -0.7386 -0.3516  0.6291
16819TIP3   OH271871   0.809   4.849   2.330  0.3144 -0.2642 -0.3231
16819TIP3    H171872   0.891   4.892   2.308  1.1105 -1.4746  0.1485
16819TIP3    H271873   0.752   4.866   2.255  0.8606  0.8902 -0.5044
16820TIP3   OH271874   5.088   0.926   3.765 -0.2125 -0.5783 -0.6641
16820TIP3    H171875   5.115   0.917   3.856 -0.2630  0.5983 -0.5222
16820TIP3    H271876   5.133   0.854   3.720  2.4985  0.7129 -0.2635
16821TIP3   OH271877   6.288   5.185   2.311 -0.6618 -0.1393  0.0206
16821TIP3    H171878   6.382   5.166   2.311 -0.6172 -0.1563  1.9693
16821TIP3    H271879   6.253   5.136   2.236  1.1359  1.4467 -1.9680
16822TIP3   OH271880   6.084   0.827  15.728 -0.3182 -0.2162 -0.3720
16822TIP3    H171881   6.078   0.859  15.818 -2.1060  0.0163 -0.5248
16822TIP3    H271882   6.150   0.883  15.686  1.1490 -0.8627  0.9725
16823TIP3   OH271883   3.954   3.111   0.882 -0.2245  0.0530  0.0163
16823TIP3    H171884   3.986   3.021   0.892 -0.8690 -0.1579  0.2599
16823TIP3    H271885   3.877   3.115   0.938  0.4612  1.1080  0.9408
16824TIP3   OH271886   5.927   2.452   4.582 -0.1967 -0.1523 -0.3784
16824TIP3    H171887   5.990   2.484   4.517  0.0528  2.2745  0.9299
16824TIP3    H271888   5.915   2.360   4.560  3.2600 -0.5671 -1.1307
16825TIP3   OH271889   5.799   2.830  11.179  0.6900  0.1163 -0.3670
16825TIP3    H171890   5.753   2.769  11.121 -0.1576 -0.3710  0.7782
16825TIP3    H271891   5.734   2.897  11.199  0.7330 -0.1150  0.5892
16826TIP3   OH271892   0.290   4.801  13.445 -0.3405 -0.3006  0.0760
16826TIP3    H171893   0.362   4.757  13.491  0.1087  2.1428  1.9258
16826TIP3    H271894   0.311   4.791  13.352  2.0148 -0.2891  0.5519
16827TIP3   OH271895   4.092   4.179   2.964  0.3402 -0.1763 -0.0343
16827TIP3    H171896   4.160   4.114   2.983  1.2785  0.8420  0.1707
16827TIP3    H271897   4.132   4.263   2.984 -0.9750  0.4614  0.0464
16828TIP3   OH271898   6.440   6.466   2.237 -0.2087 -0.2267 -0.3217
16828TIP3    H171899   6.481   6.429   2.315  0.9899  1.1362 -0.2689
16828TIP3    H271900   6.432   6.559   2.256 -2.3956 -0.2670 -0.7733
16829TIP3   OH271901   0.511   6.489  14.299  0.4598 -0.4294  0.0553
16829TIP3    H171902   0.606   6.498  14.287 -0.0339  0.7993 -6.1158
16829TIP3    H271903   0.491   6.402  14.263 -0.9391  0.7911 -2.3546
16830TIP3   OH271904   1.127   0.486   2.616  0.3646  0.4155  0.0557
16830TIP3    H171905   1.174   0.458   2.537  0.3453  1.0503 -0.1871
16830TIP3    H271906   1.194   0.487   2.684  0.9705  2.3167 -0.5122
16831TIP3   OH271907   5.793   6.233  14.479 -0.0759 -0.3461  0.2192
16831TIP3    H171908   5.719   6.201  14.531 -0.0242  0.0041  0.5173
16831TIP3    H271909   5.761   6.232  14.389 -2.1729  4.0580  0.6186
16832TIP3   OH271910   2.134   1.540  14.612 -0.8671  0.0478  1.3339
16832TIP3    H171911   2.128   1.587  14.695  1.8379  0.9561  1.1093
16832TIP3    H271912   2.173   1.603  14.551 -1.2885 -1.1080 -0.1953
16833TIP3   OH271913   4.424   6.706  11.491 -0.5184  0.1572  0.0630
16833TIP3    H171914   4.392   6.796  11.499 -0.8640 -0.0009  0.5076
16833TIP3    H271915   4.519   6.715  11.483 -0.7003  0.6699 -2.0005
16834TIP3   OH271916   5.256   1.797   4.127  0.3180  0.2062 -0.4935
16834TIP3    H171917   5.319   1.863   4.153  0.8710 -0.4005 -0.2729
16834TIP3    H271918   5.171   1.840   4.137  0.7119  1.2873 -1.5251
16835TIP3   OH271919   5.495   5.812   0.671 -0.1299  0.4222 -0.1441
16835TIP3    H171920   5.530   5.723   0.660 -2.3108 -0.5055  0.0117
16835TIP3    H271921   5.573   5.865   0.687  1.2012 -1.5529  0.4444
16836TIP3   OH271922   2.750   4.336   3.118  0.3136  0.3021  0.1409
16836TIP3    H171923   2.823   4.363   3.173  0.0135  1.7368 -0.1303
16836TIP3    H271924   2.757   4.241   3.113  1.0916  0.2669  1.6005
16837TIP3   OH271925   2.353   1.297  12.383  0.3334 -0.1926 -0.4348
16837TIP3    H171926   2.402   1.229  12.338  2.4746  2.0577 -1.8049
16837TIP3    H271927   2.376   1.287  12.475  2.3509 -0.0726 -0.8775
16838TIP3   OH271928   5.236   1.887   4.451  0.6137  0.5201 -0.1244
16838TIP3    H171929   5.211   1.846   4.534  0.4624 -0.3055 -0.5705
16838TIP3    H271930   5.294   1.824   4.409 -1.0839 -0.1294 -1.6694
16839TIP3   OH271931   0.071   3.566   0.015 -0.1741 -0.1330  0.5371
16839TIP3    H171932   0.148   3.622   0.022 -0.7284  0.6509  0.4672
16839TIP3    H271933   0.003   3.612   0.064 -1.5221  0.8164 -2.0256
16840TIP3   OH271934   6.370   2.660   5.247  0.2053 -0.2937 -0.5777
16840TIP3    H171935   6.282   2.670   5.210 -0.3510 -0.1338  0.6925
16840TIP3    H271936   6.425   2.636   5.174 -0.4748  1.7466 -1.8557
16841TIP3   OH271937   5.229   5.407  11.423 -0.3429 -0.2257 -0.2830
16841TIP3    H171938   5.279   5.406  11.342 -0.7646  0.6707 -0.5709
16841TIP3    H271939   5.168   5.334  11.415 -0.1394 -0.3586 -0.6196
16842TIP3   OH271940   3.915   6.747   0.187  0.2573  0.4592 -0.0876
16842TIP3    H171941   4.004   6.714   0.175 -0.5422 -1.2685 -1.8880
16842TIP3    H271942   3.898   6.799   0.108 -0.6535 -0.0775 -0.2571
16843TIP3   OH271943   5.068   2.126   0.866 -0.2652  0.0149 -0.1411
16843TIP3    H171944   5.036   2.194   0.925 -0.0253  0.1499 -0.1649
16843TIP3    H271945   5.048   2.158   0.779 -2.1896 -0.9586 -0.1147
16844TIP3   OH271946   5.772   0.184  13.721 -0.0975  0.6591  0.2658
16844TIP3    H171947   5.749   0.276  13.734 -1.2446  0.5812 -1.0230
16844TIP3    H271948   5.764   0.171  13.627 -1.9173 -1.2564  0.6206
16845TIP3   OH271949   6.587   2.622   1.077  0.1250  0.1264  0.0069
16845TIP3    H171950   6.665   2.656   1.122  0.2642 -0.0570 -0.0891
16845TIP3    H271951   6.546   2.699   1.038 -0.2094  0.3422  0.7642
16846TIP3   OH271952   0.190   0.798  11.661  0.1787  0.4530  0.2164
16846TIP3    H171953   0.268   0.766  11.614  0.0149  1.1684 -0.5570
16846TIP3    H271954   0.126   0.815  11.592 -0.4272  0.5473  0.7957
16847TIP3   OH271955   3.945   0.977  14.844  0.0566 -0.3797  0.6236
16847TIP3    H171956   4.021   0.942  14.891 -1.0058 -2.3028  1.0066
16847TIP3    H271957   3.872   0.923  14.874 -1.4242  1.2086  0.0229
16848TIP3   OH271958   6.143   6.680   2.402 -0.2904 -0.3417  0.2255
16848TIP3    H171959   6.066   6.624   2.394 -0.0355 -0.8615  1.2042
16848TIP3    H271960   6.217   6.619   2.399  0.1603  0.2281 -1.6177
16849TIP3   OH271961   4.119   2.487  13.267 -0.1249  0.4628 -0.4405
16849TIP3    H171962   4.133   2.492  13.172  1.4706  0.5551 -0.2247
16849TIP3    H271963   4.075   2.569  13.289 -0.0893  0.6472 -1.0369
16850TIP3   OH271964   6.152   1.137   2.570  0.1966  0.0441 -0.3231
16850TIP3    H171965   6.077   1.139   2.630  0.0651  1.1081 -0.5054
16850TIP3    H271966   6.155   1.047   2.538 -0.5890 -0.1772  0.2059
16851TIP3   OH271967   1.315   2.476  16.446  0.0850  0.0135  0.0278
16851TIP3    H171968   1.313   2.524  16.529 -1.6569  0.1701 -0.0600
16851TIP3    H271969   1.236   2.504  16.400  1.1318  0.1033 -1.8084
16852TIP3   OH271970   5.522   6.321  16.607 -0.0520  0.0172 -0.5000
16852TIP3    H171971   5.515   6.260  16.680 -1.2571 -1.0007 -1.4286
16852TIP3    H271972   5.615   6.342  16.602  0.4274 -1.8763 -0.2611
16853TIP3   OH271973   1.983   2.586  14.165  0.2477  0.1833  1.0695
16853TIP3    H171974   1.935   2.514  14.122  2.5027 -1.3645  0.9631
16853TIP3    H271975   2.053   2.608  14.103  1.1298  0.7073  2.2236
16854TIP3   OH271976   1.948   3.308   3.831 -0.6312  0.2061  0.1911
16854TIP3    H171977   1.995   3.232   3.865 -1.5061 -0.8837 -0.9679
16854TIP3    H271978   2.016   3.376   3.823  0.4311 -0.8394  0.0259
16855TIP3   OH271979   5.007   0.839  15.252  0.9076 -0.2920  0.1317
16855TIP3    H171980   4.953   0.828  15.173  0.8775  2.6377 -0.3386
16855TIP3    H271981   5.085   0.787  15.235 -0.0020 -1.3881 -0.9001
16856TIP3   OH271982   2.270   4.097  11.186 -0.3619 -0.1227  0.7688
16856TIP3    H171983   2.339   4.081  11.251  0.3681 -1.2267 -0.2378
16856TIP3    H271984   2.285   4.187  11.157  0.8134 -0.4168  0.4112
16857TIP3   OH271985   5.039   3.415   2.634  0.3657 -0.3347  0.2928
16857TIP3    H171986   5.043   3.319   2.637  0.2540 -0.3242  0.8296
16857TIP3    H271987   5.130   3.443   2.648  0.9459 -0.4026 -2.7057
16858TIP3   OH271988   1.490   1.362   5.463  0.1407 -0.2810  0.2824
16858TIP3    H171989   1.464   1.279   5.423  2.1441 -0.5938 -0.4951
16858TIP3    H271990   1.419   1.422   5.441 -0.2188 -1.1963 -1.2480
16859TIP3   OH271991   6.662   5.104  10.736  0.0979  0.3277 -0.1123
16859TIP3    H171992   6.709   5.107  10.653 -1.5522 -0.2768 -1.1239
16859TIP3    H271993   6.683   5.018  10.772  1.0412  0.7020  0.2490
16860TIP3   OH271994   2.638   5.070  14.779  0.2254 -0.4550  0.1775
16860TIP3    H171995   2.650   5.148  14.725  2.3054 -0.9675 -0.1660
16860TIP3    H271996   2.608   5.104  14.863  3.6517  1.0800  0.9492
16861TIP3   OH271997   0.393   4.609  13.897 -0.0241 -0.0447  0.4410
16861TIP3    H171998   0.350   4.682  13.853  1.0116 -0.7058 -1.8493
16861TIP3    H271999   0.324   4.544  13.911 -0.8200  1.0674  1.9112
16862TIP3   OH272000   3.304   1.882   5.232 -0.1515  0.1516  0.3357
16862TIP3    H172001   3.261   1.958   5.270 -0.6923  0.6096 -1.1353
16862TIP3    H272002   3.290   1.812   5.296 -0.0041  1.1670  1.5058
16863TIP3   OH272003   6.517   0.808  12.541  0.1964  0.4137  0.1785
16863TIP3    H172004   6.471   0.731  12.575 -0.4422  0.1084 -1.3348
16863TIP3    H272005   6.454   0.880  12.551  1.0689  0.9741  2.3349
16864TIP3   OH272006   1.956   6.680  11.281 -0.2453 -0.3394  0.3639
16864TIP3    H172007   2.024   6.703  11.344  1.6770 -0.5077 -1.5157
16864TIP3    H272008   1.962   6.585  11.273  0.4186 -0.2103 -0.9441
16865TIP3   OH272009   2.385   6.682   0.328  0.1597 -0.3159 -0.2742
16865TIP3    H172010   2.434   6.764   0.317  1.5686 -1.1210 -0.1755
16865TIP3    H272011   2.400   6.657   0.419 -0.4333 -0.5912 -0.2440
16866TIP3   OH272012   1.463   6.421   2.450  0.4982  0.0201  0.0233
16866TIP3    H172013   1.492   6.437   2.361 -0.4021 -0.1476 -0.3157
16866TIP3    H272014   1.516   6.480   2.504  2.1162 -0.9605 -0.4297
16867TIP3   OH272015   3.334   2.691  16.220 -0.2789  0.5387  0.3212
16867TIP3    H172016   3.296   2.634  16.287 -0.9142  1.3213  0.6456
16867TIP3    H272017   3.382   2.758  16.270  1.4992 -0.3849 -0.0816
16868TIP3   OH272018   3.768   2.582  13.524 -0.0667 -0.3263  0.4800
16868TIP3    H172019   3.730   2.506  13.569  2.2167 -0.7843  1.8369
16868TIP3    H272020   3.856   2.554  13.501 -0.5190  0.5555 -2.8182
16869TIP3   OH272021   2.987   3.874  15.912 -0.0763 -0.0259 -0.0620
16869TIP3    H172022   2.996   3.815  15.838 -0.0683  0.8632 -0.7846
16869TIP3    H272023   2.929   3.828  15.973  0.8066 -1.2453 -0.1055
16870TIP3   OH272024   3.047   2.659   3.501  0.1553  0.1539 -0.6840
16870TIP3    H172025   3.002   2.598   3.443 -1.2259 -1.0253  1.4827
16870TIP3    H272026   3.074   2.731   3.444 -1.2663 -0.8283 -2.7148
16871TIP3   OH272027   0.197   0.646   1.183 -0.5212 -0.4620  0.3565
16871TIP3    H172028   0.177   0.735   1.155 -2.2770 -0.9945 -0.1899
16871TIP3    H272029   0.139   0.630   1.257  1.1531 -0.5127  1.7317
16872TIP3   OH272030   5.010   5.648   4.619 -0.8812 -0.5238  0.2814
16872TIP3    H172031   4.994   5.730   4.665 -0.4501  0.4319 -1.2455
16872TIP3    H272032   5.096   5.658   4.579 -0.8458 -1.6955  0.0190
16873TIP3   OH272033   1.352   5.477  12.579  0.3837 -0.0917  0.4750
16873TIP3    H172034   1.266   5.466  12.539 -0.2343  1.2124  1.3616
16873TIP3    H272035   1.353   5.568  12.608  1.7543 -0.3179  1.2160
16874TIP3   OH272036   4.326   4.185  16.134 -0.2433 -0.3234 -0.1027
16874TIP3    H172037   4.419   4.174  16.117 -0.1907 -0.4748  0.2683
16874TIP3    H272038   4.284   4.162  16.051  0.0390 -0.4364 -0.2166
16875TIP3   OH272039   4.746   5.131   3.971 -0.6823  0.1114  0.4094
16875TIP3    H172040   4.690   5.174   4.035  0.5185  0.9808  0.9123
16875TIP3    H272041   4.815   5.091   4.023 -0.7498 -0.8356 -0.2115
16876TIP3   OH272042   0.851   1.835   4.338  0.1911  0.5518 -0.7404
16876TIP3    H172043   0.920   1.831   4.404 -0.2533  0.1773 -0.2920
16876TIP3    H272044   0.881   1.901   4.276  1.3656 -0.2004 -1.0224
16877TIP3   OH272045   0.828   2.453   0.907  0.0080  0.5680  0.1477
16877TIP3    H172046   0.855   2.424   0.820 -1.6116 -0.1293 -0.1610
16877TIP3    H272047   0.889   2.411   0.967 -0.2009 -0.7377 -0.5284
16878TIP3   OH272048   3.467   1.506   0.749  0.3664  0.0036  0.2635
16878TIP3    H172049   3.388   1.537   0.793 -0.4395 -1.8611  0.1917
16878TIP3    H272050   3.438   1.432   0.696  1.8995  0.2152 -0.9485
16879TIP3   OH272051   6.703   2.872  12.981  0.0744 -0.2337  0.0129
16879TIP3    H172052   6.797   2.884  12.992  0.2639 -0.3663 -1.3404
16879TIP3    H272053   6.673   2.838  13.065  1.2771 -0.4216  0.3778
16880TIP3   OH272054   1.116   6.676  13.354  0.0329 -0.0855  0.5167
16880TIP3    H172055   1.196   6.624  13.357 -0.2362 -0.5604 -0.1611
16880TIP3    H272056   1.127   6.733  13.277 -0.2054 -0.0288  0.5222
16881TIP3   OH272057   5.542   2.231  15.580 -0.1853 -0.1635 -0.0576
16881TIP3    H172058   5.557   2.265  15.492 -3.0654  1.1249 -0.1739
16881TIP3    H272059   5.515   2.308  15.631 -1.0170 -1.2757  1.2660
16882TIP3   OH272060   2.838   1.344   2.317  0.2602 -0.4856  0.8382
16882TIP3    H172061   2.842   1.248   2.321 -0.6556 -0.6283 -0.8226
16882TIP3    H272062   2.744   1.364   2.321 -0.2403 -0.1224 -4.7507
16883TIP3   OH272063   3.246   4.442   1.215  0.3437 -0.0652  0.3022
16883TIP3    H172064   3.308   4.372   1.193 -2.1838 -2.6193  0.5507
16883TIP3    H272065   3.208   4.467   1.131  0.4522  0.1711  0.3253
16884TIP3   OH272066   5.319   6.441  10.814  0.5026  0.1131 -0.4854
16884TIP3    H172067   5.398   6.489  10.788  0.8108 -0.0443  0.1387
16884TIP3    H272068   5.332   6.423  10.907 -1.0731  1.6891  0.0951
16885TIP3   OH272069   1.950   0.595  11.279  0.3971  0.2144 -0.1764
16885TIP3    H172070   2.006   0.526  11.244  1.7792  0.6992  1.0045
16885TIP3    H272071   1.968   0.596  11.373 -4.7861 -2.5297  1.2212
16886TIP3   OH272072   3.078   3.023  11.444 -0.7377  0.3350 -0.3242
16886TIP3    H172073   3.152   2.983  11.489  0.0140  2.0092  0.0132
16886TIP3    H272074   3.088   2.997  11.352  0.1580  0.3567 -0.2442
16887TIP3   OH272075   6.286   6.043   4.964  0.4471  0.5369 -0.1471
16887TIP3    H172076   6.374   6.078   4.979  0.3704  0.5213  0.3479
16887TIP3    H272077   6.229   6.120   4.967  0.2662  0.3772  1.0380
16888TIP3   OH272078   6.807   4.658   3.120 -0.0659  0.5591  0.0452
16888TIP3    H172079   6.868   4.731   3.133 -0.6056  0.9575  0.3968
16888TIP3    H272080   6.726   4.687   3.163 -0.0457 -0.5797  0.9069
16889TIP3   OH272081   5.278   4.140  16.952  0.0985 -0.1949 -0.4673
16889TIP3    H172082   5.326   4.180  17.025  0.5574 -0.0461 -0.8398
16889TIP3    H272083   5.261   4.050  16.980  1.1243 -0.4277 -0.5576
16890TIP3   OH272084   3.775   5.523  11.588 -0.0614  0.2299  0.2396
16890TIP3    H172085   3.812   5.564  11.666 -1.4778 -0.7783  1.5128
16890TIP3    H272086   3.818   5.438  11.582 -0.5588 -0.0401  0.4329
16891TIP3   OH272087   2.544   6.641   5.784 -0.2326  0.6209 -0.1799
16891TIP3    H172088   2.553   6.612   5.694 -2.3490 -0.1052 -0.2282
16891TIP3    H272089   2.452   6.669   5.791  0.5110  3.0813  1.0929
16892TIP3   OH272090   6.275   4.594   5.350 -0.2740 -0.0474  0.0467
16892TIP3    H172091   6.361   4.604   5.309  0.0931  1.7754  1.1741
16892TIP3    H272092   6.270   4.502   5.373  0.5985 -0.5729 -1.6563
16893TIP3   OH272093   2.531   1.305   0.455  0.1504  0.1190 -0.0763
16893TIP3    H172094   2.569   1.286   0.541  0.7438 -0.1315 -0.3870
16893TIP3    H272095   2.460   1.366   0.473  1.0198  0.9979  0.4671
16894TIP3   OH272096   6.407   5.323   4.569 -0.3625  0.3615  0.4615
16894TIP3    H172097   6.437   5.366   4.489  0.4004  0.8601  0.9995
16894TIP3    H272098   6.385   5.395   4.628 -2.6744  0.0238  0.1010
16895TIP3   OH272099   3.682   3.567   2.173 -0.2523 -0.4600  0.2737
16895TIP3    H172100   3.628   3.489   2.169 -1.1615  0.1826 -0.3830
16895TIP3    H272101   3.672   3.600   2.262 -1.1652 -0.2077  0.0897
16896TIP3   OH272102   0.446   4.701  12.410 -0.5486  0.1039 -0.4288
16896TIP3    H172103   0.419   4.660  12.491 -1.8824  0.4211 -0.6861
16896TIP3    H272104   0.535   4.669  12.395 -0.1194  0.3658  1.3502
16897TIP3   OH272105   0.952   5.866   5.436 -0.5640  0.3583  0.2222
16897TIP3    H172106   1.024   5.803   5.435  1.2265  2.2503  1.0135
16897TIP3    H272107   0.975   5.927   5.506 -2.1786  1.9179 -0.5229
16898TIP3   OH272108   1.690   6.445   0.088 -0.3043  0.2006  0.6091
16898TIP3    H172109   1.765   6.473   0.141 -0.3067  0.7033  0.3502
16898TIP3    H272110   1.617   6.498   0.120 -0.3262  0.4410  0.1687
16899TIP3   OH272111   6.781   0.203  15.153  0.5910  0.4807  0.0476
16899TIP3    H172112   6.778   0.112  15.123  0.8284  0.7784 -0.9150
16899TIP3    H272113   6.695   0.217  15.193  0.7597 -0.3295  0.7054
16900TIP3   OH272114   6.785   4.431   0.103  0.0964 -0.2077  0.5528
16900TIP3    H172115   6.862   4.375   0.096  0.5003  0.3816  0.0993
16900TIP3    H272116   6.819   4.520   0.087 -0.7472  0.0057 -0.1487
16901TIP3   OH272117   4.791   3.934   1.928 -0.1288 -0.2081  0.2158
16901TIP3    H172118   4.724   3.956   1.863  2.0416  1.9417 -1.4499
16901TIP3    H272119   4.762   3.977   2.008 -0.3042  1.4905 -0.7236
16902TIP3   OH272120   0.114   6.815  13.195  0.4857 -0.0109  0.0046
16902TIP3    H172121   0.157   6.826  13.110 -0.0071  0.0622 -0.2373
16902TIP3    H272122   0.119   6.721  13.212  0.4675 -0.0427 -0.1671
16903TIP3   OH272123   2.028   2.837   6.710  0.5052 -0.5131 -0.1274
16903TIP3    H172124   2.010   2.907   6.647  1.2859  0.1847  0.4024
16903TIP3    H272125   1.960   2.772   6.693  1.1114 -0.6876 -2.1738
16904TIP3   OH272126   5.818   5.951  10.932  0.2379  0.0918 -0.5934
16904TIP3    H172127   5.752   5.925  10.867  2.0794 -0.4143 -2.3576
16904TIP3    H272128   5.885   5.883  10.927  1.3135  1.0122  0.5611
16905TIP3   OH272129   4.662   1.272   0.504  0.1302 -0.1073 -0.5857
16905TIP3    H172130   4.588   1.215   0.521  1.3412 -1.5836 -0.0531
16905TIP3    H272131   4.647   1.305   0.415 -0.1674 -1.9761 -1.2685
16906TIP3   OH272132   4.177   2.462  15.754  0.7635 -0.2137 -0.2811
16906TIP3    H172133   4.111   2.470  15.823  0.3960  0.7788 -0.7220
16906TIP3    H272134   4.253   2.423  15.798  0.0354 -0.9908  0.3273
16907TIP3   OH272135   2.489   2.284   5.075  0.7466  0.2311  0.0673
16907TIP3    H172136   2.479   2.369   5.117  0.2178  0.6486 -0.8841
16907TIP3    H272137   2.584   2.270   5.071  0.8915  1.3499 -0.8928
16908TIP3   OH272138   3.115   6.707  12.840 -0.3129  0.5259 -0.0846
16908TIP3    H172139   3.083   6.713  12.750  1.6428  0.0387 -0.8691
16908TIP3    H272140   3.189   6.647  12.835  0.9719  1.8919  1.5224
16909TIP3   OH272141   3.252   6.015   1.128 -0.5261  0.0929  0.3093
16909TIP3    H172142   3.236   5.934   1.177 -0.0855  0.2421  0.7040
16909TIP3    H272143   3.345   6.035   1.144 -0.7556  0.9441  0.6203
16910TIP3   OH272144   3.257   4.316   2.499  0.6386 -0.3186  0.0466
16910TIP3    H172145   3.248   4.365   2.581 -0.0824  0.0902 -0.2707
16910TIP3    H272146   3.264   4.225   2.527  0.2723 -0.1979  0.5621
16911TIP3   OH272147   6.482   0.922  15.750  0.3637  0.6896  0.0327
16911TIP3    H172148   6.450   0.962  15.669 -1.0938 -0.8990 -0.2524
16911TIP3    H272149   6.569   0.889  15.727 -0.8719 -1.7152 -1.6847
16912TIP3   OH272150   5.162   4.580  16.042 -0.1038 -0.1166 -0.3454
16912TIP3    H172151   5.178   4.674  16.052  2.6839 -0.5590  0.2446
16912TIP3    H272152   5.152   4.568  15.947 -0.6779  0.7767 -0.4160
16913TIP3   OH272153   1.073   5.754   1.469 -0.9160 -0.3460  0.1898
16913TIP3    H172154   1.158   5.786   1.441 -1.1717 -0.7792 -1.1473
16913TIP3    H272155   1.024   5.741   1.388 -1.8532 -1.2063  0.8636
16914TIP3   OH272156   2.413   2.468   4.355  0.3930 -0.6295  0.0157
16914TIP3    H172157   2.416   2.524   4.277  1.2880 -0.1882  0.3605
16914TIP3    H272158   2.319   2.453   4.369  0.2291 -1.5319 -1.7118
16915TIP3   OH272159   1.933   1.985  10.883  0.5258 -0.0729 -0.6523
16915TIP3    H172160   2.028   1.984  10.874  0.8832  0.8440  2.2077
16915TIP3    H272161   1.913   2.073  10.916 -1.2235 -0.5469 -0.3473
16916TIP3   OH272162   3.110   0.304  15.522  0.3632 -0.2740 -0.2694
16916TIP3    H172163   3.173   0.368  15.489 -0.8280  1.6737  1.0103
16916TIP3    H272164   3.136   0.290  15.614 -0.2848 -0.4698 -0.1118
16917TIP3   OH272165   4.730   1.783  16.514 -0.2079 -0.0023  0.4522
16917TIP3    H172166   4.726   1.878  16.510 -2.1782 -0.0848 -1.4179
16917TIP3    H272167   4.744   1.763  16.607  0.0795  2.0782  0.8969
16918TIP3   OH272168   5.146   6.265  10.696 -0.3302 -0.7239  0.2074
16918TIP3    H172169   5.058   6.303  10.700 -0.4663 -0.8252 -1.2749
16918TIP3    H272170   5.203   6.333  10.731 -0.9377 -0.4342  0.6514
16919TIP3   OH272171   0.871   6.384  15.361 -0.2449 -0.0859 -0.1896
16919TIP3    H172172   0.871   6.341  15.446 -3.3827  2.0928  1.1122
16919TIP3    H272173   0.920   6.465  15.374 -0.8595  0.3278 -0.3612
16920TIP3   OH272174   3.746   6.030   3.330  0.1022  0.7129  0.2361
16920TIP3    H172175   3.748   5.936   3.308  4.6360  0.1138  2.2639
16920TIP3    H272176   3.690   6.034   3.408 -1.1142 -0.0223 -0.5474
16921TIP3   OH272177   4.517   2.016  11.214 -0.0321  0.1323  0.2489
16921TIP3    H172178   4.506   2.074  11.139 -0.0138  0.3958  0.4505
16921TIP3    H272179   4.436   1.965  11.216 -1.0853  1.7491  1.4435
16922TIP3   OH272180   1.364   0.753   2.935  0.4890  0.1184 -0.6022
16922TIP3    H172181   1.306   0.728   3.007  1.7970 -1.1129  0.0916
16922TIP3    H272182   1.410   0.830   2.967 -0.0520  0.5115 -0.7620
16923TIP3   OH272183   2.887   3.289  13.971 -0.1209  0.3207  0.5225
16923TIP3    H172184   2.919   3.218  13.915  0.5363  1.4377 -0.5741
16923TIP3    H272185   2.961   3.349  13.978 -0.4673  0.6188  1.9331
16924TIP3   OH272186   1.821   1.857   3.347  0.3093  0.1769 -0.2012
16924TIP3    H172187   1.809   1.892   3.259 -2.2693  2.8180  1.0477
16924TIP3    H272188   1.871   1.925   3.392 -0.8411  0.2008  1.0831
16925TIP3   OH272189   3.493   4.927   0.001  0.2946  0.4762 -0.1281
16925TIP3    H172190   3.571   4.880   0.031 -1.1728 -0.1158  3.2409
16925TIP3    H272191   3.501   5.013   0.043  0.3282  1.4042 -1.9181
16926TIP3   OH272192   3.083   0.122  12.203 -0.0203  0.5513  0.0077
16926TIP3    H172193   2.998   0.153  12.232 -0.1333  0.0579  0.2110
16926TIP3    H272194   3.069   0.030  12.180  0.5152  0.3904  0.3038
16927TIP3   OH272195   4.252   3.949  12.407  0.3994 -0.0267  0.2197
16927TIP3    H172196   4.275   4.039  12.433  1.6281  0.2067 -1.4360
16927TIP3    H272197   4.330   3.898  12.427 -0.5875 -0.9258  1.8948
16928TIP3   OH272198   0.802   1.460   0.618  0.2026  0.5822  0.4386
16928TIP3    H172199   0.825   1.537   0.670  0.2793  1.1223 -0.3789
16928TIP3    H272200   0.774   1.396   0.683 -1.4055  1.8197  1.0418
16929TIP3   OH272201   4.827   4.565  16.250  0.0517  0.3221 -0.0352
16929TIP3    H172202   4.812   4.611  16.168 -0.7254 -0.6398 -0.4643
16929TIP3    H272203   4.826   4.633  16.317  2.3555  1.3404 -0.9590
16930TIP3   OH272204   3.332   2.935  16.076 -0.1432  0.1072  0.3739
16930TIP3    H172205   3.329   2.906  15.985  2.1665  1.4776 -0.2199
16930TIP3    H272206   3.314   2.856  16.127 -1.1932 -0.7525 -1.2454
16931TIP3   OH272207   5.152   1.300   0.640 -0.0829  0.0330  0.2816
16931TIP3    H172208   5.191   1.328   0.557  0.1693 -1.3113 -0.0760
16931TIP3    H272209   5.072   1.255   0.615 -1.0599  1.3508  0.9174
16932TIP3   OH272210   3.538   1.384  12.811  0.1698  0.1658 -0.0581
16932TIP3    H172211   3.595   1.435  12.868  0.0458 -0.3613  0.5572
16932TIP3    H272212   3.449   1.410  12.838  0.0287 -1.9698  1.8615
16933TIP3   OH272213   1.481   1.828  15.171 -0.2979 -0.2739  0.2357
16933TIP3    H172214   1.430   1.810  15.092 -0.3153  1.3967 -0.1689
16933TIP3    H272215   1.489   1.923  15.173  0.5186 -0.3472  1.7474
16934TIP3   OH272216   5.420   6.594   6.073 -0.1176 -0.3566 -0.3084
16934TIP3    H172217   5.455   6.654   6.008 -1.5550  0.7977 -0.0763
16934TIP3    H272218   5.463   6.620   6.155 -1.7758  1.4114  0.0804
16935TIP3   OH272219   0.695   5.760   0.813 -0.0505 -0.0859 -0.2600
16935TIP3    H172220   0.784   5.760   0.778  0.1610  1.3978  0.2030
16935TIP3    H272221   0.703   5.799   0.900 -0.9208 -1.5410  0.5082
16936TIP3   OH272222   4.803   6.803  12.589  0.2746 -0.1011  0.0027
16936TIP3    H172223   4.751   6.785  12.511  1.0475  1.4061 -0.9048
16936TIP3    H272224   4.740   6.797  12.661 -0.7520 -0.1446 -0.8647
16937TIP3   OH272225   6.156   0.288   3.093  0.0842  0.1467 -0.5023
16937TIP3    H172226   6.111   0.269   3.011 -1.1724  2.0983 -0.3299
16937TIP3    H272227   6.091   0.267   3.161  0.1706  1.0238 -0.1443
16938TIP3   OH272228   3.248   5.430   0.498 -0.1794 -0.4406 -0.5186
16938TIP3    H172229   3.260   5.347   0.452 -0.5969 -1.2635  0.8009
16938TIP3    H272230   3.312   5.489   0.458 -0.3667 -1.1653 -1.9755
16939TIP3   OH272231   5.215   4.524  12.114 -0.7101  0.4745  0.6224
16939TIP3    H172232   5.141   4.562  12.160 -1.0041 -0.6541  1.1265
16939TIP3    H272233   5.194   4.430  12.108  1.1099 -0.0444  1.6677
16940TIP3   OH272234   0.186   0.262  15.289 -0.5108  0.4085  0.3027
16940TIP3    H172235   0.177   0.189  15.351  1.3462 -1.2180 -1.1716
16940TIP3    H272236   0.105   0.262  15.239 -0.0659 -1.6304 -0.5546
16941TIP3   OH272237   4.738   2.473   5.354  0.1253  0.2498  0.0040
16941TIP3    H172238   4.650   2.456   5.387  0.5764 -0.0224  1.0960
16941TIP3    H272239   4.782   2.519   5.425  1.2794 -0.8004 -0.0077
16942TIP3   OH272240   3.958   5.722  10.324  0.0742 -0.2702  0.2387
16942TIP3    H172241   3.914   5.673  10.393 -0.7214 -0.2702 -0.2535
16942TIP3    H272242   3.936   5.813  10.341 -1.1493 -0.3737 -0.7098
16943TIP3   OH272243   2.932   3.637   2.054 -0.5105 -0.1090 -0.0190
16943TIP3    H172244   2.913   3.730   2.068  0.8793 -0.0441  1.6041
16943TIP3    H272245   2.933   3.599   2.141  1.3337 -1.1694 -0.4654
16944TIP3   OH272246   3.028   2.850  10.137  0.0790 -0.4491 -0.0810
16944TIP3    H172247   2.956   2.789  10.117  0.9171 -2.9187  3.4483
16944TIP3    H272248   3.024   2.861  10.232  1.4398  3.3425 -0.3037
16945TIP3   OH272249   1.786   4.461   5.603 -0.0167  0.1364  0.2775
16945TIP3    H172250   1.848   4.532   5.584 -2.3000  2.0448 -0.6099
16945TIP3    H272251   1.736   4.492   5.679 -1.2069 -0.3815 -0.2624
16946TIP3   OH272252   2.566   3.182  15.360  0.0700  0.0414 -0.2066
16946TIP3    H172253   2.471   3.184  15.353 -0.0095 -1.2581  0.2364
16946TIP3    H272254   2.586   3.247  15.427 -0.5736 -0.1989  0.2298
16947TIP3   OH272255   5.395   4.521  16.921 -0.3112 -0.5069 -0.4329
16947TIP3    H172256   5.393   4.476  16.837  0.9754 -2.2288  0.3956
16947TIP3    H272257   5.374   4.453  16.985 -2.4176  0.9953  0.6235
16948TIP3   OH272258   4.376   3.702  12.957 -0.0227 -0.1738 -0.3377
16948TIP3    H172259   4.431   3.624  12.958  0.5091  0.1988  0.9428
16948TIP3    H272260   4.290   3.672  12.988  0.3838 -0.1241  0.8770
16949TIP3   OH272261   2.571   5.208  15.037 -0.1309 -0.3046  0.5590
16949TIP3    H172262   2.666   5.203  15.025  0.1937  1.0210  2.1535
16949TIP3    H272263   2.556   5.169  15.123 -1.5132 -3.5855 -0.9932
16950TIP3   OH272264   4.076   5.368   3.507  0.1829 -0.4953  0.6161
16950TIP3    H172265   4.052   5.289   3.459 -0.5165 -1.2522  2.1377
16950TIP3    H272266   4.149   5.342   3.562 -0.1959 -0.1680  1.2958
16951TIP3   OH272267   2.068   1.289  11.271  0.3331 -0.7584  0.0588
16951TIP3    H172268   2.145   1.316  11.221  0.1023 -0.7975 -0.3185
16951TIP3    H272269   2.010   1.365  11.268  0.0795 -0.9609 -0.2119
16952TIP3   OH272270   5.818   2.302   0.342 -0.3117  0.6163 -0.2566
16952TIP3    H172271   5.784   2.246   0.273 -0.8304  1.6284 -0.8622
16952TIP3    H272272   5.805   2.252   0.423  0.5470 -0.6856 -0.8993
16953TIP3   OH272273   6.362   2.526  13.237  0.2049 -0.0283 -0.2728
16953TIP3    H172274   6.332   2.529  13.146 -0.3351 -0.1596 -0.1066
16953TIP3    H272275   6.287   2.491  13.286 -0.0047  1.3205  0.4144
16954TIP3   OH272276   6.224   4.056   0.407  0.3375 -0.4040 -0.1983
16954TIP3    H172277   6.316   4.066   0.430  0.2426 -0.4638  0.2220
16954TIP3    H272278   6.185   4.010   0.482 -0.9373  3.3812  1.6790
16955TIP3   OH272279   3.817   1.738  13.189 -0.1283 -0.1288  0.2716
16955TIP3    H172280   3.854   1.825  13.204 -0.8241  0.1368  0.5187
16955TIP3    H272281   3.890   1.678  13.199  0.6753  0.5200 -1.2903
16956TIP3   OH272282   2.362   4.161  15.610 -0.0851  0.3714 -0.0842
16956TIP3    H172283   2.401   4.201  15.687  2.0173  0.8610 -1.3315
16956TIP3    H272284   2.353   4.068  15.633 -0.2761  0.6530  1.0266
16957TIP3   OH272285   3.508   6.643  15.275  0.2138  0.1650  0.1188
16957TIP3    H172286   3.601   6.623  15.279  0.5198  1.3704 -0.4752
16957TIP3    H272287   3.475   6.626  15.363  0.3649 -3.0394 -0.3261
16958TIP3   OH272288   3.025   3.361  11.763  0.1339  0.3113  0.0591
16958TIP3    H172289   2.944   3.397  11.799  0.1398 -1.0686  1.5378
16958TIP3    H272290   3.004   3.344  11.671 -0.3781  2.4436 -0.2883
16959TIP3   OH272291   4.709   1.029  16.792  0.1217  0.2105  0.1858
16959TIP3    H172292   4.757   1.074  16.723 -0.5085  2.0333  0.8897
16959TIP3    H272293   4.774   0.972  16.834  0.5968 -0.6243 -1.6162
16960TIP3   OH272294   3.733   0.374  15.682  0.1540 -0.1549  0.0329
16960TIP3    H172295   3.704   0.365  15.592  0.7522  0.5143 -0.2353
16960TIP3    H272296   3.750   0.284  15.711  2.2741 -0.2595 -1.3274
16961TIP3   OH272297   1.105   2.329   2.516  0.2881  0.7519 -0.2436
16961TIP3    H172298   1.078   2.269   2.447  0.0509  0.7962 -0.1897
16961TIP3    H272299   1.197   2.347   2.497  0.2933  0.5682 -0.4032
16962TIP3   OH272300   1.596   2.160  13.407  0.0506 -0.6829  0.5548
16962TIP3    H172301   1.555   2.172  13.322  1.8824 -0.6732 -0.3831
16962TIP3    H272302   1.562   2.232  13.461  0.4996  0.6429 -0.8461
16963TIP3   OH272303   1.902   0.882  15.008 -0.5413 -0.2303  0.0999
16963TIP3    H172304   1.922   0.882  14.914 -0.9046  0.3038  0.0146
16963TIP3    H272305   1.987   0.871  15.051 -0.4117 -0.8346 -0.2910
16964TIP3   OH272306   2.504   1.676   2.757  0.6528  0.1375 -0.1752
16964TIP3    H172307   2.534   1.653   2.669 -1.7759  2.3074 -1.7386
16964TIP3    H272308   2.477   1.768   2.750 -3.5936 -0.7195  1.6129
16965TIP3   OH272309   1.934   0.859   2.372 -0.3277  0.2129 -0.5487
16965TIP3    H172310   1.973   0.816   2.448  1.7322  0.2408 -1.5263
16965TIP3    H272311   1.902   0.787   2.318  0.0351  0.0804 -0.5916
16966TIP3   OH272312   6.505   5.534  12.408  0.1523  0.1800 -0.1166
16966TIP3    H172313   6.472   5.622  12.389 -0.3205 -0.2818 -1.6368
16966TIP3    H272314   6.596   5.548  12.434 -0.2445  1.2014  0.8015
16967TIP3   OH272315   2.968   6.301   0.700 -0.3119  0.3196  0.6707
16967TIP3    H172316   2.920   6.337   0.775 -1.4111  1.7015 -0.6334
16967TIP3    H272317   2.990   6.377   0.647 -0.1962 -0.6864 -0.7839
16968TIP3   OH272318   6.553   4.725   2.505 -0.5176 -0.1742  0.3623
16968TIP3    H172319   6.531   4.633   2.488  0.8596 -0.5278  0.3424
16968TIP3    H272320   6.479   4.774   2.471 -0.7149 -1.2164 -0.7904
16969TIP3   OH272321   2.868   4.325   0.927 -0.6424  0.3504 -0.4806
16969TIP3    H172322   2.879   4.320   1.022 -2.0215 -0.2808 -0.3248
16969TIP3    H272323   2.956   4.342   0.894  0.0598 -0.5024  0.8310
16970TIP3   OH272324   0.722   3.540   6.191 -0.5663  0.1617  0.0151
16970TIP3    H172325   0.753   3.557   6.280  0.0104 -1.7188  0.2164
16970TIP3    H272326   0.801   3.522   6.140 -0.6697  3.2879 -1.4673
16971TIP3   OH272327   5.785   2.680  12.871  0.1743 -0.8180  0.5483
16971TIP3    H172328   5.782   2.601  12.817  0.2172 -0.3667 -0.1226
16971TIP3    H272329   5.811   2.750  12.811 -0.0080 -0.2634  1.0998
16972TIP3   OH272330   6.281   3.719   0.186 -0.0521  0.4507  0.5265
16972TIP3    H172331   6.249   3.634   0.214  0.8557  0.0884  0.5043
16972TIP3    H272332   6.206   3.761   0.145 -1.4284  0.9642  3.3535
16973TIP3   OH272333   2.582   6.590  14.907 -0.1304 -0.5224 -0.4810
16973TIP3    H172334   2.499   6.619  14.869 -1.1343 -2.4520  0.1259
16973TIP3    H272335   2.568   6.596  15.002  0.7801  0.0212 -0.3699
16974TIP3   OH272336   5.314   3.389   4.002  0.8313  0.1077 -0.4294
16974TIP3    H172337   5.316   3.388   4.098  1.9159  0.6639 -0.4328
16974TIP3    H272338   5.290   3.300   3.978  1.0532 -0.1787  0.3601
16975TIP3   OH272339   3.028   0.026   1.100  0.2056 -0.7447  0.0269
16975TIP3    H172340   3.048  -0.060   1.064  1.6110 -1.2170  1.7918
16975TIP3    H272341   3.113   0.061   1.128 -0.7374 -0.4281  2.7816
16976TIP3   OH272342   0.155   1.995  11.861  0.5208 -0.4656 -0.3173
16976TIP3    H172343   0.156   1.908  11.819 -1.2097  0.0332 -1.4872
16976TIP3    H272344   0.094   2.046  11.809 -0.0460  0.8722  1.5702
16977TIP3   OH272345   0.946   2.795   2.851  0.1521  0.0297 -0.8742
16977TIP3    H172346   0.867   2.768   2.804 -0.2040  0.9799 -0.8470
16977TIP3    H272347   0.925   2.882   2.885  2.2285  1.6663 -3.3839
16978TIP3   OH272348   6.453   5.312   0.451  0.0623  0.0172  0.5377
16978TIP3    H172349   6.461   5.220   0.428 -0.0224  0.3297 -0.7906
16978TIP3    H272350   6.491   5.318   0.539 -0.0434 -1.2934  0.6835
16979TIP3   OH272351   1.613   0.070   3.393  0.1511 -0.1523 -0.0444
16979TIP3    H172352   1.594  -0.017   3.358 -1.2589 -0.0105  0.3027
16979TIP3    H272353   1.582   0.066   3.484  0.1003  0.7051 -0.0211
16980TIP3   OH272354   5.946   2.492  14.994  0.0863 -0.0737 -0.1292
16980TIP3    H172355   5.990   2.500  14.909  0.3378  0.8236  0.0757
16980TIP3    H272356   5.957   2.399  15.017  1.7546  0.0726 -0.1619
16981TIP3   OH272357   5.186   6.255  15.278 -0.2939  0.6154  0.0310
16981TIP3    H172358   5.220   6.234  15.192  1.7455  0.1956  0.8772
16981TIP3    H272359   5.155   6.171  15.313 -3.7666  1.1907 -1.2625
16982TIP3   OH272360   1.218   3.333  15.766 -0.3243  0.1702 -0.0065
16982TIP3    H172361   1.205   3.425  15.790 -1.1886  0.4673 -1.4978
16982TIP3    H272362   1.282   3.336  15.694 -0.3417 -0.4009 -0.0481
16983TIP3   OH272363   3.378   4.414   5.118 -0.1739 -0.1027  0.0526
16983TIP3    H172364   3.435   4.424   5.194 -1.4345  0.5196  0.9531
16983TIP3    H272365   3.344   4.325   5.124 -1.5386  0.4636  1.1677
16984TIP3   OH272366   3.177   1.384   5.646 -0.3530 -0.2227 -0.4763
16984TIP3    H172367   3.179   1.408   5.553 -0.7728  0.3372 -0.3440
16984TIP3    H272368   3.249   1.322   5.656  0.3140  0.4530 -0.9748
16985TIP3   OH272369   4.287   3.859   1.392 -0.0655  0.2104 -0.3189
16985TIP3    H172370   4.214   3.807   1.426  0.8074 -0.4910  0.5540
16985TIP3    H272371   4.331   3.800   1.330  0.6282  0.0821  0.2839
16986TIP3   OH272372   2.605   4.825  11.375  0.5047  0.0238 -0.2610
16986TIP3    H172373   2.618   4.849  11.467  1.5660  0.6750 -0.5569
16986TIP3    H272374   2.573   4.735  11.378  0.5963  0.0119  0.7431
16987TIP3   OH272375   0.028   3.794   6.489 -0.0540  0.1652 -0.4300
16987TIP3    H172376   0.091   3.728   6.516  1.8811  1.2098 -2.1695
16987TIP3    H272377  -0.044   3.744   6.451  1.7774 -0.9984 -2.5695
16988TIP3   OH272378   1.969   2.934  12.033 -0.4910  0.0516 -0.3115
16988TIP3    H172379   1.936   2.960  11.946 -0.1048  1.7484  0.0109
16988TIP3    H272380   1.954   3.011  12.088  3.2703  0.7194  0.0384
16989TIP3   OH272381   4.516   0.888   0.114 -0.0332  0.7032 -0.4236
16989TIP3    H172382   4.580   0.928   0.173 -1.3533  1.2300  0.7046
16989TIP3    H272383   4.516   0.944   0.036  3.3607 -1.2310 -2.0515
16990TIP3   OH272384   4.418   1.503  12.984  0.5363  0.6192 -0.3346
16990TIP3    H172385   4.380   1.465  13.064 -1.0471 -2.6295 -2.4262
16990TIP3    H272386   4.510   1.479  12.988  0.3800  0.0825  0.2915
16991TIP3   OH272387   0.053   0.599  13.147  0.0097 -0.6495  0.1177
16991TIP3    H172388   0.064   0.538  13.074  0.6448 -1.3129  0.7482
16991TIP3    H272389  -0.010   0.664  13.115 -0.8717 -1.7655 -0.4766
16992TIP3   OH272390   5.893   0.314  12.949 -0.3258 -0.5862  0.5247
16992TIP3    H172391   5.970   0.371  12.954 -1.0521  0.4513  0.3248
16992TIP3    H272392   5.858   0.329  12.862 -0.8250 -0.9441  0.6638
16993TIP3   OH272393   3.800   4.184   2.075 -0.0827 -0.2155 -0.1538
16993TIP3    H172394   3.745   4.201   1.998  0.3917  0.2059 -0.4111
16993TIP3    H272395   3.809   4.270   2.116  0.7015 -0.2038 -0.3371
16994TIP3   OH272396   5.709   5.493  14.889  0.2244  0.4563 -0.8013
16994TIP3    H172397   5.659   5.445  14.955  2.1511 -0.7139 -0.0948
16994TIP3    H272398   5.662   5.575  14.877 -1.2177 -0.1186  0.6259
16995TIP3   OH272399   1.943   4.278   5.492  0.2665 -0.0299 -0.2057
16995TIP3    H172400   1.884   4.345   5.527  1.1176  0.2631  0.7510
16995TIP3    H272401   1.943   4.209   5.559  1.0098 -0.0078 -0.1701
16996TIP3   OH272402   4.469   1.339   5.414 -0.3392  0.2829  0.1665
16996TIP3    H172403   4.420   1.268   5.372 -0.2469 -0.0430  0.6036
16996TIP3    H272404   4.434   1.419   5.374 -1.6279  0.0954  0.8744
16997TIP3   OH272405   5.886   0.027   1.238 -0.2517 -0.3203  0.3182
16997TIP3    H172406   5.896   0.073   1.155 -0.9808 -0.7619 -0.0297
16997TIP3    H272407   5.810   0.067   1.279 -0.0176 -0.2447  0.6884
16998TIP3   OH272408   4.978   4.508   0.804 -0.0189  0.0217  0.0526
16998TIP3    H172409   5.050   4.515   0.741  0.1279 -0.3676  0.1768
16998TIP3    H272410   4.913   4.570   0.772  0.2250  0.1237 -0.2557
16999TIP3   OH272411   3.629   4.447   4.853  0.1239  0.1357 -0.0931
16999TIP3    H172412   3.705   4.446   4.796 -0.8886  0.7299 -1.4954
16999TIP3    H272413   3.649   4.513   4.920  0.3914  1.0929 -1.0966
17000TIP3   OH272414   1.145   0.010   3.045 -0.1951  0.0716 -0.5014
17000TIP3    H172415   1.212  -0.003   3.112  1.0982 -1.5378 -2.0145
17000TIP3    H272416   1.183   0.075   2.986 -0.2269 -0.3947 -1.0359
17001TIP3   OH272417   1.703   1.306   3.608  0.0637 -0.4715 -0.1871
17001TIP3    H172418   1.755   1.365   3.663 -0.0421 -0.0807 -0.4974
17001TIP3    H272419   1.614   1.341   3.613 -0.0436 -0.7437 -0.1903
17002TIP3   OH272420   3.909   0.491   2.618  0.6635 -0.0445 -0.4531
17002TIP3    H172421   3.886   0.420   2.679  2.7029 -1.6521 -1.4333
17002TIP3    H272422   3.824   0.526   2.589 -0.3726 -0.7759  1.5172
17003TIP3   OH272423   3.955   2.977  16.141  0.3486  0.3961  0.0212
17003TIP3    H172424   4.019   2.997  16.209 -0.6582  1.3217  0.7405
17003TIP3    H272425   3.949   3.057  16.089 -1.4159  0.9750  1.0006
17004TIP3   OH272426   0.354   1.344   2.377  0.7453  0.0953  0.0114
17004TIP3    H172427   0.327   1.366   2.288 -0.0652 -0.8365  0.0129
17004TIP3    H272428   0.450   1.340   2.373  0.7399  0.5605 -0.6904
17005TIP3   OH272429   3.959   5.231  12.554 -0.1761  0.3098  0.6945
17005TIP3    H172430   3.965   5.170  12.628 -2.3526 -1.0860 -0.1982
17005TIP3    H272431   3.866   5.240  12.538  0.2282  0.1878 -2.1773
17006TIP3   OH272432   1.122   1.272   4.149 -0.6726  0.8143  0.0171
17006TIP3    H172433   1.075   1.355   4.160 -2.9672 -0.0539 -2.1925
17006TIP3    H272434   1.082   1.214   4.214  0.6439  1.2477  1.2753
17007TIP3   OH272435   3.486   2.341   4.168  0.1007 -0.3129  0.2205
17007TIP3    H172436   3.475   2.354   4.074 -2.5815  0.9749  0.6214
17007TIP3    H272437   3.573   2.376   4.187  0.4460 -0.0265 -1.6637
17008TIP3   OH272438   0.669   4.365   4.911  0.2623  0.1621  0.6024
17008TIP3    H172439   0.713   4.285   4.880  0.0522  0.1610  0.3022
17008TIP3    H272440   0.740   4.426   4.929  0.3486  0.5836 -1.0509
17009TIP3   OH272441   5.726   0.335  16.631  0.2727  0.0359 -0.2879
17009TIP3    H172442   5.662   0.403  16.611  0.9560  0.3003 -1.8100
17009TIP3    H272443   5.687   0.283  16.701 -0.6384  1.4731  0.3066
17010TIP3   OH272444   6.793   4.542  12.091 -0.2184  0.1772  0.2534
17010TIP3    H172445   6.731   4.495  12.146 -1.3732  1.2557 -0.0835
17010TIP3    H272446   6.747   4.555  12.008  0.7357  0.3565 -0.2622
17011TIP3   OH272447   0.529   4.827  15.871  0.2571 -0.3925  0.6691
17011TIP3    H172448   0.480   4.783  15.802  0.8692  0.7294 -0.5330
17011TIP3    H272449   0.468   4.892  15.907  0.2537 -0.2895  0.4788
17012TIP3   OH272450   2.680   5.897  13.461  0.3831 -0.2907 -0.1999
17012TIP3    H172451   2.759   5.846  13.479  0.6716  0.6113  1.2928
17012TIP3    H272452   2.713   5.986  13.445 -0.2484 -0.1469 -0.7034
17013TIP3   OH272453   2.935   1.702  15.840 -0.0466 -0.0147 -0.3039
17013TIP3    H172454   2.909   1.676  15.928  0.5557 -1.6638 -0.5720
17013TIP3    H272455   2.854   1.705  15.790 -0.1194 -2.3940 -0.4662
17014TIP3   OH272456   5.780   6.125  13.487 -0.2938 -0.0392 -0.4371
17014TIP3    H172457   5.730   6.077  13.420  0.2836 -0.2453 -0.7243
17014TIP3    H272458   5.862   6.148  13.444  0.7829 -1.6039  0.6721
17015TIP3   OH272459   2.028   0.578   4.480  0.0429 -0.4768  0.1365
17015TIP3    H172460   2.056   0.589   4.389  0.4582 -1.1542  0.1703
17015TIP3    H272461   2.062   0.655   4.525 -1.1090  0.4191 -0.4764
17016TIP3   OH272462   4.455   4.859   3.622 -0.0024  0.0247 -0.0864
17016TIP3    H172463   4.439   4.772   3.658 -1.5526  1.1630  2.2234
17016TIP3    H272464   4.526   4.895   3.675 -1.4905  1.2658  1.1995
17017TIP3   OH272465   0.094   5.958   4.050  0.2641 -0.5798  0.3775
17017TIP3    H172466   0.106   6.034   3.993 -1.7261 -0.6349 -0.1994
17017TIP3    H272467   0.172   5.904   4.035  0.5333  0.1595 -1.1290
17018TIP3   OH272468   4.774   1.512  11.344  0.1703  0.0989 -0.0607
17018TIP3    H172469   4.746   1.562  11.421 -0.0408  1.6783 -1.1258
17018TIP3    H272470   4.773   1.421  11.374  0.7434  0.7035  2.0043
17019TIP3   OH272471   0.344   2.714   5.929 -0.3888  0.0045  0.2183
17019TIP3    H172472   0.384   2.642   5.879 -0.4605 -0.1768  0.4181
17019TIP3    H272473   0.419   2.763   5.964 -0.3371  0.4790 -0.5546
17020TIP3   OH272474   4.241   3.031  14.626 -0.2222  0.5224  0.5123
17020TIP3    H172475   4.154   3.069  14.619 -1.3857 -1.9189  0.4297
17020TIP3    H272476   4.288   3.061  14.549 -2.0156 -0.3961 -1.0139
17021TIP3   OH272477   2.595   3.091   3.846  0.7298  0.1736  0.1587
17021TIP3    H172478   2.587   3.137   3.762  2.7638  0.9018  0.2950
17021TIP3    H272479   2.581   2.999   3.824  2.0977  0.2377 -1.2083
17022TIP3   OH272480   2.355   4.613   3.246 -0.3553  0.2570 -0.6161
17022TIP3    H172481   2.293   4.613   3.318 -1.1009 -1.7744 -1.1952
17022TIP3    H272482   2.333   4.691   3.195 -1.1125  0.6342  0.2836
17023TIP3   OH272483   5.898   3.306   2.361  0.0245  0.4881  0.5924
17023TIP3    H172484   5.905   3.401   2.369 -0.8998  0.6340 -0.1599
17023TIP3    H272485   5.987   3.277   2.342  0.1718  1.2914  0.0246
17024TIP3   OH272486   4.268   1.866   5.213 -0.6427  0.1865 -0.2220
17024TIP3    H172487   4.280   1.819   5.295 -0.4581  0.8032  0.1138
17024TIP3    H272488   4.273   1.799   5.145 -2.0526 -0.5273  0.3272
17025TIP3   OH272489   3.221   3.924   5.628 -0.0034  0.9986  0.2983
17025TIP3    H172490   3.156   3.919   5.558  1.9830 -0.3889 -1.5812
17025TIP3    H272491   3.170   3.940   5.707 -2.5499  0.5323 -1.1417
17026TIP3   OH272492   5.874   1.166  14.369  0.0033  0.4609  0.1626
17026TIP3    H172493   5.938   1.113  14.415  0.3831  1.7459  1.1649
17026TIP3    H272494   5.793   1.154  14.418  0.3422  1.6111  1.0388
17027TIP3   OH272495   0.192   6.239   0.381 -0.2163  0.2842  0.0464
17027TIP3    H172496   0.236   6.188   0.314 -1.5526  0.8313 -1.2948
17027TIP3    H272497   0.112   6.270   0.340 -0.6958  1.3197  1.6412
17028TIP3   OH272498   0.080   1.307   1.661 -0.0767 -0.1878  0.0711
17028TIP3    H172499   0.074   1.331   1.753 -1.0105  0.3669 -0.1250
17028TIP3    H272500   0.021   1.232   1.651 -1.0325  0.5964 -0.3370
17029TIP3   OH272501   3.510   2.089   4.641  0.2764 -0.5261 -0.3776
17029TIP3    H172502   3.567   2.089   4.564  0.1217 -1.7434 -0.5190
17029TIP3    H272503   3.451   2.015   4.626 -1.1130  0.4805 -0.0680
17030TIP3   OH272504   1.974   6.473   5.683  0.9152  0.2312  0.1347
17030TIP3    H172505   1.960   6.379   5.688 -0.1865  0.3217 -0.7964
17030TIP3    H272506   2.053   6.483   5.630  0.9841 -0.1659  0.1622
17031TIP3   OH272507   1.479   2.107  15.108  0.2011  0.1760 -0.0931
17031TIP3    H172508   1.397   2.089  15.061 -1.2983 -0.4297  2.5845
17031TIP3    H272509   1.455   2.171  15.174  1.5841 -0.9042  1.5386
17032TIP3   OH272510   1.693   4.565  15.049  0.2874 -0.4564  0.7018
17032TIP3    H172511   1.762   4.528  14.993  0.2635  0.4478  0.0551
17032TIP3    H272512   1.702   4.518  15.132  1.9629 -0.0800  0.7719
17033TIP3   OH272513   0.059   6.216  15.687 -0.3571  0.2829  0.4743
17033TIP3    H172514   0.100   6.135  15.720  1.1032  1.6639  2.2798
17033TIP3    H272515  -0.032   6.208  15.714 -0.0913 -0.4895  1.2299
17034TIP3   OH272516   5.183   2.315   3.023  0.6390  0.2646  0.2160
17034TIP3    H172517   5.089   2.331   3.020  0.6595  0.2830 -1.6581
17034TIP3    H272518   5.193   2.222   3.004  0.8846 -0.5947  3.9314
17035TIP3   OH272519   1.183   6.778   0.841  0.4341 -0.2030 -0.3671
17035TIP3    H172520   1.263   6.821   0.811 -1.5401  3.4367 -1.0311
17035TIP3    H272521   1.173   6.807   0.932  0.5233 -1.7808  0.1736
17036TIP3   OH272522   0.354   3.247  15.082 -0.0009 -0.0661  0.1709
17036TIP3    H172523   0.357   3.194  15.161 -0.9642 -0.0082  0.2560
17036TIP3    H272524   0.446   3.257  15.056  0.3136 -0.1509  1.2300
17037TIP3   OH272525   5.746   2.713   3.309 -0.6351 -0.1749 -0.3285
17037TIP3    H172526   5.773   2.718   3.217 -1.9683  0.3699 -0.7118
17037TIP3    H272527   5.826   2.690   3.356  0.0806 -0.4221 -1.6173
17038TIP3   OH272528   3.208   4.152  14.531  0.0751 -0.4640  0.5407
17038TIP3    H172529   3.164   4.068  14.521 -0.1598 -0.3435  0.5750
17038TIP3    H272530   3.294   4.129  14.568  0.1876 -0.7286  0.1347
17039TIP3   OH272531   2.135   0.994  14.253 -0.1174 -0.0423 -0.8046
17039TIP3    H172532   2.097   1.019  14.337 -0.0572 -0.9724 -0.4976
17039TIP3    H272533   2.171   1.076  14.219 -2.4844  0.9262 -1.1915
17040TIP3   OH272534   1.377   1.104   1.774  0.3901  0.3324  0.2463
17040TIP3    H172535   1.386   1.107   1.870  1.9435  0.9407  0.1062
17040TIP3    H272536   1.353   1.193   1.749  0.1295  0.2066  0.0394
17041TIP3   OH272537   6.289   6.568  14.477  0.0577  1.3041  0.1346
17041TIP3    H172538   6.214   6.588  14.533  1.2795  2.4322  1.4046
17041TIP3    H272539   6.343   6.647  14.478  2.3482 -0.1737  0.9914
17042TIP3   OH272540   1.011   2.677   1.675  0.7418  0.3079 -0.5232
17042TIP3    H172541   1.041   2.679   1.766 -0.3489  1.5730 -0.1705
17042TIP3    H272542   0.996   2.584   1.658 -0.3263  0.1446  1.0378
17043TIP3   OH272543   0.505   0.757  11.092 -0.2697 -0.3046 -0.1843
17043TIP3    H172544   0.488   0.729  11.003  1.6668 -1.4854 -0.2487
17043TIP3    H272545   0.546   0.843  11.083  0.8436 -0.8601 -0.5155
17044TIP3   OH272546   4.651   6.621   2.149  1.2936  0.3003  0.4342
17044TIP3    H172547   4.653   6.527   2.166  2.2367  0.6792  2.8280
17044TIP3    H272548   4.682   6.630   2.059  1.0906 -1.6698  0.1278
17045TIP3   OH272549   2.246   5.808  14.543 -0.4576  0.5318  0.2216
17045TIP3    H172550   2.220   5.896  14.518 -0.1889  0.6595  0.3971
17045TIP3    H272551   2.166   5.756  14.531 -0.5424  0.7439 -0.1371
17046TIP3   OH272552   3.158   1.679  11.749  0.2708  0.0824  0.1674
17046TIP3    H172553   3.163   1.740  11.822  0.2814 -0.0583  0.2853
17046TIP3    H272554   3.170   1.733  11.671  1.3140  0.0774  0.3208
17047TIP3   OH272555   2.580   6.728  12.112 -0.4080  0.1178 -0.3629
17047TIP3    H172556   2.562   6.638  12.137  1.1809 -0.0453  0.2544
17047TIP3    H272557   2.494   6.771  12.116 -0.7401 -0.6295  2.3891
17048TIP3   OH272558   5.135   3.063   4.956  0.2409  0.4457 -0.2918
17048TIP3    H172559   5.141   3.068   5.052  0.2374 -1.3282 -0.1620
17048TIP3    H272560   5.091   2.980   4.940  1.8895 -0.1816 -1.8741
17049TIP3   OH272561   0.113   5.123   3.595  0.5086  0.0923 -0.2973
17049TIP3    H172562   0.054   5.051   3.573 -1.1228  0.5602  2.1827
17049TIP3    H272563   0.061   5.202   3.583  1.6214  0.7473 -0.9776
17050TIP3   OH272564   5.900   6.336   4.508  0.2363  0.3420 -0.1112
17050TIP3    H172565   5.952   6.369   4.582 -0.9653  1.4013  0.3026
17050TIP3    H272566   5.964   6.301   4.447  1.2407 -1.0852  1.6690
17051TIP3   OH272567   6.246   5.668  16.318 -0.6047  0.5180  0.1469
17051TIP3    H172568   6.161   5.707  16.300 -0.7362 -0.1944 -0.8118
17051TIP3    H272569   6.243   5.645  16.411 -1.3635  0.6991  0.1690
17052TIP3   OH272570   5.961   2.830   1.566 -0.4371  0.3221  0.7063
17052TIP3    H172571   5.940   2.823   1.473 -1.7465  1.2395  0.9135
17052TIP3    H272572   6.006   2.748   1.587 -1.0231 -0.3294 -0.5031
17053TIP3   OH272573   5.667   0.384  14.094  0.5938  0.0642 -0.2625
17053TIP3    H172574   5.677   0.289  14.095 -0.9496 -0.1333  0.3742
17053TIP3    H272575   5.635   0.406  14.182 -0.5475  0.9659 -0.8620
17054TIP3   OH272576   2.207   0.419   5.345 -0.4181 -0.5472  0.1263
17054TIP3    H172577   2.183   0.470   5.267 -1.2808 -1.3680 -0.1662
17054TIP3    H272578   2.240   0.483   5.407  0.1982  0.1392 -0.8834
17055TIP3   OH272579   6.058   5.069  12.526 -0.2348  0.5125  0.7094
17055TIP3    H172580   6.086   5.096  12.438 -0.2732  1.6101  1.0164
17055TIP3    H272581   6.006   4.990  12.511  1.2246 -0.3501 -0.0763
17056TIP3   OH272582   4.785   1.235  13.276 -0.5235  0.2692  0.2260
17056TIP3    H172583   4.794   1.170  13.207 -0.1550 -0.7647  1.2176
17056TIP3    H272584   4.805   1.318  13.233 -0.7724 -0.2885 -1.0082
17057TIP3   OH272585   6.797   0.062   0.045  0.4194 -0.0037  0.2617
17057TIP3    H172586   6.827  -0.016  -0.002  0.0409 -0.0069  0.0253
17057TIP3    H272587   6.859   0.130   0.019 -0.6463  0.3754 -1.4580
17058TIP3   OH272588   0.682   6.634   5.286 -0.6254  0.3511  0.0178
17058TIP3    H172589   0.704   6.721   5.319 -0.8600  0.7394 -0.8323
17058TIP3    H272590   0.752   6.613   5.224 -0.6178 -0.0279  0.1521
17059TIP3   OH272591   5.670   1.264   3.333 -0.6250  0.1199  0.4571
17059TIP3    H172592   5.622   1.286   3.253 -1.1052 -1.3535  0.3017
17059TIP3    H272593   5.611   1.289   3.404 -0.7340  0.2704  0.3139
17060TIP3   OH272594   3.334   0.072  14.161  0.0609 -0.3240 -0.1363
17060TIP3    H172595   3.349   0.021  14.240 -2.2368 -1.4074 -0.3341
17060TIP3    H272596   3.337   0.007  14.090  1.1746  0.4865 -0.8629
17061TIP3   OH272597   3.717   4.630  16.890 -0.2079 -0.2494  0.4870
17061TIP3    H172598   3.724   4.535  16.877  1.5604 -0.0925  0.1420
17061TIP3    H272599   3.772   4.668  16.823  0.8860  0.9501  1.9944
17062TIP3   OH272600   6.157   3.895  13.543  0.6218 -0.7265 -0.6155
17062TIP3    H172601   6.252   3.887  13.544  0.6415 -0.6807  1.3294
17062TIP3    H272602   6.135   3.934  13.628 -1.0903 -0.1060 -1.2916
17063TIP3   OH272603   4.792   3.459  14.491  0.0953  0.7702  0.6338
17063TIP3    H172604   4.827   3.421  14.411  0.6135 -0.3803  1.3843
17063TIP3    H272605   4.863   3.451  14.555  0.3618  3.3207  0.7641
17064TIP3   OH272606   5.734   6.147   3.664  0.4066 -0.0718  0.6995
17064TIP3    H172607   5.683   6.125   3.742 -0.5092 -0.6913 -0.0445
17064TIP3    H272608   5.686   6.105   3.592  0.8366  1.0743 -0.2850
17065TIP3   OH272609   0.700   2.910  12.377  0.1214  0.1275  0.2237
17065TIP3    H172610   0.671   2.820  12.360 -0.8893  0.4722  0.0194
17065TIP3    H272611   0.740   2.938  12.295  2.4215 -0.8410  0.9565
17066TIP3   OH272612   5.297   4.263  15.111  0.0479 -0.8467  0.0231
17066TIP3    H172613   5.239   4.335  15.135  2.2643  1.0632 -0.0356
17066TIP3    H272614   5.256   4.225  15.033 -0.0406  1.9023 -1.4124
17067TIP3   OH272615   6.477   3.237  12.624 -0.1057  0.3968  0.6832
17067TIP3    H172616   6.550   3.293  12.598  0.0145 -0.6634 -1.4858
17067TIP3    H272617   6.493   3.154  12.579 -2.7346  0.2118 -0.0726
17068TIP3   OH272618   3.951   1.145   0.197  0.0552 -0.2759  0.3616
17068TIP3    H172619   3.945   1.151   0.102 -2.1253  0.9367  0.4987
17068TIP3    H272620   3.905   1.223   0.228 -0.7636 -1.5169  2.4174
17069TIP3   OH272621   1.120   3.898  16.018  0.0869 -0.1492  0.2576
17069TIP3    H172622   1.172   3.842  15.961 -0.1978  1.0024 -1.1772
17069TIP3    H272623   1.133   3.986  15.984 -2.6270  0.2173 -0.0276
17070TIP3   OH272624   0.968   3.531  14.805 -0.6313  0.5420 -0.0275
17070TIP3    H172625   0.919   3.526  14.723 -3.1060 -0.1155  1.4017
17070TIP3    H272626   1.056   3.499  14.782 -0.3807  2.8470 -2.9620
17071TIP3   OH272627   0.584   2.264   3.165 -0.3638 -0.2612 -0.2914
17071TIP3    H172628   0.589   2.233   3.255 -1.8845  0.7228  0.1703
17071TIP3    H272629   0.662   2.318   3.154  1.0329 -2.1789 -0.3365
17072TIP3   OH272630   4.465   0.951  15.077  0.2680 -0.4007 -0.2429
17072TIP3    H172631   4.527   1.021  15.097 -0.3971 -0.2173  1.2692
17072TIP3    H272632   4.388   0.996  15.042 -0.4506 -0.2849  1.4345
17073TIP3   OH272633   4.735   6.163   5.781  0.4069 -0.6105  0.0068
17073TIP3    H172634   4.769   6.169   5.871 -1.2250 -0.7634  0.6677
17073TIP3    H272635   4.690   6.079   5.778 -1.2987  0.2731 -0.3015
17074TIP3   OH272636   5.694   6.477  10.555  0.1701  0.2527 -0.2432
17074TIP3    H172637   5.775   6.478  10.504 -0.0382 -0.4779 -0.5959
17074TIP3    H272638   5.721   6.446  10.641  0.5613  1.7051  0.1851
17075TIP3   OH272639   4.861   4.019  13.074  0.7199 -0.0007 -0.2762
17075TIP3    H172640   4.807   4.098  13.078  1.7718  0.7568 -0.7126
17075TIP3    H272641   4.937   4.038  13.127  0.4725 -1.1642  0.5456
17076TIP3   OH272642   5.085   2.099   1.238 -0.3913  0.1415 -0.2236
17076TIP3    H172643   5.134   2.153   1.300  0.1003 -0.7075  0.1435
17076TIP3    H272644   5.027   2.161   1.193  0.8691  1.1450 -0.5421
17077TIP3   OH272645   2.821   6.018  16.516  0.3809 -0.1752 -0.4499
17077TIP3    H172646   2.838   6.097  16.567  1.4802 -0.9390  0.4014
17077TIP3    H272647   2.726   6.011  16.514  0.2693  1.1072 -0.4493
17078TIP3   OH272648   1.897   5.185  12.119 -0.3490  0.3311 -0.1343
17078TIP3    H172649   1.895   5.089  12.119  0.0116  0.2867  2.0170
17078TIP3    H272650   1.934   5.208  12.033 -1.1951 -1.4081 -1.0091
17079TIP3   OH272651   3.783   3.969  14.311  0.0891 -0.3263  0.1556
17079TIP3    H172652   3.862   4.014  14.280 -0.0222  0.2733  0.7273
17079TIP3    H272653   3.741   3.936  14.231  0.8922 -0.6252 -0.1566
17080TIP3   OH272654   1.000   6.641  15.434  0.4712  0.1704  0.0530
17080TIP3    H172655   1.078   6.692  15.454  0.3262  0.7890 -0.9029
17080TIP3    H272656   0.951   6.638  15.516  0.7101  1.1649  0.2380
17081TIP3   OH272657   3.503   6.619  15.878 -0.1096 -0.5095  0.0944
17081TIP3    H172658   3.565   6.547  15.893  1.5742  0.5423 -1.4153
17081TIP3    H272659   3.519   6.646  15.788 -1.4782  1.0502  0.2739
17082TIP3   OH272660   1.063   5.401  11.173 -0.2404 -0.0915  0.5524
17082TIP3    H172661   1.047   5.440  11.259  1.2719 -1.4101  1.4931
17082TIP3    H272662   1.067   5.307  11.190  1.3231 -0.2905 -0.7422
17083TIP3   OH272663   3.204   0.857  11.382  0.5946 -0.0071  0.3265
17083TIP3    H172664   3.111   0.863  11.360  0.4250  3.2446  1.4238
17083TIP3    H272665   3.245   0.926  11.329  2.2282 -0.6826  0.6547
17084TIP3   OH272666   0.327   5.993  13.278 -0.3883  0.2396  0.3834
17084TIP3    H172667   0.323   6.017  13.186 -0.9350  0.2876  0.4159
17084TIP3    H272668   0.299   5.901  13.280 -2.1541  0.7381  0.6855
17085TIP3   OH272669   3.295   6.708  12.547  0.1917  0.6090  0.1593
17085TIP3    H172670   3.297   6.622  12.588 -0.3282 -0.3335 -1.6805
17085TIP3    H272671   3.203   6.723  12.526  0.6836 -0.4694 -3.5076
17086TIP3   OH272672   0.237   2.931   1.424 -0.1783  0.1631  0.3160
17086TIP3    H172673   0.201   2.873   1.490  0.7312  2.1250  2.6776
17086TIP3    H272674   0.325   2.896   1.406  0.2647  0.6201  1.5303
17087TIP3   OH272675   5.201   1.709   5.919  0.4165  0.4934  0.3524
17087TIP3    H172676   5.137   1.764   5.876  1.1971  1.8106  0.8203
17087TIP3    H272677   5.281   1.721   5.868  0.5900 -0.2462  0.4384
17088TIP3   OH272678   2.957   6.614  13.312 -0.1640 -0.3377 -0.8297
17088TIP3    H172679   2.988   6.609  13.221  0.2030  0.4338 -0.7449
17088TIP3    H272680   2.913   6.699  13.318  0.6797  0.0537 -0.0094
17089TIP3   OH272681   3.511   2.717   4.716  0.0742 -0.0709 -0.0304
17089TIP3    H172682   3.484   2.643   4.770 -2.0541  0.5243 -0.2061
17089TIP3    H272683   3.522   2.790   4.777 -0.6565  0.1750 -0.1869
17090TIP3   OH272684   6.284   4.991  16.395  0.3230 -0.1692 -0.4108
17090TIP3    H172685   6.321   5.058  16.452  3.2884 -0.4156 -1.8623
17090TIP3    H272686   6.192   4.984  16.422  0.6107  2.4752  1.6096
17091TIP3   OH272687   3.918   4.281   1.287 -0.5180  0.0257 -0.5155
17091TIP3    H172688   3.990   4.218   1.287 -0.0114  0.5875 -0.9547
17091TIP3    H272689   3.922   4.322   1.373  0.7325  1.1884 -1.0839
17092TIP3   OH272690   3.617   6.444   1.940  0.6148  0.4672 -0.0928
17092TIP3    H172691   3.692   6.490   1.902  0.7479  0.1467 -0.2187
17092TIP3    H272692   3.586   6.503   2.009 -0.0260  1.3587 -1.1030
17093TIP3   OH272693   0.406   5.292   2.978 -0.2122  0.5205  0.6714
17093TIP3    H172694   0.432   5.331   2.894 -0.7447  0.2120  0.3549
17093TIP3    H272695   0.488   5.284   3.027  0.7518 -2.6159 -1.1971
17094TIP3   OH272696   2.195   4.640   0.713  0.3721 -0.2430 -0.3826
17094TIP3    H172697   2.266   4.581   0.685 -1.4468 -2.0345 -1.4829
17094TIP3    H272698   2.175   4.691   0.635  0.0538 -0.1497 -0.2392
17095TIP3   OH272699   2.340   6.375   2.399 -0.0131  0.4805 -0.2716
17095TIP3    H172700   2.405   6.429   2.355 -0.0109 -0.8804 -2.0425
17095TIP3    H272701   2.267   6.370   2.338 -0.3596 -0.8076  0.2096
17096TIP3   OH272702   5.468   3.410  12.180 -0.2397 -0.4345 -0.4749
17096TIP3    H172703   5.390   3.389  12.231 -0.2442  0.2049 -0.2067
17096TIP3    H272704   5.498   3.325  12.146 -0.0571 -0.9128  0.8373
17097TIP3   OH272705   5.322   2.172   4.991 -0.2960  0.3604  0.1102
17097TIP3    H172706   5.383   2.107   4.957 -1.4641 -0.5201 -0.3784
17097TIP3    H272707   5.251   2.120   5.030 -1.2881  1.3378 -0.3605
17098TIP3   OH272708   1.358   3.059  10.872  0.2837 -0.4009 -1.1595
17098TIP3    H172709   1.409   3.110  10.934 -0.2219  0.3906 -1.3699
17098TIP3    H272710   1.407   3.064  10.790  0.4733 -0.6546 -1.0625
17099TIP3   OH272711   4.628   1.367   3.026  0.2180 -0.8842 -0.0901
17099TIP3    H172712   4.692   1.322   3.081  0.7653 -0.9151 -0.7276
17099TIP3    H272713   4.681   1.404   2.955 -0.2062  0.7812  0.4135
17100TIP3   OH272714   3.270   6.379   5.244  0.4177 -0.1608  0.0365
17100TIP3    H172715   3.307   6.439   5.179  0.5010  1.3897  1.4308
17100TIP3    H272716   3.308   6.408   5.327  0.9216 -2.5544  0.7178
17101TIP3   OH272717   6.360   0.606   5.630 -0.2170  0.0110 -0.3309
17101TIP3    H172718   6.296   0.619   5.700 -0.5208 -1.9413 -0.1839
17101TIP3    H272719   6.445   0.623   5.670 -0.3144 -1.8807  0.7968
17102TIP3   OH272720   4.410   2.816  16.448 -0.1949  0.5048  0.0272
17102TIP3    H172721   4.358   2.767  16.512 -1.0788 -3.3860 -3.2520
17102TIP3    H272722   4.349   2.881  16.412 -0.5807  0.7000  1.0058
17103TIP3   OH272723   4.015   0.351   6.132  0.1321  0.8555  0.3119
17103TIP3    H172724   3.973   0.287   6.190  0.3210  0.0909 -0.3771
17103TIP3    H272725   4.105   0.320   6.123 -0.4086 -0.2411 -2.0250
17104TIP3   OH272726   5.139   5.052   1.374  0.6454 -0.0561  0.1384
17104TIP3    H172727   5.224   5.091   1.391  1.3747 -1.3052 -0.4954
17104TIP3    H272728   5.127   5.059   1.279 -0.3688  0.8920  0.3157
17105TIP3   OH272729   4.466   4.064   1.485 -0.0867  0.1398 -0.3400
17105TIP3    H172730   4.417   3.982   1.477 -1.7410  1.1676 -1.3271
17105TIP3    H272731   4.443   4.113   1.406 -0.3989  2.2089  0.9562
17106TIP3   OH272732   5.594   2.636  12.376  0.8258  0.7049 -0.1351
17106TIP3    H172733   5.578   2.555  12.329 -1.2990  0.7319  0.4570
17106TIP3    H272734   5.600   2.610  12.468  2.0643  1.0090 -0.1053
17107TIP3   OH272735   6.500   2.629   1.498 -0.1795  0.2017  0.1573
17107TIP3    H172736   6.448   2.643   1.577  1.2278  2.3008  0.8132
17107TIP3    H272737   6.510   2.717   1.461  3.2147  0.0184  0.3297
17108TIP3   OH272738   3.348   6.344   0.634  0.3315 -0.4335  0.2493
17108TIP3    H172739   3.273   6.384   0.679  0.8415 -0.8181  1.4853
17108TIP3    H272740   3.351   6.389   0.549  0.2595  1.4351  1.1724
17109TIP3   OH272741   5.801   2.016   3.956  0.2232 -0.5123  0.3641
17109TIP3    H172742   5.721   2.056   3.992  0.8213 -2.2824  4.0636
17109TIP3    H272743   5.872   2.072   3.987  0.6450 -0.4592 -0.6450
17110TIP3   OH272744   1.800   3.920  14.328  0.1125 -0.2842 -0.3312
17110TIP3    H172745   1.807   3.998  14.383 -2.2287  0.6942 -1.2586
17110TIP3    H272746   1.706   3.909  14.315  0.4503 -2.5819 -1.2201
17111TIP3   OH272747   4.500   4.418   0.166 -0.2108 -0.6350  0.5705
17111TIP3    H172748   4.521   4.464   0.084 -0.2439 -1.3751  0.1348
17111TIP3    H272749   4.584   4.409   0.210 -0.4197  1.3282  1.4820
17112TIP3   OH272750   2.294   4.765  15.289  0.5974  0.1024 -0.5530
17112TIP3    H172751   2.345   4.688  15.313  3.1592  1.8296 -0.0732
17112TIP3    H272752   2.293   4.764  15.193  0.2639 -0.7334 -0.5441
17113TIP3   OH272753   1.110   5.726   4.909  0.0346  0.1306 -0.7306
17113TIP3    H172754   1.090   5.803   4.962 -0.8473 -0.0542 -0.7734
17113TIP3    H272755   1.166   5.672   4.964  0.5388  0.7315 -0.6455
17114TIP3   OH272756   5.485   2.435  17.029  0.0319  0.1738 -0.0684
17114TIP3    H172757   5.470   2.524  17.060 -0.9474 -0.1399  0.3903
17114TIP3    H272758   5.483   2.443  16.933 -0.1854  0.6224 -0.0306
17115TIP3   OH272759   4.256   3.148  12.492 -0.1690 -0.0596  0.5692
17115TIP3    H172760   4.332   3.143  12.434 -0.4070 -1.2546  0.3409
17115TIP3    H272761   4.250   3.062  12.533 -1.0544  0.2064  1.0434
17116TIP3   OH272762   6.292   2.356  14.204 -0.5198  0.0371 -0.6731
17116TIP3    H172763   6.236   2.336  14.129  1.2642  0.0959 -2.0797
17116TIP3    H272764   6.371   2.305  14.189  0.4246  1.1081  0.4764
17117TIP3   OH272765   1.516   5.813  11.371 -0.1147  0.0960 -0.3875
17117TIP3    H172766   1.441   5.813  11.311  0.0985  0.6631 -0.6623
17117TIP3    H272767   1.576   5.749  11.334 -0.9452 -1.2158  0.4650
17118TIP3   OH272768   3.416   5.095  11.363  0.7998 -0.0081 -0.6867
17118TIP3    H172769   3.342   5.134  11.317 -0.3701 -2.6635 -1.2498
17118TIP3    H272770   3.493   5.142  11.331 -0.2226 -0.1380 -3.5734
17119TIP3   OH272771   6.159   5.980   1.635  0.4155 -0.2404 -0.5846
17119TIP3    H172772   6.067   5.973   1.659  0.2531  1.7149 -0.4129
17119TIP3    H272773   6.160   5.970   1.540  0.2695 -1.9138 -0.4338
17120TIP3   OH272774   6.684   4.205   5.513  0.6115 -0.6971 -0.4817
17120TIP3    H172775   6.673   4.125   5.563 -0.4937  0.7132  1.6870
17120TIP3    H272776   6.624   4.197   5.439 -0.1686 -1.4700  0.2332
17121TIP3   OH272777   3.153   3.030  13.996  0.3290  0.1743  0.0231
17121TIP3    H172778   3.223   3.094  14.009  0.8823 -0.3045 -0.4951
17121TIP3    H272779   3.110   3.057  13.915 -0.3690  0.7117  0.5628
17122TIP3   OH272780   2.311   1.789  16.537 -0.5670  0.3394 -0.2346
17122TIP3    H172781   2.361   1.858  16.580  0.6115 -0.7229  0.1656
17122TIP3    H272782   2.356   1.775  16.453  1.1496 -1.9992  0.9613
17123TIP3   OH272783   1.413   2.430   0.361  0.0587 -0.3920 -0.0679
17123TIP3    H172784   1.327   2.422   0.319  0.4081 -2.8923 -0.4879
17123TIP3    H272785   1.412   2.516   0.402 -3.6146 -1.2241  2.0278
17124TIP3   OH272786   4.752   6.743  16.466  0.0529 -0.5182  0.4777
17124TIP3    H172787   4.807   6.801  16.413 -0.2198 -0.8434 -0.1759
17124TIP3    H272788   4.676   6.725  16.410 -0.9040  0.1942  1.4885
17125TIP3   OH272789   2.315   5.380  13.851  0.4538 -0.1851  0.0756
17125TIP3    H172790   2.326   5.321  13.776  0.1506 -0.2500  0.0809
17125TIP3    H272791   2.403   5.414  13.868  0.5491 -0.2835 -0.2188
17126TIP3   OH272792   0.799   4.449  14.632 -0.0654 -0.2176 -0.7970
17126TIP3    H172793   0.775   4.537  14.602 -1.5597 -0.2393  0.2688
17126TIP3    H272794   0.835   4.462  14.719 -0.7069 -0.7056 -0.4524
17127TIP3   OH272795   0.171   3.340   2.691 -0.5183 -0.1512  0.1488
17127TIP3    H172796   0.188   3.348   2.597 -0.5887 -0.0602  0.1433
17127TIP3    H272797   0.133   3.253   2.701 -0.0543 -0.3525  0.1623
17128TIP3   OH272798   5.654   3.893  12.173 -0.1451  0.2213  0.4878
17128TIP3    H172799   5.636   3.846  12.092 -1.2753  1.6248 -0.1249
17128TIP3    H272800   5.571   3.936  12.195  0.3385  0.4652  1.9956
17129TIP3   OH272801   1.826   0.235  12.020 -1.1386  0.1874  0.0219
17129TIP3    H172802   1.898   0.190  11.975 -0.6743  0.9066  0.0238
17129TIP3    H272803   1.857   0.244  12.110 -0.0749  2.7659 -0.4998
17130TIP3   OH272804   1.143   6.530  15.182  0.8286 -0.7673 -0.5357
17130TIP3    H172805   1.184   6.447  15.205  1.9819  0.1717  0.9838
17130TIP3    H272806   1.129   6.574  15.266  0.3078  0.6143 -1.3094
17131TIP3   OH272807   4.160   1.068   2.330  0.5130  0.1481  0.8143
17131TIP3    H172808   4.126   1.005   2.394  3.4144 -3.1748 -0.5699
17131TIP3    H272809   4.123   1.041   2.247  0.7451  1.1799  0.3553
17132TIP3   OH272810   4.598   1.325  13.708  0.2173  0.2554 -0.4720
17132TIP3    H172811   4.589   1.420  13.702 -2.8264  0.0660 -0.4234
17132TIP3    H272812   4.612   1.308  13.802  0.1402  0.6140 -0.3950
17133TIP3   OH272813   6.022   0.640  16.530 -0.1191 -0.2650  0.5456
17133TIP3    H172814   5.970   0.622  16.452  0.5851 -3.9509  0.7466
17133TIP3    H272815   5.973   0.707  16.576 -2.2703 -0.3135 -1.4736
17134TIP3   OH272816   1.517   1.009   4.002  0.2168 -0.3684  0.1551
17134TIP3    H172817   1.520   0.926   4.049  1.7966  0.2238  1.1854
17134TIP3    H272818   1.466   1.067   4.058  0.4038 -0.2170  0.1688
17135TIP3   OH272819   2.055   0.182   5.201  0.7735  0.0010  0.1856
17135TIP3    H172820   2.017   0.269   5.194  0.1442 -0.3480 -1.3014
17135TIP3    H272821   2.057   0.164   5.295  0.5980  1.4657  0.4944
17136TIP3   OH272822   3.494   6.061  11.244 -0.0248  0.8686  0.2366
17136TIP3    H172823   3.462   6.076  11.155  0.6801  2.5113  0.2183
17136TIP3    H272824   3.475   6.143  11.290  2.2400  1.1593  0.7796
17137TIP3   OH272825   4.905   6.797   5.562 -0.6058 -0.0053  0.4718
17137TIP3    H172826   4.885   6.711   5.525  0.9577  0.4031 -1.5431
17137TIP3    H272827   4.831   6.852   5.537  0.7222  0.4588 -3.0654
17138TIP3   OH272828   5.150   6.280  13.909  0.0857  0.5197 -0.2532
17138TIP3    H172829   5.082   6.308  13.847  0.6076  0.7680 -0.7173
17138TIP3    H272830   5.191   6.361  13.937  0.7397  0.3180 -0.6125
17139TIP3   OH272831   5.607   3.689   1.656 -0.3872 -0.3608 -0.4521
17139TIP3    H172832   5.559   3.720   1.732  0.9799 -0.0134  0.3016
17139TIP3    H272833   5.685   3.745   1.652  1.3063 -2.5616 -0.0511
17140TIP3   OH272834   5.673   0.141   4.357  0.3565  0.4707  0.1213
17140TIP3    H172835   5.667   0.060   4.408  0.9089  0.1844 -0.2614
17140TIP3    H272836   5.616   0.203   4.403 -1.1187 -0.5197 -0.3076
17141TIP3   OH272837   0.616   0.962   4.540 -0.6281  0.5798  0.3599
17141TIP3    H172838   0.710   0.981   4.538 -0.2677 -0.9604  1.4331
17141TIP3    H272839   0.578   1.038   4.585 -0.0421  1.6364 -0.8626
17142TIP3   OH272840   3.888   3.968  16.195 -0.2696  0.1114  0.1027
17142TIP3    H172841   3.899   4.063  16.195  0.1931  0.0638  0.2644
17142TIP3    H272842   3.972   3.934  16.165  0.1645 -0.2919  1.6697
17143TIP3   OH272843   5.193   6.176   0.507  0.0169 -0.4110  0.0283
17143TIP3    H172844   5.252   6.147   0.576  1.5639 -0.8628 -1.4321
17143TIP3    H272845   5.177   6.098   0.454  0.0608  0.2459 -0.9796
17144TIP3   OH272846   1.807   1.092   1.281 -0.3686 -0.2071  0.1963
17144TIP3    H172847   1.712   1.079   1.287 -0.3016 -1.7620 -1.2842
17144TIP3    H272848   1.837   1.093   1.372 -1.5088 -2.5482  0.6903
17145TIP3   OH272849   4.372   1.009  15.493  0.1208  0.4378  0.2183
17145TIP3    H172850   4.370   1.069  15.568 -0.0473  0.6856  0.0171
17145TIP3    H272851   4.285   0.971  15.491 -0.5339  1.9028 -1.0276
17146TIP3   OH272852   1.910   2.006   6.511 -0.0657 -0.3853 -0.3601
17146TIP3    H172853   1.965   1.941   6.466 -0.1972 -0.5918 -0.2227
17146TIP3    H272854   1.919   2.085   6.457  1.2788 -0.0679  0.2928
17147TIP3   OH272855   0.194   1.945  11.363 -0.0712 -0.6341  0.5619
17147TIP3    H172856   0.215   1.900  11.280  2.7041  0.5967  0.4954
17147TIP3    H272857   0.143   2.022  11.336  2.8794  1.1341 -0.4221
17148TIP3   OH272858   1.714   4.681   4.477 -0.3259  0.3967  0.0687
17148TIP3    H172859   1.744   4.637   4.397 -1.6171 -0.3405 -0.0410
17148TIP3    H272860   1.791   4.727   4.510  0.6192 -0.5397 -0.7723
17149TIP3   OH272861   2.414   1.633   0.354  0.5945 -0.1559 -0.1957
17149TIP3    H172862   2.406   1.574   0.279  0.7420  0.2141 -0.5082
17149TIP3    H272863   2.357   1.595   0.420  1.5564 -1.2999  0.0251
17150TIP3   OH272864   5.606   6.485  12.967 -0.2126  0.9575 -0.0064
17150TIP3    H172865   5.626   6.493  12.874 -0.7674  1.8796 -0.0552
17150TIP3    H272866   5.684   6.517  13.012  0.8076 -1.2134 -0.0994
17151TIP3   OH272867   1.903   2.059   6.118 -0.9477  0.9065  0.4695
17151TIP3    H172868   1.866   2.114   6.187 -0.0794  1.5525  0.4286
17151TIP3    H272869   1.985   2.027   6.154 -0.4730  1.2676 -0.2659
17152TIP3   OH272870   4.729   0.104   5.326 -0.7801  0.3903 -0.0128
17152TIP3    H172871   4.701   0.178   5.379  3.0267  0.2940  2.5208
17152TIP3    H272872   4.752   0.142   5.241 -2.8562  1.3123 -0.2096
17153TIP3   OH272873   3.138   2.164  13.548 -0.7214  0.5798  0.2887
17153TIP3    H172874   3.100   2.249  13.524  0.4067  1.0352  0.0599
17153TIP3    H272875   3.163   2.175  13.640  0.5065  0.9166 -0.0699
17154TIP3   OH272876   3.706   3.185   5.982 -0.0232 -0.8198 -0.1708
17154TIP3    H172877   3.725   3.194   6.075 -0.6195 -0.3799 -0.0850
17154TIP3    H272878   3.782   3.223   5.938 -0.1861 -0.1072  0.1519
17155TIP3   OH272879   1.097   6.168  10.250  0.1369 -0.0556 -0.4183
17155TIP3    H172880   1.114   6.208  10.164  1.0778  0.9322  0.2013
17155TIP3    H272881   1.183   6.139  10.280 -0.0102  0.5928  0.6615
17156TIP3   OH272882   1.661   6.365   4.674  0.1582 -0.3269  0.5713
17156TIP3    H172883   1.664   6.271   4.661 -0.4654 -0.1326 -1.2536
17156TIP3    H272884   1.692   6.378   4.764 -0.1177 -2.2772  0.9880
17157TIP3   OH272885   3.697   0.408  16.392 -0.1576 -0.3083  0.0428
17157TIP3    H172886   3.626   0.385  16.451 -0.1084 -0.6433 -0.0296
17157TIP3    H272887   3.662   0.392  16.304 -0.1011 -0.1720 -0.0048
17158TIP3   OH272888   5.078   3.678   6.192  0.2215 -0.1898 -0.1965
17158TIP3    H172889   5.048   3.616   6.259  0.0750  0.6111  0.5053
17158TIP3    H272890   5.001   3.732   6.174  0.7212  0.7052  0.2710
17159TIP3   OH272891   5.120   6.426  15.922 -0.0693 -0.2841  0.2358
17159TIP3    H172892   5.163   6.373  15.990 -0.0095  1.0077  1.2470
17159TIP3    H272893   5.096   6.507  15.967 -0.9163  0.2083 -1.0640
17160TIP3   OH272894   2.643   2.692  11.401  0.0779 -0.1578 -0.0752
17160TIP3    H172895   2.603   2.774  11.432  1.1186  0.7086 -0.9312
17160TIP3    H272896   2.570   2.644  11.362 -0.3201  0.9941 -0.8000
17161TIP3   OH272897   1.523   5.380  13.590 -0.3955 -0.3826 -0.5707
17161TIP3    H172898   1.606   5.401  13.632  0.2411 -0.6506 -1.6673
17161TIP3    H272899   1.523   5.432  13.509 -1.2486 -0.4705 -0.6411
17162TIP3   OH272900   2.332   3.874   3.521 -0.2377 -0.9386 -0.4493
17162TIP3    H172901   2.426   3.875   3.507 -0.3546  2.3909 -1.9076
17162TIP3    H272902   2.306   3.967   3.519 -3.4609 -1.6818  0.5631
17163TIP3   OH272903   5.350   5.496   0.206 -0.1522 -0.4338 -0.7150
17163TIP3    H172904   5.406   5.493   0.128 -0.5974 -2.3794 -1.0082
17163TIP3    H272905   5.267   5.532   0.174  0.3792  0.9224 -0.6245
17164TIP3   OH272906   4.578   4.783  15.206 -0.4475  0.4014 -0.1455
17164TIP3    H172907   4.620   4.700  15.183 -0.0668 -0.4212  3.0447
17164TIP3    H272908   4.485   4.761  15.216 -0.5896  0.7128 -0.7644
17165TIP3   OH272909   0.582   6.545   2.575  0.1010  0.0279  0.4858
17165TIP3    H172910   0.598   6.466   2.523 -0.9240  0.4894 -0.5583
17165TIP3    H272911   0.523   6.516   2.645  0.9180 -0.4363  1.0028
17166TIP3   OH272912   4.126   0.031  13.777  0.2057 -0.3885  0.3069
17166TIP3    H172913   4.126   0.043  13.682 -1.0459  2.2730  0.5551
17166TIP3    H272914   4.038   0.054  13.804  1.1268  1.0484  2.3228
17167TIP3   OH272915   0.279   3.260   5.878 -0.1889  0.1223 -0.0969
17167TIP3    H172916   0.192   3.288   5.849 -0.3804  0.6687  0.9323
17167TIP3    H272917   0.332   3.260   5.799 -1.1561 -0.3720 -0.7770
17168TIP3   OH272918   0.360   0.982  12.382 -0.2584  0.0364 -0.2200
17168TIP3    H172919   0.438   0.946  12.340 -0.3325  0.3613 -0.6515
17168TIP3    H272920   0.288   0.958  12.323 -1.1448 -3.7353  2.0607
17169TIP3   OH272921   2.115   1.341  14.953  0.3981 -0.2471  0.4394
17169TIP3    H172922   2.109   1.292  14.871  1.8344 -1.9643  1.3076
17169TIP3    H272923   2.041   1.309  15.004 -0.1683  0.4117  0.0493
17170TIP3   OH272924   3.165   5.066  13.010 -0.5211  0.0074  0.3443
17170TIP3    H172925   3.229   4.994  13.011 -0.4251  0.0024  2.9455
17170TIP3    H272926   3.114   5.052  12.931  1.1686 -1.3952 -0.5732
17171TIP3   OH272927   4.689   6.487   3.184  0.6311 -0.0772 -0.3283
17171TIP3    H172928   4.708   6.555   3.120  0.3152 -0.7110 -1.1146
17171TIP3    H272929   4.773   6.442   3.198  0.6932  0.0438 -0.3117
17172TIP3   OH272930   0.233   6.536   0.744  0.1987 -0.4036 -0.1464
17172TIP3    H172931   0.193   6.619   0.717  2.1330  0.0760 -1.7868
17172TIP3    H272932   0.207   6.526   0.835 -0.8044  1.5669 -0.1426
17173TIP3   OH272933   1.175   5.449   0.342  0.3136 -0.3530 -0.1527
17173TIP3    H172934   1.112   5.520   0.337 -0.6697 -1.1675  0.2134
17173TIP3    H272935   1.220   5.451   0.257  0.2158  0.6243 -0.1849
17174TIP3   OH272936   4.885   0.284  15.335 -0.0607  0.7012  0.4992
17174TIP3    H172937   4.822   0.232  15.384 -0.1170 -1.1750 -1.3878
17174TIP3    H272938   4.863   0.268  15.243  1.4012  2.2695 -0.1917
17175TIP3   OH272939   0.700   4.626  11.034 -0.3427  0.0269  0.0025
17175TIP3    H172940   0.699   4.569  10.957 -1.6441 -0.8340  0.6159
17175TIP3    H272941   0.690   4.714  10.998  1.0183 -0.1491 -0.9152
17176TIP3   OH272942   6.624   6.747   0.249  0.0866 -0.0774  0.2354
17176TIP3    H172943   6.675   6.672   0.279 -0.7201 -1.6276 -1.9553
17176TIP3    H272944   6.682   6.794   0.189  0.2948  0.5693  0.9288
17177TIP3   OH272945   6.264   1.909   5.234 -0.5565  0.0698 -0.1338
17177TIP3    H172946   6.322   1.837   5.259  1.3239  1.3019 -0.6881
17177TIP3    H272947   6.256   1.899   5.139 -0.0679  0.7196 -0.2479
17178TIP3   OH272948   0.844   0.955  16.873 -0.8320 -0.0066  0.1724
17178TIP3    H172949   0.858   0.975  16.781  0.2910  0.0100  0.3212
17178TIP3    H272950   0.895   0.875  16.888 -0.9982 -0.0032  0.7793
17179TIP3   OH272951   6.405   0.834   2.849 -0.4127 -0.2695 -0.2295
17179TIP3    H172952   6.477   0.847   2.787 -0.4324 -1.5210 -0.5471
17179TIP3    H272953   6.380   0.742   2.838 -1.2127 -0.1975  0.7896
17180TIP3   OH272954   6.377   5.103  14.594  0.3954  0.4782 -0.1689
17180TIP3    H172955   6.438   5.124  14.523  0.3880  0.3222 -0.2234
17180TIP3    H272956   6.427   5.116  14.674  0.8408 -0.6589 -0.2346
17181TIP3   OH272957   3.551   5.188  15.242 -0.4389 -0.2651  0.1193
17181TIP3    H172958   3.508   5.115  15.285 -0.9447 -0.1067 -0.1186
17181TIP3    H272959   3.505   5.198  15.159  0.1085 -0.1512 -0.1777
17182TIP3   OH272960   4.316   6.281  14.997 -0.7031 -0.5686  0.2979
17182TIP3    H172961   4.341   6.236  14.916  1.5022 -1.2978  1.2926
17182TIP3    H272962   4.232   6.243  15.021  0.1298 -2.7182  0.0169
17183TIP3   OH272963   5.170   1.733   1.803 -0.1495 -0.0220  0.1942
17183TIP3    H172964   5.241   1.728   1.867  0.9250  0.0148 -0.9513
17183TIP3    H272965   5.090   1.722   1.855  0.7087 -0.5915  1.4481
17184TIP3   OH272966   6.635   4.485  15.501 -0.1053 -0.0685  0.2304
17184TIP3    H172967   6.639   4.398  15.463  2.5682  0.2088 -0.3430
17184TIP3    H272968   6.644   4.544  15.427 -1.0461  0.6948  0.7038
17185TIP3   OH272969   6.078   6.508   6.314 -0.0140 -0.2858 -0.5208
17185TIP3    H172970   6.085   6.602   6.299  1.1023 -0.6747 -2.8239
17185TIP3    H272971   5.987   6.494   6.340 -0.9317  1.1278 -2.7185
17186TIP3   OH272972   0.335   5.226   5.078  0.4374 -0.7049  0.2512
17186TIP3    H172973   0.422   5.228   5.119  1.0151 -0.0750 -0.9579
17186TIP3    H272974   0.349   5.263   4.991 -1.1499 -0.1170  0.2213
17187TIP3   OH272975   3.430   2.839   3.585 -0.5112 -0.8892 -1.0131
17187TIP3    H172976   3.355   2.859   3.641  0.3746 -0.7033  0.1475
17187TIP3    H272977   3.422   2.746   3.566 -1.8787 -0.5648 -2.2237
17188TIP3   OH272978   6.501   2.122  14.257 -0.0628  0.5198  0.5162
17188TIP3    H172979   6.456   2.038  14.261 -1.2631  0.8610 -2.6807
17188TIP3    H272980   6.584   2.108  14.304 -1.4060 -1.5434  2.4569
17189TIP3   OH272981   6.032   3.824   0.155  0.5349  0.1581 -0.0812
17189TIP3    H172982   6.029   3.785   0.242 -0.2823 -0.6733 -0.4720
17189TIP3    H272983   6.015   3.917   0.170  1.9319  0.3017  0.7953
17190TIP3   OH272984   1.282   5.672  15.491  0.0824 -0.6619 -0.0974
17190TIP3    H172985   1.321   5.705  15.410 -0.4878  2.0179  0.5969
17190TIP3    H272986   1.329   5.718  15.560 -0.3248 -1.9093  1.0469
17191TIP3   OH272987   5.626   6.151   1.733  0.4636  0.6002 -0.3684
17191TIP3    H172988   5.565   6.225   1.726  1.2264  1.4345  1.1812
17191TIP3    H272989   5.657   6.155   1.824  0.2775 -1.8384 -0.1294
17192TIP3   OH272990   1.383   3.068   5.837  0.0277  0.0929 -0.7186
17192TIP3    H172991   1.444   2.995   5.833  1.2980  1.1728 -2.9045
17192TIP3    H272992   1.378   3.090   5.930  1.5273 -1.2133 -0.2937
17193TIP3   OH272993   4.556   5.953  16.520  0.5908  0.0959 -0.1773
17193TIP3    H172994   4.564   5.996  16.605  0.1603  1.2684 -0.6981
17193TIP3    H272995   4.634   5.899  16.512  1.4213  1.1879  0.3048
17194TIP3   OH272996   4.724   3.125  15.807  0.3994 -0.2444  0.2956
17194TIP3    H172997   4.719   3.210  15.849 -0.6054  0.1674 -0.6240
17194TIP3    H272998   4.786   3.138  15.735  1.0192 -0.5738  0.7550
17195TIP3   OH272999   6.393   0.335   2.178 -0.4550  0.0033 -0.1066
17195TIP3    H173000   6.440   0.260   2.214 -0.4300  0.3165  0.5161
17195TIP3    H273001   6.352   0.300   2.098  0.0802 -0.5034 -0.1725
17196TIP3   OH273002   3.894   2.146  10.697  0.4661  0.3584  0.6357
17196TIP3    H173003   3.865   2.075  10.640  1.8555  0.5314 -0.3129
17196TIP3    H273004   3.812   2.188  10.725 -0.3312 -1.0383  0.4930
17197TIP3   OH273005   4.739   6.099  12.537 -0.7368 -0.0110 -0.8063
17197TIP3    H173006   4.819   6.057  12.505  0.0361  1.4910 -0.9727
17197TIP3    H273007   4.669   6.064  12.482 -0.3088 -1.8532 -0.2232
17198TIP3   OH273008   5.965   6.645   1.550  0.1206 -0.1200  0.4204
17198TIP3    H173009   6.000   6.630   1.462 -0.6720  2.6505 -0.4694
17198TIP3    H273010   6.043   6.658   1.605  0.5919  0.4742 -0.3691
17199TIP3   OH273011   2.214   0.079  14.863 -0.0268 -0.3264 -0.1277
17199TIP3    H173012   2.276   0.148  14.881 -0.4136 -0.3424  1.3803
17199TIP3    H273013   2.138   0.123  14.825 -1.0030  0.3968  2.4647
17200TIP3   OH273014   3.367   2.750   2.816  0.1679 -0.0288  0.3223
17200TIP3    H173015   3.431   2.819   2.837  0.1997  0.3405 -0.8903
17200TIP3    H273016   3.332   2.777   2.731 -2.1400  0.1662  1.2784
17201TIP3   OH273017   0.742   0.016  13.795 -0.1674 -0.2832  0.2440
17201TIP3    H173018   0.705  -0.004  13.710 -2.1102 -1.0447  1.2019
17201TIP3    H273019   0.763  -0.069  13.833 -1.2162 -0.1145  1.2784
17202TIP3   OH273020   0.812   4.867  13.937  0.2616  0.1873 -0.1640
17202TIP3    H173021   0.744   4.804  13.962 -0.6330  0.2796 -2.1342
17202TIP3    H273022   0.849   4.830  13.856  1.2810  1.0822 -0.1293
17203TIP3   OH273023   5.340   1.532   0.142 -0.5608 -1.1254 -0.1150
17203TIP3    H173024   5.326   1.535   0.237 -1.2276 -1.4075 -0.2014
17203TIP3    H273025   5.414   1.472   0.130 -1.4757 -2.3329  0.1296
17204TIP3   OH273026   0.907   0.012   5.753  0.4945 -0.5739  0.1880
17204TIP3    H173027   0.950   0.009   5.667  2.1991 -1.3484  1.0223
17204TIP3    H273028   0.924  -0.074   5.791 -1.4869 -0.7602  0.7538
17205TIP3   OH273029   1.320   6.356   0.354 -0.4574 -0.3878  0.4275
17205TIP3    H173030   1.279   6.281   0.311  0.5512 -0.8662  0.2804
17205TIP3    H273031   1.375   6.318   0.422  1.6061  0.0490 -0.9092
17206TIP3   OH273032   2.849   1.712   6.407  0.1261 -0.4236  0.5891
17206TIP3    H173033   2.915   1.718   6.476 -0.6586  0.5704  1.2824
17206TIP3    H273034   2.899   1.719   6.325  0.9837 -0.8787  1.0596
17207TIP3   OH273035   2.419   4.189  16.131 -0.4496 -0.1673 -0.6022
17207TIP3    H173036   2.351   4.199  16.198 -2.1223  1.7716 -2.4448
17207TIP3    H273037   2.403   4.103  16.093 -1.0058 -0.2917 -0.1049
17208TIP3   OH273038   0.286   4.469   2.656  0.3211 -0.3602 -0.1923
17208TIP3    H173039   0.330   4.389   2.685  1.2406  0.2569  0.1288
17208TIP3    H273040   0.263   4.515   2.737  0.6507  0.1576 -0.3862
17209TIP3   OH273041   3.981   0.675   2.838  0.3760 -0.2178 -0.1152
17209TIP3    H173042   4.058   0.620   2.853 -0.2779 -0.5237  2.6826
17209TIP3    H273043   3.935   0.633   2.765  1.3688 -1.7056  0.0651
17210TIP3   OH273044   0.005   6.085  13.727  0.2195 -0.4212  0.1380
17210TIP3    H173045  -0.055   6.114  13.658  2.6463  0.5464 -1.7179
17210TIP3    H273046   0.084   6.059  13.680  1.8198 -0.1810  2.5344
17211TIP3   OH273047   4.930   5.703   3.302  0.1203  1.0750  0.3929
17211TIP3    H173048   4.975   5.788   3.301  0.8056  0.7337  1.0489
17211TIP3    H273049   4.947   5.666   3.216  1.6973  0.6652  0.8511
17212TIP3   OH273050   4.885   0.928   4.495  0.0056 -0.1842 -0.3575
17212TIP3    H173051   4.937   0.903   4.419  1.9525  0.2792  0.7650
17212TIP3    H273052   4.884   0.850   4.550  0.1034  0.0384 -0.0417
17213TIP3   OH273053   3.282   4.917   2.238  0.8069 -0.3127 -0.3209
17213TIP3    H173054   3.239   4.976   2.175 -1.3586 -1.3422  0.1094
17213TIP3    H273055   3.356   4.880   2.189  0.6464  0.7752 -1.4364
17214TIP3   OH273056   2.733   0.067   2.605 -0.1818  0.1749 -0.3738
17214TIP3    H173057   2.808   0.120   2.632 -0.2480 -0.3178  0.8523
17214TIP3    H273058   2.723   0.085   2.511  0.6146  1.2897 -0.2637
17215TIP3   OH273059   6.524   2.333   0.821  0.0575  0.9453 -0.3846
17215TIP3    H173060   6.553   2.421   0.797  1.0737  1.2259  1.6751
17215TIP3    H273061   6.557   2.320   0.910 -2.3763 -0.4811  0.4120
17216TIP3   OH273062   3.414   0.547   3.068  0.1755  0.1312  0.8423
17216TIP3    H173063   3.483   0.536   3.133  0.5801 -0.0326  0.3895
17216TIP3    H273064   3.387   0.457   3.046  0.2831  0.1742  0.5290
17217TIP3   OH273065   5.571   4.444   4.247  0.3477  0.3332  0.4829
17217TIP3    H173066   5.663   4.441   4.274  0.2280  0.0027  0.8771
17217TIP3    H273067   5.522   4.453   4.329 -0.0832 -1.6772  0.4962
17218TIP3   OH273068   4.985   5.680   1.618 -0.0824 -0.1857 -0.1792
17218TIP3    H173069   4.979   5.604   1.560 -1.0762 -0.7508  0.6224
17218TIP3    H273070   4.992   5.755   1.560  0.0366 -0.8268 -1.0066
17219TIP3   OH273071   3.013   3.040   5.190 -0.2471 -0.2165  0.0558
17219TIP3    H173072   2.971   3.078   5.114  1.9877 -0.3068 -1.3180
17219TIP3    H273073   2.984   2.949   5.191 -0.7689 -0.0559 -0.3132
17220TIP3   OH273074   3.188   0.497   5.350  0.5461  0.4293  0.4301
17220TIP3    H173075   3.232   0.563   5.297 -0.8026  1.4993  0.5977
17220TIP3    H273076   3.105   0.537   5.376 -0.6029 -1.5401  0.0384
17221TIP3   OH273077   1.136   5.661  12.703  0.7402 -0.5807 -0.1989
17221TIP3    H173078   1.074   5.594  12.732  1.3061 -1.6899 -1.4505
17221TIP3    H273079   1.202   5.665  12.771  1.3439 -2.1913 -0.6449
17222TIP3   OH273080   6.632   4.638   1.489  0.1398 -0.7450  0.5395
17222TIP3    H173081   6.586   4.716   1.520 -1.4015 -0.9833 -0.9969
17222TIP3    H273082   6.725   4.661   1.497 -0.2653  0.8730  1.0568
17223TIP3   OH273083   1.857   6.387  16.026 -0.0803 -0.4579  0.6331
17223TIP3    H173084   1.772   6.343  16.027  0.3104 -1.2952  2.5532
17223TIP3    H273085   1.840   6.472  15.985 -1.3545 -1.4398 -0.9813
17224TIP3   OH273086   6.344   1.119   4.145  0.3065 -0.4405 -0.5715
17224TIP3    H173087   6.252   1.135   4.163  0.0448  0.3658 -2.4094
17224TIP3    H273088   6.366   1.042   4.198 -1.1303 -0.0359  0.6645
17225TIP3   OH273089   6.413   0.627  16.724 -0.3392  0.6939  0.2783
17225TIP3    H173090   6.404   0.683  16.647  0.6055  1.6911  0.8574
17225TIP3    H273091   6.499   0.649  16.759  0.1248 -1.2285  0.4755
17226TIP3   OH273092   0.553   3.001  14.769  0.1594 -0.0755 -0.0676
17226TIP3    H173093   0.460   3.024  14.770  0.3154  0.5367  0.3620
17226TIP3    H273094   0.558   2.926  14.709 -0.4685  0.4773 -0.8353
17227TIP3   OH273095   1.044   3.053   1.127  0.1024 -0.0705 -0.1184
17227TIP3    H173096   1.060   3.098   1.211  1.8094  0.6572 -0.7682
17227TIP3    H273097   1.037   2.961   1.150  3.0904 -0.2282  0.6714
17228TIP3   OH273098   2.556   0.934  15.630 -0.0835 -0.1312 -0.4887
17228TIP3    H173099   2.572   0.948  15.724 -0.2998 -0.3671 -0.4139
17228TIP3    H273100   2.538   0.840  15.623 -1.7197  0.1543 -0.5013
17229TIP3   OH273101   2.000   5.292   4.599 -0.0476 -0.5238 -0.5731
17229TIP3    H173102   1.931   5.319   4.660  0.4692  0.2106 -0.3005
17229TIP3    H273103   1.998   5.196   4.602 -1.3570 -0.5266 -0.9257
17230TIP3   OH273104   4.375   1.827  15.427  0.4684  0.5840  0.1762
17230TIP3    H173105   4.347   1.850  15.516  0.3781  0.1575  0.2645
17230TIP3    H273106   4.338   1.894  15.371  1.4724  1.5106  0.5806
17231TIP3   OH273107   3.096   4.777  16.177  0.4164  0.1424  0.0489
17231TIP3    H173108   3.022   4.767  16.117  1.3465 -0.9032 -0.9487
17231TIP3    H273109   3.110   4.872  16.181 -0.7354  0.3388 -0.0097
17232TIP3   OH273110   2.283   2.968  15.106  0.5814  0.6381 -0.2856
17232TIP3    H173111   2.197   3.000  15.134 -0.8139 -1.0675 -2.3280
17232TIP3    H273112   2.311   3.030  15.039  1.3536  1.6030  0.8764
17233TIP3   OH273113   2.070   5.194  15.362  0.7494  0.7953 -0.7122
17233TIP3    H173114   2.158   5.161  15.342  0.8833  0.1111  0.8410
17233TIP3    H273115   2.031   5.211  15.276  1.9751 -0.0095 -1.4700
17234TIP3   OH273116   6.406   5.236  13.610  0.2711 -0.2571 -0.2744
17234TIP3    H173117   6.482   5.190  13.573  0.3674  0.6540 -1.2399
17234TIP3    H273118   6.339   5.229  13.543  1.0375  3.0252 -1.5686
17235TIP3   OH273119   6.524   1.376   3.261 -0.2629  0.2439  1.0189
17235TIP3    H173120   6.523   1.466   3.228  1.6468 -0.1293 -0.1969
17235TIP3    H273121   6.432   1.348   3.256 -0.3583  0.7723 -2.5622
17236TIP3   OH273122   4.662   5.695   4.196  0.3476  0.2112  0.8345
17236TIP3    H173123   4.738   5.684   4.254 -0.2764 -1.6006  1.3646
17236TIP3    H273124   4.697   5.742   4.120  2.3803 -1.8222  0.4107
17237TIP3   OH273125   1.611   0.759   6.189 -0.3545  0.3628  0.2629
17237TIP3    H173126   1.645   0.788   6.273 -0.5885 -1.2525  0.9494
17237TIP3    H273127   1.686   0.716   6.146 -0.8183 -0.9304  0.6923
17238TIP3   OH273128   1.937   0.936   4.709  0.6828  0.4158 -0.3113
17238TIP3    H173129   1.939   0.988   4.789  1.6917  0.2198 -0.1943
17238TIP3    H273130   1.878   0.983   4.651 -1.4130 -0.3241  1.1191
17239TIP3   OH273131   4.048   1.266   0.667  0.0522 -0.2711  0.5568
17239TIP3    H173132   4.144   1.259   0.671  0.3049  1.4280 -0.8594
17239TIP3    H273133   4.023   1.207   0.596  0.2724  0.4704 -0.1632
17240TIP3   OH273134   3.516   1.661   5.664  0.7599 -0.3155 -0.0421
17240TIP3    H173135   3.533   1.730   5.727  0.1968 -0.0633 -0.1603
17240TIP3    H273136   3.424   1.638   5.678  0.5967 -0.1691 -0.8504
17241TIP3   OH273137   3.027   6.307  12.637  0.4571 -0.2575 -0.3280
17241TIP3    H173138   3.104   6.361  12.657  0.9377 -0.2678 -1.9891
17241TIP3    H273139   3.062   6.231  12.591 -0.3598 -1.3156  0.7347
17242TIP3   OH273140   4.078   1.888  12.931 -0.0211  0.2145 -0.7819
17242TIP3    H173141   4.063   1.930  13.016  2.7490  0.5951 -0.3860
17242TIP3    H273142   4.162   1.845  12.941 -0.2258 -0.8099 -2.9750
17243TIP3   OH273143   1.897   6.387  14.077  0.6471  0.1593  0.0456
17243TIP3    H173144   1.987   6.390  14.046 -0.2432  1.6644 -2.7254
17243TIP3    H273145   1.860   6.308  14.037 -0.0045  1.0925 -1.2431
17244TIP3   OH273146   1.847   5.879  13.698  0.0254  0.1184  0.1961
17244TIP3    H173147   1.868   5.906  13.609 -2.2870  1.1937 -0.0929
17244TIP3    H273148   1.908   5.929  13.753  1.3782 -0.4463 -0.7251
17245TIP3   OH273149   2.730   5.852  13.137 -0.1287  0.7668  0.2432
17245TIP3    H173150   2.789   5.885  13.205  1.8567 -0.2884 -0.8456
17245TIP3    H273151   2.691   5.931  13.099  0.6428  1.5226  0.9716
17246TIP3   OH273152   6.086   2.588  16.367  0.4827 -0.5388  0.2683
17246TIP3    H173153   6.056   2.573  16.457 -2.4680  2.3427 -0.0495
17246TIP3    H273154   6.167   2.637  16.377 -0.0129  0.0959  1.4172
17247TIP3   OH273155   6.236   1.926   4.945  0.9442 -0.0680  0.0619
17247TIP3    H173156   6.151   1.964   4.966  0.5897 -1.4626  1.3806
17247TIP3    H273157   6.231   1.906   4.852 -0.3914 -0.5907  0.2187
17248TIP3   OH273158   0.592   6.488  16.814  0.5218 -0.7169 -0.0228
17248TIP3    H173159   0.610   6.582  16.824 -2.1117 -0.0454 -0.7609
17248TIP3    H273160   0.631   6.466  16.729 -1.0659  0.4355 -1.1336
17249TIP3   OH273161   6.238   1.498  10.260 -0.1654  0.6377  0.0063
17249TIP3    H173162   6.250   1.409  10.293  0.1989  0.0951 -1.4856
17249TIP3    H273163   6.152   1.525  10.291 -0.2065 -0.1709  0.6158
17250TIP3   OH273164   3.769   3.821  13.053 -0.4098  0.0233  0.2545
17250TIP3    H173165   3.835   3.808  12.985  0.4086 -0.6355  1.1579
17250TIP3    H273166   3.757   3.735  13.092 -0.8710  0.3971  0.9536
17251TIP3   OH273167   2.218   3.299   1.791  0.3243 -0.5563 -0.0455
17251TIP3    H173168   2.188   3.388   1.811 -1.4721 -1.0137 -0.5376
17251TIP3    H273169   2.139   3.246   1.791  0.9736 -1.6674 -2.4905
17252TIP3   OH273170   2.005   1.955   0.160  0.2566 -0.5619 -0.0627
17252TIP3    H173171   1.984   2.037   0.116  1.6308 -0.3973 -0.4897
17252TIP3    H273172   1.938   1.894   0.131 -0.9847  0.4861  0.5386
17253TIP3   OH273173   5.558   5.759   0.354 -0.2737  0.1015  0.1250
17253TIP3    H173174   5.527   5.682   0.401  0.1785 -0.9736 -1.2595
17253TIP3    H273175   5.652   5.744   0.343  0.1723  1.7127  1.3479
17254TIP3   OH273176   3.391   0.289   2.968 -0.3622  0.4176  0.1677
17254TIP3    H173177   3.330   0.244   2.910 -0.0630  0.5545 -0.2604
17254TIP3    H273178   3.464   0.227   2.979 -1.0994 -0.2429  1.6429
17255TIP3   OH273179   3.851   5.160  10.883 -0.3775  0.0270 -0.1194
17255TIP3    H173180   3.909   5.089  10.909 -0.4064 -0.4232 -1.2248
17255TIP3    H273181   3.902   5.240  10.897 -0.2148 -0.2342  0.7813
17256TIP3   OH273182   5.930   3.928   3.153 -0.4188  0.2795 -0.4358
17256TIP3    H173183   5.917   3.867   3.080 -0.2021  0.2519 -0.4546
17256TIP3    H273184   5.844   3.936   3.194 -0.6730  0.7411 -1.0414
17257TIP3   OH273185   0.925   1.071   1.669  0.4468  0.0691 -0.1712
17257TIP3    H173186   0.924   1.116   1.753 -0.8189  1.4790 -0.8995
17257TIP3    H273187   0.961   1.135   1.607 -0.7913 -0.0934 -1.1134
17258TIP3   OH273188   5.714   5.149  10.752 -0.0313  0.0488  0.0587
17258TIP3    H173189   5.740   5.240  10.740  0.4664 -0.0043  0.7060
17258TIP3    H273190   5.633   5.154  10.803  1.9571  0.0750  3.5146
17259TIP3   OH273191   6.708   1.018  12.563 -0.2745  0.3741 -0.1492
17259TIP3    H173192   6.684   1.082  12.496 -1.9152  2.0121  1.8164
17259TIP3    H273193   6.666   0.937  12.536 -1.7019  1.2443 -0.6926
17260TIP3   OH273194   2.317   1.036   1.559 -0.0228  0.4454 -0.3597
17260TIP3    H173195   2.401   1.082   1.555 -0.1878  0.9855  1.5195
17260TIP3    H273196   2.338   0.946   1.535  1.1806  0.4796  0.4801
17261TIP3   OH273197   5.396   3.285   5.035 -0.2199  0.0198  0.0117
17261TIP3    H173198   5.315   3.234   5.038 -0.6285  0.6592  0.0838
17261TIP3    H273199   5.458   3.236   5.089 -0.7319 -0.1829  0.4179
17262TIP3   OH273200   0.662   0.542  15.048 -0.4591 -0.1033 -0.4644
17262TIP3    H173201   0.598   0.500  14.991 -1.6265 -0.3983  0.9947
17262TIP3    H273202   0.611   0.570  15.124  1.0395  0.2713  0.4351
17263TIP3   OH273203   1.800   5.232   4.317 -0.2755  0.6363 -0.1515
17263TIP3    H173204   1.893   5.221   4.296 -0.5929  1.3112 -2.1382
17263TIP3    H273205   1.793   5.321   4.350 -0.2637  0.6722 -0.2464
17264TIP3   OH273206   1.859   3.812  15.933 -0.1056 -0.7634 -0.2355
17264TIP3    H173207   1.891   3.770  15.853  3.9131  2.0748 -0.3785
17264TIP3    H273208   1.782   3.862  15.904  0.9512 -0.2093 -2.2592
17265TIP3   OH273209   4.205   4.002   4.158 -0.3903  0.3917  0.2729
17265TIP3    H173210   4.154   4.017   4.238  1.7467 -0.6640  1.9636
17265TIP3    H273211   4.225   3.908   4.160  0.5940  0.5561 -0.9543
17266TIP3   OH273212   4.982   1.462   1.519  0.4896 -0.5412 -1.0216
17266TIP3    H173213   5.040   1.387   1.505  2.1943  0.2676  1.1110
17266TIP3    H273214   5.040   1.532   1.549 -1.5124  0.4948  0.7220
17267TIP3   OH273215   5.183   5.228   0.771 -0.0832  0.9656  0.0321
17267TIP3    H173216   5.192   5.234   0.676 -0.8819 -0.4675 -0.1682
17267TIP3    H273217   5.255   5.281   0.805  0.4030  1.2617 -1.3708
17268TIP3   OH273218   2.235   1.072  15.776 -0.2178 -0.2603  0.2176
17268TIP3    H173219   2.242   0.988  15.822 -0.2287  0.8783  2.4246
17268TIP3    H273220   2.170   1.122  15.827 -2.0135  0.2823 -2.4151
17269TIP3   OH273221   3.333   2.453   5.526 -0.4686  0.7474  0.1280
17269TIP3    H173222   3.321   2.483   5.436 -0.9378  1.3559  0.3888
17269TIP3    H273223   3.406   2.506   5.560  0.2016  0.0068 -0.1151
17270TIP3   OH273224   4.953   2.507   2.632  0.3607  0.1304 -0.2948
17270TIP3    H173225   4.882   2.565   2.658 -0.8573 -1.5838  0.4592
17270TIP3    H273226   5.011   2.504   2.709 -0.2549 -0.5915  0.1614
17271TIP3   OH273227   0.791   0.458   3.771  0.0539  0.4233  0.3889
17271TIP3    H173228   0.756   0.369   3.778  1.6392 -0.2593  0.1650
17271TIP3    H273229   0.732   0.502   3.710 -0.1340 -0.8188 -0.3674
17272TIP3   OH273230   6.600   3.159   1.613 -0.2260 -0.2553 -0.0822
17272TIP3    H173231   6.522   3.136   1.663 -0.2834 -0.6312 -0.3418
17272TIP3    H273232   6.573   3.151   1.522 -0.1827  0.6356 -0.1772
17273TIP3   OH273233   1.810   0.507  16.731  0.0851 -0.8231 -0.0390
17273TIP3    H173234   1.874   0.465  16.672  0.5692  0.7488 -0.6798
17273TIP3    H273235   1.815   0.456  16.811  0.9939 -1.7047 -0.6235
17274TIP3   OH273236   2.609   0.007   3.982 -0.1474  0.1434  0.5617
17274TIP3    H173237   2.641  -0.077   3.949 -0.5114 -0.4791  1.7362
17274TIP3    H273238   2.684   0.047   4.025  0.4768  1.2030 -1.3907
17275TIP3   OH273239   6.656   3.655   1.329 -0.0551 -0.1866  0.0526
17275TIP3    H173240   6.582   3.684   1.276 -0.8487  1.0117  1.7076
17275TIP3    H273241   6.625   3.575   1.372 -0.7219  0.7005  1.3005
17276TIP3   OH273242   0.695   0.938   1.107  0.1055 -0.2548 -0.0003
17276TIP3    H173243   0.622   0.985   1.147  1.9279  1.3123  1.7069
17276TIP3    H273244   0.679   0.946   1.013 -2.5465 -1.1127  0.2844
17277TIP3   OH273245   0.399   0.247  11.289 -0.0772 -0.4522  0.0513
17277TIP3    H173246   0.427   0.202  11.209 -0.1626  0.6731 -0.6301
17277TIP3    H273247   0.380   0.337  11.261 -1.3006 -0.3537  1.1043
17278TIP3   OH273248   5.553   1.081  14.875 -0.4010 -0.4945  0.0569
17278TIP3    H173249   5.590   1.122  14.953 -2.3529  0.4374  0.5622
17278TIP3    H273250   5.528   0.993  14.902  0.2371 -0.6798  0.0604
17279TIP3   OH273251   0.234   4.744   1.235  0.5363 -0.5212 -0.2474
17279TIP3    H173252   0.219   4.661   1.280 -1.9993  0.5769  1.0897
17279TIP3    H273253   0.283   4.797   1.298 -0.4598  0.0065  0.0970
17280TIP3   OH273254   5.507   1.652  12.962  0.5498  0.4615  0.1433
17280TIP3    H173255   5.568   1.686  13.028 -1.0202  0.7603  1.5083
17280TIP3    H273256   5.486   1.564  12.992 -0.0137  0.5156 -0.0816
17281TIP3   OH273257   3.333   1.027  12.134  0.3718 -0.4314 -0.1052
17281TIP3    H173258   3.285   0.966  12.077 -0.3587 -1.0197  1.0969
17281TIP3    H273259   3.356   0.975  12.211  1.2244  0.3789  0.1994
17282TIP3   OH273260   3.845   2.511   2.499  0.0363 -0.3311 -0.1422
17282TIP3    H173261   3.773   2.544   2.553 -0.3398  1.6876 -1.7627
17282TIP3    H273262   3.916   2.495   2.562 -0.8620  0.4884  1.1338
17283TIP3   OH273263   4.983   3.824   2.410  0.1100 -0.0290 -0.0511
17283TIP3    H173264   5.027   3.758   2.357 -0.7028 -0.2450 -0.4714
17283TIP3    H273265   5.004   3.907   2.367  1.3632  0.0341  0.6366
17284TIP3   OH273266   0.394   4.737  13.014 -0.4641 -0.1324 -0.3626
17284TIP3    H173267   0.471   4.723  12.959 -1.0545  0.3469 -1.3350
17284TIP3    H273268   0.428   4.781  13.092  0.3625 -0.6920 -0.3905
17285TIP3   OH273269   4.940   3.228  11.363  0.5801  0.3590  0.5555
17285TIP3    H173270   4.917   3.287  11.291 -1.9316 -2.0733 -0.8184
17285TIP3    H273271   4.857   3.212  11.408  1.4362 -1.0271  1.7033
17286TIP3   OH273272   6.428   2.847  15.443  0.2144  0.2349  0.6289
17286TIP3    H173273   6.451   2.847  15.350  0.0732 -0.2446  0.5931
17286TIP3    H273274   6.450   2.935  15.473 -0.4750  0.6438 -0.0375
17287TIP3   OH273275   3.037   2.359  13.371 -0.4360 -0.4212 -0.3741
17287TIP3    H173276   3.001   2.288  13.319 -0.8125 -0.6199  0.1427
17287TIP3    H273277   2.960   2.401  13.411 -0.3208  0.9914 -1.5579
17288TIP3   OH273278   5.651   3.003  14.401 -0.5716  0.0126 -0.4217
17288TIP3    H173279   5.612   2.938  14.461  0.0674  1.6901  1.9471
17288TIP3    H273280   5.734   3.026  14.442 -0.3073  1.5850 -1.7613
17289TIP3   OH273281   5.845   1.760   4.062 -0.1754 -0.4655 -0.4847
17289TIP3    H173282   5.789   1.712   4.001 -0.7665  1.3190 -1.3990
17289TIP3    H273283   5.845   1.850   4.030  1.9550 -0.0838  0.4296
17290TIP3   OH273284   0.326   6.758   3.630 -0.4186 -0.0553  0.4055
17290TIP3    H173285   0.368   6.821   3.689 -3.1015  2.1370  0.2000
17290TIP3    H273286   0.236   6.750   3.663 -1.1942 -0.9389 -1.7087
17291TIP3   OH273287   3.861   0.664  11.417 -0.0566  0.2460 -0.1568
17291TIP3    H173288   3.915   0.682  11.494 -1.3772  1.8440  0.4537
17291TIP3    H273289   3.904   0.589  11.375  1.7656  0.5234  1.0830
17292TIP3   OH273290   4.474   2.357   1.720 -0.1077  0.8062 -0.0000
17292TIP3    H173291   4.436   2.445   1.717  0.9203  1.3482  1.6773
17292TIP3    H273292   4.567   2.372   1.739  0.6120 -0.5698 -2.1137
17293TIP3   OH273293   5.585   5.136  16.303 -0.3822 -0.0349 -0.0334
17293TIP3    H173294   5.543   5.063  16.349 -0.7497  0.5475  0.5889
17293TIP3    H273295   5.515   5.202  16.296  0.2995  0.7875  0.6420
17294TIP3   OH273296   6.348   5.581  14.482  0.3303 -0.0052  0.3891
17294TIP3    H173297   6.369   5.598  14.574  1.1203  0.3617  0.1524
17294TIP3    H273298   6.279   5.644  14.461  0.9571  0.7105  0.4196
17295TIP3   OH273299   0.189   1.384   1.901  0.3792  0.0274  0.3654
17295TIP3    H173300   0.258   1.320   1.881 -1.1135 -1.9047  1.0138
17295TIP3    H273301   0.189   1.390   1.996 -1.7725 -1.7886  0.5550
17296TIP3   OH273302   2.481   4.173   4.242 -0.4257 -0.3098  0.5739
17296TIP3    H173303   2.470   4.106   4.310  1.7440 -1.1130  0.2284
17296TIP3    H273304   2.528   4.128   4.172  0.7617  1.4688  0.1624
17297TIP3   OH273305   5.809   0.079  12.558  0.1834  0.0203  0.3414
17297TIP3    H173306   5.898   0.116  12.557  0.1672  0.1538 -1.6207
17297TIP3    H273307   5.822  -0.013  12.537  0.0178 -0.5617  2.6060
17298TIP3   OH273308   5.959   0.320   0.544 -0.2292 -0.2115  0.0607
17298TIP3    H173309   5.948   0.415   0.540  1.9261  0.1090  0.2495
17298TIP3    H273310   6.033   0.306   0.604 -1.9819 -2.1858  1.9442
17299TIP3   OH273311   4.033   6.543   1.071 -0.1558  0.1409 -0.5316
17299TIP3    H173312   4.055   6.462   1.027  0.9513  0.5159 -0.6884
17299TIP3    H273313   3.998   6.516   1.156  2.0451 -0.4711  0.2342
17300TIP3   OH273314   0.380   5.431   1.509 -0.0010 -0.1769 -0.3588
17300TIP3    H173315   0.334   5.443   1.426  0.1068 -0.7384 -0.5029
17300TIP3    H273316   0.332   5.360   1.552  0.6222 -0.6480 -0.4309
17301TIP3   OH273317   1.943   1.326   5.558 -0.0021 -0.0282  0.1208
17301TIP3    H173318   1.854   1.362   5.562 -0.2060 -0.5659  0.9323
17301TIP3    H273319   1.960   1.313   5.465 -1.1001 -0.6619 -0.0096
17302TIP3   OH273320   4.784   0.385   5.921  0.2501  0.3628 -0.0045
17302TIP3    H173321   4.827   0.413   5.840  0.8649 -2.6102 -0.8080
17302TIP3    H273322   4.692   0.374   5.897  0.0640  1.2904  0.2365
17303TIP3   OH273323   6.778   3.502   2.789 -0.2932 -0.5354 -0.4158
17303TIP3    H173324   6.862   3.464   2.812 -0.3244  0.2530  1.1162
17303TIP3    H273325   6.741   3.442   2.724  0.9805 -1.4338 -0.3416
17304TIP3   OH273326   0.296   3.624   5.852  0.0331  0.6069 -0.3254
17304TIP3    H173327   0.259   3.566   5.919 -0.4286  1.5794  0.2880
17304TIP3    H273328   0.266   3.711   5.877  0.4368  1.0772 -1.4196
17305TIP3   OH273329   1.456   0.358  13.799 -0.7553 -0.6508 -0.9237
17305TIP3    H173330   1.491   0.388  13.883 -2.4963 -1.9754  0.3618
17305TIP3    H273331   1.385   0.419  13.780 -1.5222 -1.3828 -0.4822
17306TIP3   OH273332   1.352   2.077   2.996 -0.3804 -0.0713 -0.1581
17306TIP3    H173333   1.390   2.147   2.943  0.8404 -1.3397 -1.0325
17306TIP3    H273334   1.398   2.083   3.080 -0.8255  0.6216  0.0505
17307TIP3   OH273335   1.369   0.783  13.682 -0.2203  0.1158  0.1214
17307TIP3    H173336   1.345   0.873  13.657  0.0695  0.1556 -0.0166
17307TIP3    H273337   1.465   0.783  13.679 -0.2237 -0.2158  0.0700
17308TIP3   OH273338   4.048   6.474  14.321  0.3681  0.1392 -0.1951
17308TIP3    H173339   4.001   6.539  14.269 -0.3988  0.7181  1.1583
17308TIP3    H273340   4.074   6.521  14.400  0.9199 -0.8759  0.2512
17309TIP3   OH273341   5.573   2.158   3.248 -0.4858 -0.0031  0.1408
17309TIP3    H173342   5.531   2.179   3.164 -0.8082 -1.5008 -0.0990
17309TIP3    H273343   5.603   2.242   3.281 -3.4593  1.1543  0.1973
17310TIP3   OH273344   0.711   4.272   1.102  0.0026  0.5169  0.0081
17310TIP3    H173345   0.729   4.214   1.177 -1.5585  1.6165  1.3011
17310TIP3    H273346   0.702   4.359   1.141 -0.3773  1.1917 -1.5402
17311TIP3   OH273347   3.089   2.202   3.506  0.0050 -0.0568 -0.3022
17311TIP3    H173348   3.057   2.248   3.583  0.1294  1.3861 -1.0523
17311TIP3    H273349   3.069   2.262   3.433  0.1772 -1.2232 -1.3404
17312TIP3   OH273350   1.175   4.466   3.852 -0.0838 -0.5918 -0.5239
17312TIP3    H173351   1.185   4.514   3.770 -1.8345  0.9927  0.1278
17312TIP3    H273352   1.093   4.498   3.889  1.9874  0.9658  3.2699
17313TIP3   OH273353   4.467   1.022   4.250 -0.0518 -0.4212  0.2012
17313TIP3    H173354   4.464   0.956   4.318 -0.5024 -0.1148  0.4891
17313TIP3    H273355   4.380   1.020   4.211  0.2711 -0.7443 -0.5143
17314TIP3   OH273356   0.943   3.669  14.261  0.1741  0.5271  0.5509
17314TIP3    H173357   0.894   3.597  14.221  0.0069 -0.4943  2.4583
17314TIP3    H273358   0.980   3.717  14.187  0.7209 -1.8191 -0.8025
17315TIP3   OH273359   1.985   2.062  14.781 -0.3143  0.2460 -0.6662
17315TIP3    H173360   2.075   2.095  14.789 -0.6046  0.5262  2.7700
17315TIP3    H273361   1.945   2.118  14.715  1.3577  1.7254 -0.5009
17316TIP3   OH273362   2.008   1.199  13.132 -0.1583  0.6191 -0.5503
17316TIP3    H173363   2.024   1.247  13.214  1.4343 -0.8156  0.0352
17316TIP3    H273364   1.925   1.153  13.147 -0.0148  0.5808  0.1548
17317TIP3   OH273365   3.798   0.584  15.438 -0.3453 -0.4161 -0.5586
17317TIP3    H173366   3.817   0.656  15.377 -0.4530 -0.1544 -0.2860
17317TIP3    H273367   3.707   0.561  15.420 -1.3902  1.6993  1.5546
17318TIP3   OH273368   5.268   4.222   0.642 -0.4205  0.0766  0.1568
17318TIP3    H173369   5.233   4.188   0.560 -2.5181 -1.2508  1.4720
17318TIP3    H273370   5.329   4.154   0.672 -1.2841 -0.4890  0.6823
17319TIP3   OH273371   5.891   0.857   2.517  0.3243 -0.0766  0.3494
17319TIP3    H173372   5.882   0.762   2.506 -2.6279  0.1538  0.0468
17319TIP3    H273373   5.920   0.888   2.432  0.1794 -0.6085  0.0979
17320TIP3   OH273374   6.559   5.260  16.494  0.1973 -0.2475  0.4173
17320TIP3    H173375   6.522   5.260  16.406 -1.8414  2.4766  1.1527
17320TIP3    H273376   6.653   5.274  16.480 -0.1029  0.2701 -1.3142
17321TIP3   OH273377   2.398   0.001  11.120  0.7139  0.2924 -0.0849
17321TIP3    H173378   2.393   0.013  11.025  1.3839 -0.8802 -0.2874
17321TIP3    H273379   2.396   0.090  11.155  1.9610  0.8315 -1.2843
17322TIP3   OH273380   1.998   4.613   1.385  0.4479  0.5292  0.3885
17322TIP3    H173381   2.054   4.690   1.376  2.3313 -0.8287 -0.0676
17322TIP3    H273382   2.048   4.541   1.346 -0.7907 -1.1545  1.6933
17323TIP3   OH273383   5.790   0.078  10.983 -0.0198 -0.1221  0.4954
17323TIP3    H173384   5.833   0.107  10.902 -2.6525  0.4756 -0.7787
17323TIP3    H273385   5.854   0.019  11.023  1.2110 -0.8592 -2.2628
17324TIP3   OH273386   5.823   3.298  13.935  0.4591  0.3143 -1.0833
17324TIP3    H173387   5.849   3.221  13.986  1.7446  1.4910  0.1307
17324TIP3    H273388   5.905   3.347  13.922 -0.1741  1.0424 -2.6227
17325TIP3   OH273389   0.598   3.076  16.376  0.0690  0.7630  0.2838
17325TIP3    H173390   0.577   3.073  16.469 -2.2766  0.8788 -0.1582
17325TIP3    H273391   0.535   3.139  16.340 -0.0601 -0.3502 -1.5646
17326TIP3   OH273392   5.774   0.118  14.105 -0.1814 -0.3707  0.2084
17326TIP3    H173393   5.835   0.110  14.032  1.1482  1.2349  1.0881
17326TIP3    H273394   5.829   0.113  14.183 -1.3686 -0.3878  1.0756
17327TIP3   OH273395   0.126   5.108  13.249 -0.1172  0.7104 -0.0181
17327TIP3    H173396   0.147   5.030  13.301 -0.9876  1.1405  1.0049
17327TIP3    H273397   0.168   5.092  13.165  0.8471 -0.2632  0.6202
17328TIP3   OH273398   4.666   1.519  16.979 -0.0393  0.1567  0.0669
17328TIP3    H173399   4.625   1.536  17.064  1.5767  2.0720  0.5387
17328TIP3    H273400   4.705   1.603  16.955  2.3210 -1.1730 -1.0405
17329TIP3   OH273401   0.027   4.423  11.083  0.3445 -0.3038 -0.3001
17329TIP3    H173402  -0.025   4.424  11.003  0.6107  3.2423 -0.5801
17329TIP3    H273403   0.099   4.363  11.064 -1.1066 -1.7549 -1.5828
17330TIP3   OH273404   4.067   2.157   2.286 -0.2869  0.2527  0.5368
17330TIP3    H173405   4.054   2.095   2.357  0.3003 -0.6942 -0.1495
17330TIP3    H273406   4.127   2.222   2.322  0.8974 -0.8238  0.5878
17331TIP3   OH273407   0.337   0.976   0.804 -0.1691  0.1724 -0.1873
17331TIP3    H173408   0.266   0.922   0.838 -0.0383  0.3255  0.3449
17331TIP3    H273409   0.313   0.993   0.713 -1.2242  0.8713  0.1923
17332TIP3   OH273410   4.373   0.911   1.111 -0.1951 -0.0507  0.0462
17332TIP3    H173411   4.294   0.879   1.155 -0.6202  0.1485 -0.5580
17332TIP3    H273412   4.377   1.003   1.134 -0.2719 -0.0079 -0.1071
17333TIP3   OH273413   5.635   3.365  16.720 -0.3799  0.3813  0.2853
17333TIP3    H173414   5.549   3.347  16.682 -0.6269 -3.2744  2.1638
17333TIP3    H273415   5.666   3.443  16.673 -3.1167 -0.2733 -2.9981
17334TIP3   OH273416   3.656   2.244   6.220 -0.3996 -0.0992  0.4558
17334TIP3    H173417   3.720   2.315   6.220 -1.5779  1.0036  0.7538
17334TIP3    H273418   3.705   2.167   6.191  0.6557  1.0600 -0.9977
17335TIP3   OH273419   4.969   1.128  12.194  0.2817 -0.0978  0.0849
17335TIP3    H173420   4.927   1.147  12.111  0.5275  0.3390  0.0585
17335TIP3    H273421   4.944   1.200  12.252  0.7571  0.0218  0.1489
17336TIP3   OH273422   3.506   0.204  11.703 -0.3814 -0.2268  0.2156
17336TIP3    H173423   3.464   0.287  11.726 -0.8161 -0.3356 -0.1733
17336TIP3    H273424   3.465   0.139  11.759 -0.7858 -0.3439 -0.2130
17337TIP3   OH273425   1.764   3.450   2.002  0.2294 -0.1624 -0.4494
17337TIP3    H173426   1.848   3.416   2.033  0.6831  1.5074  0.2467
17337TIP3    H273427   1.748   3.528   2.055 -2.2775 -0.9816  0.1226
17338TIP3   OH273428   5.286   2.138  15.761  0.2321  0.2928 -0.1090
17338TIP3    H173429   5.368   2.185  15.780 -0.6122  1.1564  1.5261
17338TIP3    H273430   5.229   2.205  15.723 -0.7832  0.5145  1.7104
17339TIP3   OH273431   4.019   0.422  15.453 -0.1236 -0.8845  0.5876
17339TIP3    H173432   4.073   0.449  15.379 -0.0309 -0.2522  0.8815
17339TIP3    H273433   3.935   0.465  15.438  0.1505 -0.1048  1.2670
17340TIP3   OH273434   6.449   2.326  13.962  0.6401 -0.4360 -0.4923
17340TIP3    H173435   6.410   2.320  13.874  2.6126 -0.0873 -1.4369
17340TIP3    H273436   6.481   2.416  13.967 -0.9533  0.0865  1.2918
17341TIP3   OH273437   4.356   5.013  15.057  0.4534  0.0635 -0.0834
17341TIP3    H173438   4.288   5.020  15.123  1.2077 -0.3786  0.7743
17341TIP3    H273439   4.438   5.027  15.105  0.9892  0.4632 -1.0585
17342TIP3   OH273440   2.904   2.204  13.176 -0.2114  0.2671 -0.1332
17342TIP3    H173441   2.813   2.204  13.208  0.1746 -2.2299  1.1926
17342TIP3    H273442   2.898   2.240  13.087 -2.7588 -1.2994 -0.6998
17343TIP3   OH273443   5.904   6.587  15.244 -0.1024  0.2095  0.3625
17343TIP3    H173444   5.953   6.572  15.325  1.3860 -0.3642 -0.6123
17343TIP3    H273445   5.857   6.505  15.229 -0.2671  0.2663  0.5718
17344TIP3   OH273446   1.786   5.924  12.731 -0.0279  0.2981 -0.4126
17344TIP3    H173447   1.809   6.004  12.777 -1.7433  0.8323 -0.4104
17344TIP3    H273448   1.743   5.954  12.651  0.0397 -0.6225 -0.8132
17345TIP3   OH273449   4.787   2.675  12.789 -0.3369 -0.9194  0.6037
17345TIP3    H173450   4.736   2.606  12.748  1.0483 -0.9866 -1.1116
17345TIP3    H273451   4.785   2.747  12.727  1.6671 -0.9545  0.4372
17346TIP3   OH273452   2.110   2.412   4.629 -0.1574 -0.0071  0.0220
17346TIP3    H173453   2.192   2.452   4.656 -0.5551  0.8347  0.0283
17346TIP3    H273454   2.068   2.479   4.575 -0.4864 -0.7236 -0.6265
17347TIP3   OH273455   5.732   0.948  15.462 -0.4991  0.1265  0.0230
17347TIP3    H173456   5.709   1.037  15.434  2.3783  1.2795  0.9165
17347TIP3    H273457   5.711   0.946  15.555 -0.1535  0.0542  0.1022
17348TIP3   OH273458   0.928   5.932  11.192 -0.4621 -0.3297 -0.0522
17348TIP3    H173459   0.964   5.986  11.122  0.0074 -1.0042 -0.3487
17348TIP3    H273460   0.834   5.948  11.190 -0.6363 -1.3276 -1.7145
17349TIP3   OH273461   4.466   1.825  15.067  0.3139  0.1521  0.1590
17349TIP3    H173462   4.393   1.813  15.006  0.6584  2.3544 -0.7713
17349TIP3    H273463   4.463   1.917  15.092  2.3189  0.1341  0.7013
17350TIP3   OH273464   0.749   1.745  15.281 -0.2310  0.0487  0.5088
17350TIP3    H173465   0.767   1.696  15.361 -2.2355  0.6087  1.3757
17350TIP3    H273466   0.825   1.731  15.226  0.6259 -1.4262  1.9961
17351TIP3   OH273467   2.179   0.487  16.316  0.6040 -0.6649 -0.2607
17351TIP3    H173468   2.116   0.451  16.254 -0.7257 -1.0031  1.2115
17351TIP3    H273469   2.260   0.438  16.300  0.7277  0.1682 -2.5721
17352TIP3   OH273470   4.173   5.016   4.874 -0.4145 -0.1749  0.3241
17352TIP3    H173471   4.102   5.041   4.933  0.5325  1.0814  0.9722
17352TIP3    H273472   4.234   4.966   4.929 -0.6288 -0.9894 -0.1573
17353TIP3   OH273473   6.009   1.851  11.248  0.5706 -0.0452  0.5059
17353TIP3    H173474   6.011   1.864  11.153 -0.3234 -0.2000  0.4538
17353TIP3    H273475   5.963   1.768  11.259  2.6128 -1.1644  0.9972
17354TIP3   OH273476   5.374   0.769  16.698  0.6617 -0.2650 -0.2808
17354TIP3    H173477   5.337   0.836  16.754 -0.9508 -0.6905 -0.7963
17354TIP3    H273478   5.376   0.809  16.611 -0.9878 -1.0811 -0.7344
17355TIP3   OH273479   1.222   3.605  11.497  0.1192 -0.3149 -0.0317
17355TIP3    H173480   1.141   3.647  11.526  0.9245 -0.0784  2.0652
17355TIP3    H273481   1.248   3.653  11.419 -1.2598  0.2128 -0.1925
17356TIP3   OH273482   1.607   0.405   2.981  0.2163 -0.2598  0.5510
17356TIP3    H173483   1.518   0.425   3.009  0.7407  1.1369  1.3466
17356TIP3    H273484   1.645   0.358   3.055  0.7476  0.9656  1.0832
17357TIP3   OH273485   0.958   0.131  12.585  0.0130 -0.4987  0.1389
17357TIP3    H173486   1.039   0.079  12.593  0.8092  0.8644  1.3946
17357TIP3    H273487   0.888   0.068  12.601  0.9492 -1.2212  1.6549
17358TIP3   OH273488   3.787   2.422  12.321 -0.1364  0.0602 -0.3557
17358TIP3    H173489   3.766   2.490  12.255 -1.2892 -1.2145 -1.3683
17358TIP3    H273490   3.873   2.390  12.296  0.6534  1.4624  0.4371
17359TIP3   OH273491   3.489   5.376  13.673  0.0045 -0.9519 -0.7331
17359TIP3    H173492   3.411   5.391  13.726 -0.3052 -3.1695 -0.4886
17359TIP3    H273493   3.550   5.331  13.731  1.8632  1.4373 -0.6780
17360TIP3   OH273494   5.099   1.579  16.683  0.1571 -0.2572 -0.0345
17360TIP3    H173495   5.065   1.669  16.683 -2.0859 -1.0540 -0.0520
17360TIP3    H273496   5.052   1.536  16.612  1.3614 -1.4131 -0.1624
17361TIP3   OH273497   2.486   3.267   1.754  0.4170  0.2127  0.1146
17361TIP3    H173498   2.490   3.206   1.681 -2.2708  1.0334 -0.8170
17361TIP3    H273499   2.394   3.294   1.759  1.0574  2.4394  1.9267
17362TIP3   OH273500   6.299   1.602  16.703  0.0906  0.2632  0.8769
17362TIP3    H173501   6.282   1.513  16.675  1.4732  0.6492 -1.4987
17362TIP3    H273502   6.381   1.597  16.752  1.1627  0.3856 -0.8045
17363TIP3   OH273503   3.998   3.682  11.849  0.0143  0.0879  0.2144
17363TIP3    H173504   4.064   3.621  11.880  0.2659  0.3938  0.2899
17363TIP3    H273505   3.934   3.628  11.803  1.2623 -0.0222 -1.4809
17364TIP3   OH273506   2.099   4.713  14.888 -0.0218 -0.0437  0.3349
17364TIP3    H173507   2.154   4.676  14.956  0.7107 -0.4946 -0.4854
17364TIP3    H273508   2.040   4.773  14.934  0.5439 -0.2456  1.3356
17365TIP3   OH273509   3.370   2.185   3.010  0.2469 -0.3267 -0.2635
17365TIP3    H173510   3.374   2.270   3.054  0.3873 -0.7192  0.4920
17365TIP3    H273511   3.441   2.135   3.048 -1.6365 -1.8073  1.4939
17366TIP3   OH273512   4.844   0.694   0.187 -0.2910 -0.2432 -0.3500
17366TIP3    H173513   4.921   0.680   0.132 -1.6286 -3.8435 -1.6596
17366TIP3    H273514   4.864   0.649   0.269 -0.9123 -1.1071 -0.6583
17367TIP3   OH273515   6.396   1.810  12.840  0.5170 -0.2107 -0.0092
17367TIP3    H173516   6.481   1.814  12.885  0.4988  1.2446 -0.0525
17367TIP3    H273517   6.403   1.875  12.771 -0.2939 -0.7929 -0.6552
17368TIP3   OH273518   6.034   6.499   2.110 -0.2294  0.7939 -0.0131
17368TIP3    H173519   6.045   6.404   2.117  1.4391  0.8595 -1.1771
17368TIP3    H273520   5.967   6.520   2.175 -0.9088 -1.2160  0.0074
17369TIP3   OH273521   1.779   0.653  14.512  0.1468 -0.2493 -0.3468
17369TIP3    H173522   1.711   0.668  14.577 -0.3372 -0.5683 -0.7721
17369TIP3    H273523   1.769   0.724  14.450  2.1409  1.4589  1.1466
17370TIP3   OH273524   4.204   5.926   3.199 -0.0450 -0.4761  0.1909
17370TIP3    H173525   4.255   5.963   3.270  1.8977 -0.3575 -1.2000
17370TIP3    H273526   4.155   5.854   3.239  0.1276  0.2878  1.8337
17371TIP3   OH273527   6.599   5.564   3.559 -0.0657 -0.2176  0.2397
17371TIP3    H173528   6.525   5.612   3.596  0.2710 -0.3590  1.1265
17371TIP3    H273529   6.619   5.609   3.477  0.6805  1.6001  1.3706
17372TIP3   OH273530   1.753   5.111  13.730 -0.2793  0.2426 -0.2665
17372TIP3    H173531   1.839   5.154  13.728  1.1570 -2.4345 -1.6655
17372TIP3    H273532   1.705   5.153  13.658  0.0687  1.3065  0.0945
17373TIP3   OH273533   2.155   3.615   5.586 -0.1675 -0.4782  0.0792
17373TIP3    H173534   2.088   3.559   5.548 -0.9512  0.1900  0.4404
17373TIP3    H273535   2.108   3.693   5.616  1.0594  1.0325 -1.6811
17374TIP3   OH273536   3.329   0.059   4.589  0.4224  0.6915  0.5204
17374TIP3    H173537   3.412   0.016   4.571  0.0951 -0.8666  2.4205
17374TIP3    H273538   3.333   0.084   4.681 -0.8601  1.4410  0.4132
17375TIP3   OH273539   2.803   2.910  12.299 -0.0492 -1.0472 -1.1044
17375TIP3    H173540   2.780   2.961  12.221  0.2159 -1.6077 -1.5543
17375TIP3    H273541   2.723   2.912  12.353 -0.4318 -1.1431 -1.6557
17376TIP3   OH273542   0.636   3.413  14.636 -0.1082  0.4107  0.1228
17376TIP3    H173543   0.697   3.342  14.659 -1.6268 -0.7078  0.8735
17376TIP3    H273544   0.651   3.428  14.542  0.6577 -0.4770  0.0873
17377TIP3   OH273545   1.546   5.360  13.991  0.2120 -0.0902  0.0283
17377TIP3    H173546   1.617   5.302  14.018  0.7488 -0.6779 -2.3907
17377TIP3    H273547   1.585   5.448  13.994  0.5753 -0.2525  0.1818
17378TIP3   OH273548   1.443   0.352   2.104  0.2289  0.2691 -0.2752
17378TIP3    H173549   1.378   0.418   2.081 -0.1889 -0.0478 -0.0317
17378TIP3    H273550   1.427   0.280   2.042  0.6006  0.3461 -0.4619
17379TIP3   OH273551   4.046   2.650   4.803  0.3241  0.1961 -0.2390
17379TIP3    H173552   4.069   2.743   4.802  0.1628  0.2527  0.5026
17379TIP3    H273553   4.092   2.613   4.728 -0.3696  1.0470 -1.1125
17380TIP3   OH273554   5.659   2.207   1.040 -0.8102 -0.5441  0.2626
17380TIP3    H173555   5.604   2.217   1.117  1.9088  0.0243  2.3030
17380TIP3    H273556   5.637   2.281   0.984 -0.3980  1.1631  2.2288
17381TIP3   OH273557   3.777   3.793   5.006 -0.1162 -0.4470  0.4059
17381TIP3    H173558   3.789   3.823   4.916  1.2792  0.2304  0.7981
17381TIP3    H273559   3.853   3.826   5.053 -2.1601  1.6484  2.4882
17382TIP3   OH273560   5.047   3.108   1.741 -0.4696  0.4235  0.4621
17382TIP3    H173561   5.135   3.126   1.708 -0.6941 -0.2503 -0.5423
17382TIP3    H273562   5.054   3.022   1.783 -1.2524 -1.0491 -2.2026
17383TIP3   OH273563   0.645   3.171  13.780  0.6289  0.3128  1.0298
17383TIP3    H173564   0.560   3.174  13.736  0.6030  0.1327  1.0674
17383TIP3    H273565   0.685   3.089  13.749  1.0766  0.7350  0.4713
17384TIP3   OH273566   5.103   4.938   3.364 -0.0531 -0.4873  0.5758
17384TIP3    H173567   5.087   4.913   3.273 -0.1060  2.5423 -0.3371
17384TIP3    H273568   5.042   4.884   3.415  0.9373 -3.2692 -0.9513
17385TIP3   OH273569   0.743   3.593   1.479 -0.3445  0.3134  0.3778
17385TIP3    H173570   0.660   3.590   1.433 -0.6208 -1.0194  0.9300
17385TIP3    H273571   0.719   3.601   1.571  0.1045 -0.6106  0.5877
17386TIP3   OH273572   2.263   1.390   0.778 -0.0184  0.0192 -0.1266
17386TIP3    H173573   2.351   1.428   0.781 -0.0988  0.2221 -0.3042
17386TIP3    H273574   2.258   1.336   0.857  0.2121  0.1276 -0.0358
17387TIP3   OH273575   0.069   6.311  16.768 -0.1093  0.4553 -0.0031
17387TIP3    H173576   0.070   6.398  16.727 -0.4928  0.7048  0.5080
17387TIP3    H273577   0.049   6.251  16.696  0.5591  0.7422 -0.4401
17388TIP3   OH273578   4.085   2.703  11.639  0.4264 -0.5881  0.0175
17388TIP3    H173579   4.017   2.665  11.695  1.0832  0.3901  1.5401
17388TIP3    H273580   4.041   2.718  11.556 -0.3705 -2.8188 -0.0266
17389TIP3   OH273581   0.070   6.685  12.388  1.0198 -0.7329 -0.0504
17389TIP3    H173582  -0.024   6.669  12.389  0.7271  0.8169 -0.1496
17389TIP3    H273583   0.080   6.771  12.427  2.4532 -1.0645  0.3792
17390TIP3   OH273584   2.945   4.639   2.635  0.3809 -0.0217  0.2036
17390TIP3    H173585   3.017   4.682   2.680  1.7361 -1.8686 -0.0461
17390TIP3    H273586   2.987   4.592   2.562 -1.1925 -0.4287 -0.4861
17391TIP3   OH273587   2.237   1.364   6.020  0.3324  0.1090  0.0942
17391TIP3    H173588   2.287   1.345   6.100  0.1525 -0.8210  0.0009
17391TIP3    H273589   2.248   1.458   6.007 -0.3844  0.4524  1.7180
17392TIP3   OH273590   5.895   4.621  15.395  0.2579 -0.4272 -0.3942
17392TIP3    H173591   5.858   4.538  15.427  1.8123 -1.1779 -0.4472
17392TIP3    H273592   5.820   4.679  15.388 -0.9097 -1.8735 -0.4700
17393TIP3   OH273593   5.340   4.352  10.706  0.2908  0.0135  0.3779
17393TIP3    H173594   5.299   4.417  10.763  0.5664 -0.1527  0.7681
17393TIP3    H273595   5.283   4.275  10.713 -0.6819  0.5800 -0.9828
17394TIP3   OH273596   1.373   6.182   2.009 -0.4939  0.2540  0.8260
17394TIP3    H173597   1.419   6.254   1.967 -1.7397  0.3672 -0.4328
17394TIP3    H273598   1.437   6.144   2.069  1.3172  0.2405 -1.0092
17395TIP3   OH273599   1.640   2.193   1.303  0.5706 -0.0287  0.3658
17395TIP3    H173600   1.652   2.227   1.392  1.7460  0.2717  0.1078
17395TIP3    H273601   1.729   2.182   1.269  0.1466 -0.5870 -0.6124
17396TIP3   OH273602   4.998   1.334  15.784  0.4905  0.7102  0.0654
17396TIP3    H173603   4.903   1.334  15.795  0.3658 -0.5368 -0.7926
17396TIP3    H273604   5.016   1.410  15.729  0.0185  1.0849  0.4218
17397TIP3   OH273605   3.329   2.746   3.873 -0.2797 -0.1395 -0.6378
17397TIP3    H173606   3.303   2.665   3.830  0.0176  0.6358 -2.3600
17397TIP3    H273607   3.295   2.815   3.817  2.4527  0.9157 -1.1610
17398TIP3   OH273608   0.037   4.728   6.340  0.0677 -0.0341 -0.1369
17398TIP3    H173609   0.077   4.757   6.258  2.2443 -0.6852  0.6418
17398TIP3    H273610   0.087   4.651   6.366 -1.0944 -0.3106  1.4156
17399TIP3   OH273611   4.878   5.605   5.711  0.2392  0.2519 -0.4656
17399TIP3    H173612   4.930   5.623   5.789 -1.3909 -0.0327  0.7371
17399TIP3    H273613   4.869   5.510   5.710 -2.1066  0.3810  0.6890
17400TIP3   OH273614   3.443   4.711  10.491 -0.3837  0.3377  0.5302
17400TIP3    H173615   3.462   4.640  10.551 -0.0836  1.4708  1.8404
17400TIP3    H273616   3.350   4.729  10.504 -0.5648 -0.0803 -0.1225
17401TIP3   OH273617   3.039   2.768   0.727 -0.3282  0.9606 -0.1227
17401TIP3    H173618   3.024   2.727   0.812  0.0579  0.0153 -0.5009
17401TIP3    H273619   3.038   2.695   0.665 -0.1203  1.5839 -0.8655
17402TIP3   OH273620   2.334   5.789   0.775 -0.1655 -0.0917  0.6074
17402TIP3    H173621   2.390   5.789   0.697 -0.7667 -0.6157  0.1652
17402TIP3    H273622   2.388   5.752   0.844  0.0161 -0.6862  0.1588
17403TIP3   OH273623   5.498   5.920  12.517 -0.2343  0.0676  0.2343
17403TIP3    H173624   5.520   6.012  12.499 -1.6691  0.6634  1.3308
17403TIP3    H273625   5.575   5.871  12.488  0.4223  1.5804 -0.7031
17404TIP3   OH273626   2.645   0.703   3.565  0.0169  0.8544 -0.6687
17404TIP3    H173627   2.634   0.616   3.527 -0.4001  0.6387 -0.0697
17404TIP3    H273628   2.709   0.746   3.508 -1.3731  0.9186 -2.2661
17405TIP3   OH273629   0.298   1.443  17.006  0.5421 -0.0742 -0.4265
17405TIP3    H173630   0.369   1.490  16.962 -0.9814  0.7088 -2.1638
17405TIP3    H273631   0.218   1.477  16.966 -0.7987 -1.5463  0.8691
17406TIP3   OH273632   1.395   1.370  14.705 -0.2479  0.7327  0.0149
17406TIP3    H173633   1.330   1.300  14.703 -0.6432  1.0894 -2.1486
17406TIP3    H273634   1.472   1.332  14.664 -0.0496  1.1705 -0.0175
17407TIP3   OH273635   6.786   0.234   4.009 -0.3373  0.4076  0.2691
17407TIP3    H173636   6.716   0.218   4.073 -0.2566  1.6029  0.6808
17407TIP3    H273637   6.816   0.323   4.028  1.6883 -0.2695  0.4718
17408TIP3   OH273638   2.637   0.132   3.014 -0.5954  0.6676  0.0081
17408TIP3    H173639   2.561   0.185   3.038 -1.5329  0.3917 -2.0994
17408TIP3    H273640   2.600   0.047   2.991 -0.0657  1.1790 -3.2711
17409TIP3   OH273641   4.987   4.102   0.243  0.4612 -0.0818  0.1950
17409TIP3    H173642   4.999   4.152   0.163 -0.8412 -0.4443 -0.2428
17409TIP3    H273643   5.019   4.014   0.221  0.3894 -0.1039  0.1817
17410TIP3   OH273644   6.704   1.760   5.674 -0.1265  0.0473  0.1998
17410TIP3    H173645   6.630   1.743   5.616  0.1918  0.7364 -0.4217
17410TIP3    H273646   6.773   1.703   5.640 -0.4805 -0.9078  1.0347
17411TIP3   OH273647   3.178   6.238  16.704  0.0336  0.1145  0.3696
17411TIP3    H173648   3.235   6.292  16.758  1.7029  0.3221 -1.5220
17411TIP3    H273649   3.107   6.297  16.679  2.2197  1.8371 -2.3158
17412TIP3   OH273650   3.486   6.169  14.368  0.1270 -0.0665 -0.1589
17412TIP3    H173651   3.547   6.144  14.299  1.2010  0.0341  0.7230
17412TIP3    H273652   3.507   6.260  14.388 -1.4339  0.4998 -0.9584
17413TIP3   OH273653   5.730   4.901  12.086 -0.2240  0.1563 -0.1008
17413TIP3    H173654   5.798   4.877  12.148 -0.4883 -1.5548 -0.4285
17413TIP3    H273655   5.733   4.833  12.018 -1.1358  0.9744 -1.0073
17414TIP3   OH273656   6.655   3.586   0.631 -0.1154  0.3095 -0.1086
17414TIP3    H173657   6.684   3.611   0.543 -2.4017  0.6937 -0.8383
17414TIP3    H273658   6.584   3.648   0.651 -0.0574 -0.1543  1.7646
17415TIP3   OH273659   0.096   5.058   2.314  0.2770  0.1492  0.1107
17415TIP3    H173660   0.076   5.113   2.389 -2.2704 -0.3401 -0.1345
17415TIP3    H273661   0.091   4.968   2.348  0.0963 -0.0480 -0.4261
17416TIP3   OH273662   0.605   2.578   1.436 -0.6658 -0.2785 -0.6735
17416TIP3    H173663   0.626   2.620   1.519 -1.2180 -2.7410  0.7749
17416TIP3    H273664   0.690   2.550   1.402 -0.4420  0.7103 -0.9793
17417TIP3   OH273665   1.319   4.639   5.013  0.4066  0.0813  0.2767
17417TIP3    H173666   1.247   4.695   5.043 -1.5320  0.0947 -3.7298
17417TIP3    H273667   1.387   4.701   4.986  0.6981  0.2098  1.2849
17418TIP3   OH273668   2.317   5.543  14.809 -0.3134 -0.2408  0.5050
17418TIP3    H173669   2.338   5.601  14.736 -0.0343 -0.7318  0.1888
17418TIP3    H273670   2.292   5.602  14.880  0.4111  0.2838  0.3341
17419TIP3   OH273671   1.739   4.012  13.888  0.4486 -0.0136  0.4022
17419TIP3    H173672   1.826   4.037  13.859 -0.0508  0.8552 -0.4138
17419TIP3    H273673   1.734   4.041  13.979  1.5261 -1.4517  0.9560
17420TIP3   OH273674   5.437   0.204  16.463 -0.2062 -0.4826 -0.3749
17420TIP3    H173675   5.388   0.283  16.440 -0.6688 -0.3423  0.9995
17420TIP3    H273676   5.474   0.222  16.549  0.9057 -1.2227 -0.6784
17421TIP3   OH273677   3.761   2.256   3.336 -0.3439  0.2591 -0.4082
17421TIP3    H173678   3.822   2.322   3.302  0.7851  0.5214  1.9281
17421TIP3    H273679   3.769   2.182   3.276  1.3643  0.7684 -0.8652
17422TIP3   OH273680   4.727   6.807  11.863  0.4357  0.1168 -0.6006
17422TIP3    H173681   4.808   6.757  11.870  0.3008  0.0828  1.4312
17422TIP3    H273682   4.707   6.808  11.770  2.3248 -0.5723 -1.0565
17423TIP3   OH273683   0.678   1.774  16.118 -0.3343  0.0692  0.6075
17423TIP3    H173684   0.640   1.764  16.031 -2.1111 -0.1426  1.3620
17423TIP3    H273685   0.714   1.688  16.139  0.3818  0.2029 -0.0196
17424TIP3   OH273686   4.954   4.284  14.779 -0.4991 -0.0834  0.1411
17424TIP3    H173687   4.929   4.218  14.714  0.6377  0.8491 -1.3229
17424TIP3    H273688   5.045   4.262  14.801 -0.7359 -0.1270  1.0768
17425TIP3   OH273689   1.933   5.820  12.441 -0.3540 -0.0617  0.0139
17425TIP3    H173690   1.922   5.880  12.368 -0.8907 -1.3945 -1.0412
17425TIP3    H273691   1.852   5.769  12.442  0.3583 -1.2070  0.4585
17426TIP3   OH273692   1.055   3.474  17.054  0.0489 -0.0074 -0.1362
17426TIP3    H173693   1.119   3.520  17.108  0.6676 -0.9618 -0.0349
17426TIP3    H273694   0.992   3.541  17.030  0.3790  0.6751  0.8337
17427TIP3   OH273695   4.660   6.739  12.797 -0.5172 -0.3141  0.1883
17427TIP3    H173696   4.659   6.700  12.884 -1.3304 -2.0318 -0.5225
17427TIP3    H273697   4.635   6.667  12.739  0.0418  0.7695 -1.4701
17428TIP3   OH273698   1.764   2.188  13.913  0.5080  0.3650 -0.2567
17428TIP3    H173699   1.851   2.161  13.943  0.5949 -0.5382 -1.2564
17428TIP3    H273700   1.744   2.129  13.841  0.3480  2.4792 -2.0626
17429TIP3   OH273701   1.761   6.662   2.874 -0.4781  0.9242 -0.2381
17429TIP3    H173702   1.690   6.600   2.859  0.5514 -0.9687  2.0888
17429TIP3    H273703   1.720   6.736   2.920 -0.9142 -0.4522  1.7102
17430TIP3   OH273704   3.368   5.801  13.780  0.2525 -0.1287  0.0112
17430TIP3    H173705   3.449   5.850  13.793 -0.0961  0.0296  1.7762
17430TIP3    H273706   3.387   5.714  13.814  0.2218 -0.6363 -1.2239
17431TIP3   OH273707   5.449   4.605  14.425 -0.3358  0.1105  0.1331
17431TIP3    H173708   5.440   4.693  14.461 -0.7142  0.0078  0.2945
17431TIP3    H273709   5.453   4.548  14.502  2.1251  0.1647  0.1166
17432TIP3   OH273710   3.473   1.744  16.955 -0.1325 -0.5498 -0.3259
17432TIP3    H173711   3.431   1.723  16.872  0.3610 -2.0715 -0.2267
17432TIP3    H273712   3.565   1.755  16.934 -0.3826  2.0800 -0.4243
17433TIP3   OH273713   5.154   3.533  14.352  0.3593 -0.5657  0.3740
17433TIP3    H173714   5.108   3.492  14.278 -1.4886 -1.6962  2.0408
17433TIP3    H273715   5.203   3.461  14.392  1.1550 -0.0141  0.4101
17434TIP3   OH273716   6.299   6.136  12.658 -0.1500 -0.6285  0.0608
17434TIP3    H173717   6.323   6.220  12.618 -0.2134  0.4849  2.2286
17434TIP3    H273718   6.246   6.160  12.734 -0.8096 -2.6847  0.3011
17435TIP3   OH273719   1.274   1.477  15.341 -0.6185  0.0110 -0.2686
17435TIP3    H173720   1.292   1.385  15.363 -0.9164 -0.3123 -1.3119
17435TIP3    H273721   1.294   1.525  15.421  0.7282 -0.8212 -0.0670
17436TIP3   OH273722   1.883   5.069  16.111  0.2495  0.7912  0.4362
17436TIP3    H173723   1.977   5.057  16.097  0.2188  0.6263  0.3708
17436TIP3    H273724   1.856   4.989  16.157 -0.1105  0.2417 -0.7115
17437TIP3   OH273725   0.452   2.443   2.246  0.1238 -0.3489  0.2576
17437TIP3    H173726   0.515   2.426   2.315 -0.4245 -0.0246  0.8486
17437TIP3    H273727   0.505   2.465   2.169  0.7331  2.0975  1.2904
17438TIP3   OH273728   5.236   2.396   2.401  0.3047  0.0687  0.0106
17438TIP3    H173729   5.306   2.349   2.357  0.4949  1.8369 -1.7351
17438TIP3    H273730   5.278   2.475   2.436 -0.4362  0.1715  0.7077
17439TIP3   OH273731   6.714   0.854   4.235 -0.2409 -0.1769 -0.1404
17439TIP3    H173732   6.619   0.849   4.252 -0.3815 -0.3672 -0.9554
17439TIP3    H273733   6.721   0.910   4.158  0.4802  1.7534  1.2592
17440TIP3   OH273734   5.597   1.908  12.000 -0.1225 -0.0886 -0.4733
17440TIP3    H173735   5.553   1.910  12.086 -0.9833 -0.9047 -0.8685
17440TIP3    H273736   5.525   1.910  11.937  0.4099 -1.3294 -1.1510
17441TIP3   OH273737   4.185   2.724   0.388  0.1134 -0.0484  0.0375
17441TIP3    H173738   4.239   2.802   0.378  0.1192 -0.2553 -1.7758
17441TIP3    H273739   4.098   2.751   0.358 -0.0990 -0.5162  0.2130
17442TIP3   OH273740   1.792   6.242  11.840  0.2915 -0.3149 -0.0653
17442TIP3    H173741   1.811   6.274  11.752  0.4857 -0.2000  0.0162
17442TIP3    H273742   1.773   6.322  11.890 -1.1845 -0.4734 -0.3204
17443TIP3   OH273743   1.357   5.440   3.621  0.1400 -0.0077 -0.2582
17443TIP3    H173744   1.398   5.358   3.649 -0.9966 -0.0445  1.4147
17443TIP3    H273745   1.263   5.420   3.617 -0.0114  0.7978 -1.3853
17444TIP3   OH273746   3.552   2.740   5.126 -0.2892  0.1267  0.2666
17444TIP3    H173747   3.639   2.753   5.164  1.7219 -0.0201 -3.6889
17444TIP3    H273748   3.548   2.804   5.055 -2.6543 -1.1432 -0.8514
17445TIP3   OH273749   0.267   0.971  14.802 -0.1671 -0.1701 -0.3241
17445TIP3    H173750   0.253   0.994  14.710 -0.5082 -0.3265 -0.3154
17445TIP3    H273751   0.334   0.903  14.801 -1.6872 -1.7331 -0.6414
17446TIP3   OH273752   1.956   1.001   4.364 -0.3741  0.2943  0.4946
17446TIP3    H173753   1.938   1.053   4.286  2.7738  1.3055  0.2769
17446TIP3    H273754   1.970   0.912   4.332  1.5800  0.8290 -0.3204
17447TIP3   OH273755   4.612   4.949   4.230 -0.1908 -0.6913 -0.4171
17447TIP3    H173756   4.667   5.012   4.275 -0.9484 -1.7681  2.1897
17447TIP3    H273757   4.667   4.871   4.222  0.4084 -0.1024 -2.7357
17448TIP3   OH273758   2.241   2.634  16.229 -0.2754  0.0777  0.5712
17448TIP3    H173759   2.178   2.592  16.289 -0.3135 -0.9582 -0.1655
17448TIP3    H273760   2.216   2.602  16.143  0.5749  0.5503  0.1427
17449TIP3   OH273761   6.539   6.327   2.464 -0.3965 -0.5852  0.2988
17449TIP3    H173762   6.619   6.336   2.515 -1.1223  2.4194  1.0944
17449TIP3    H273763   6.483   6.270   2.516 -0.0017  0.0286  1.4255
17450TIP3   OH273764   5.498   0.218   0.953  0.1754 -0.0134  0.6207
17450TIP3    H173765   5.478   0.201   1.045  0.9367  0.1724  0.8288
17450TIP3    H273766   5.506   0.313   0.947 -0.3636  0.0148  0.2487
17451TIP3   OH273767   5.929   1.677  12.974 -0.8563  0.6246 -0.5635
17451TIP3    H173768   5.918   1.699  12.882  0.0037 -5.9471 -2.7534
17451TIP3    H273769   5.846   1.636  12.999 -1.0582  2.2425  1.7449
17452TIP3   OH273770   2.697   2.514   5.895  0.3894  0.0383 -0.1864
17452TIP3    H173771   2.769   2.516   5.832 -0.7837  1.7669 -1.5721
17452TIP3    H273772   2.705   2.596   5.943 -0.7171  0.3357 -0.4763
17453TIP3   OH273773   4.213   5.739   5.543  0.4998  0.0468  0.0181
17453TIP3    H173774   4.178   5.774   5.625  1.0936  2.2954 -0.6450
17453TIP3    H273775   4.135   5.724   5.489  0.0969 -1.5139  0.9522
17454TIP3   OH273776   3.614   4.070  16.956 -0.0466 -0.0038  0.0512
17454TIP3    H173777   3.701   4.058  16.920 -1.1458  0.8120 -3.2559
17454TIP3    H273778   3.584   3.982  16.978  0.1602 -0.8523 -2.7048
17455TIP3   OH273779   2.205   0.764  12.288 -0.0665 -0.2370  0.4924
17455TIP3    H173780   2.264   0.824  12.243 -0.6240 -1.0124 -1.3331
17455TIP3    H273781   2.243   0.678  12.274  0.9692 -0.3991  3.4596
17456TIP3   OH273782   5.118   6.248  14.970  0.2453 -0.3217  0.2162
17456TIP3    H173783   5.159   6.193  14.903  3.5598  1.2537  0.7476
17456TIP3    H273784   5.112   6.335  14.930  0.2210  0.1551  1.2119
17457TIP3   OH273785   1.165   2.519   5.003 -0.1911  0.2612  0.7784
17457TIP3    H173786   1.079   2.497   4.967  0.0435 -0.1487  0.4508
17457TIP3    H273787   1.152   2.520   5.098  0.4602 -4.8524  1.2009
17458TIP3   OH273788   4.814   0.088  16.070  0.1056  0.0308  0.2938
17458TIP3    H173789   4.724   0.104  16.042  0.2075  0.5022  0.2327
17458TIP3    H273790   4.809   0.006  16.119  0.1566 -1.6470 -2.2947
17459TIP3   OH273791   3.546   2.722   0.855  0.6129  0.1709 -0.3058
17459TIP3    H173792   3.609   2.784   0.891  0.2413  0.2411  0.2391
17459TIP3    H273793   3.464   2.743   0.899  0.7843 -1.6555  1.0117
17460TIP3   OH273794   3.798   0.805  15.281 -0.4811 -0.0478 -0.3918
17460TIP3    H173795   3.729   0.834  15.221 -1.9161  0.1288  1.2723
17460TIP3    H273796   3.831   0.886  15.321 -0.5053 -0.2603  0.0657
17461TIP3   OH273797   5.465   5.446  17.071 -0.3207  0.2004 -0.3460
17461TIP3    H173798   5.452   5.485  16.984 -2.1277 -1.1764 -0.7572
17461TIP3    H273799   5.557   5.465  17.092 -0.5174  2.7254 -1.4336
17462TIP3   OH273800   2.677   1.119  15.138 -0.0164  0.2706 -0.1647
17462TIP3    H173801   2.587   1.096  15.160  0.0373 -0.1253 -0.3467
17462TIP3    H273802   2.693   1.201  15.184  0.0836 -0.4980  1.2356
17463TIP3   OH273803   2.467   3.434   3.946  0.5874  0.2812 -0.0504
17463TIP3    H173804   2.415   3.514   3.941 -0.2030 -0.1432  0.9954
17463TIP3    H273805   2.544   3.459   3.998  0.0431  0.2314  0.8051
17464TIP3   OH273806   1.448   5.474   2.058 -0.4342  0.3698 -0.1119
17464TIP3    H173807   1.503   5.529   2.113 -2.6564  0.1879  2.4576
17464TIP3    H273808   1.377   5.445   2.115 -3.4263  0.8358 -3.2466
17465TIP3   OH273809   5.975   5.723  13.151  0.0918  0.7085 -0.8221
17465TIP3    H173810   5.948   5.728  13.243 -0.6517  0.5159 -1.0201
17465TIP3    H273811   6.007   5.634  13.140  1.1586  1.0398 -0.5014
17466TIP3   OH273812   3.141   6.502   4.819  0.2066  0.2256  0.2695
17466TIP3    H173813   3.184   6.507   4.734 -0.2956  0.3191  0.0132
17466TIP3    H273814   3.177   6.424   4.860  1.9827  1.3020  0.8404
17467TIP3   OH273815   3.258   4.311  13.805  0.2435  0.0218  0.4096
17467TIP3    H173816   3.202   4.388  13.816  1.3459  0.6822  1.6692
17467TIP3    H273817   3.200   4.236  13.819 -0.3743  0.6908  1.5458
17468TIP3   OH273818   4.499   4.820  16.824 -0.2865 -0.2327 -0.8382
17468TIP3    H173819   4.410   4.828  16.859  0.6857  0.1190  1.7724
17468TIP3    H273820   4.553   4.869  16.885  1.8138 -1.0452 -1.9497
17469TIP3   OH273821   5.050   6.356   1.736 -0.5914  0.6197  0.3204
17469TIP3    H173822   5.116   6.329   1.672  0.5059 -0.0532  1.6806
17469TIP3    H273823   4.979   6.392   1.683 -0.5003 -1.5060 -1.3755
17470TIP3   OH273824   6.354   3.054  11.523  0.3439 -0.2157  0.3739
17470TIP3    H173825   6.367   2.961  11.538  1.2489  0.0367  1.2788
17470TIP3    H273826   6.272   3.060  11.474  0.7745 -1.5379 -0.5609
17471TIP3   OH273827   3.409   3.310  12.164  0.5523 -0.5091 -0.5094
17471TIP3    H173828   3.373   3.397  12.176  0.7984 -0.0067 -2.9020
17471TIP3    H273829   3.345   3.251  12.204 -0.5754  0.6590 -0.5543
17472TIP3   OH273830   0.749   3.197   1.487 -0.1430 -0.5210  0.0641
17472TIP3    H173831   0.726   3.211   1.578  0.1999 -0.6122  0.1661
17472TIP3    H273832   0.811   3.124   1.488 -0.4245 -0.7719 -0.2758
17473TIP3   OH273833   3.621   3.220  13.317  0.6263 -0.0644 -0.4791
17473TIP3    H173834   3.679   3.209  13.393 -0.5501  2.0061  0.7977
17473TIP3    H273835   3.681   3.234  13.244  1.7802 -1.4625  0.1249
17474TIP3   OH273836   2.801   6.677  14.560 -0.1268 -0.5734  0.3037
17474TIP3    H173837   2.802   6.636  14.647  2.3098  0.3988  0.7928
17474TIP3    H273838   2.776   6.768  14.576 -0.0292 -0.4800 -0.0591
17475TIP3   OH273839   5.904   5.436  11.936 -0.5074 -0.2421 -0.1582
17475TIP3    H173840   5.900   5.341  11.944  0.5645 -0.3633 -0.8688
17475TIP3    H273841   5.990   5.460  11.972 -0.5027  0.3806 -0.5641
17476TIP3   OH273842   2.391   2.570  15.339  0.0367  0.2031  0.2035
17476TIP3    H173843   2.339   2.528  15.270  1.5078 -0.7605 -0.3609
17476TIP3    H273844   2.461   2.507  15.358  1.8526  2.0263 -0.0942
17477TIP3   OH273845   5.176   5.084  11.082 -0.2854 -0.3176 -0.1635
17477TIP3    H173846   5.243   5.037  11.031  0.2268 -1.3601  1.4073
17477TIP3    H273847   5.098   5.080  11.027  0.4371 -0.7296 -1.2086
17478TIP3   OH273848   5.923   2.212  16.372 -0.3152  0.0314  0.2752
17478TIP3    H173849   5.895   2.121  16.382 -1.2917  0.1448 -1.1490
17478TIP3    H273850   5.922   2.227  16.278  1.8683  0.9200  0.3455
17479TIP3   OH273851   5.594   6.235  15.288  0.4324 -0.2545 -0.1772
17479TIP3    H173852   5.554   6.149  15.298  1.5200 -0.9673 -1.5377
17479TIP3    H273853   5.533   6.295  15.330 -1.5199 -1.4000 -1.2011
17480TIP3   OH273854   2.703   1.098  16.324 -0.2184  0.0721  0.1170
17480TIP3    H173855   2.621   1.125  16.283  0.4540  0.6068 -0.9082
17480TIP3    H273856   2.757   1.064  16.253  0.1179 -1.1493  0.9200
17481TIP3   OH273857   2.364   0.167   3.330 -0.1429  0.0666  0.1660
17481TIP3    H173858   2.348   0.206   3.244 -0.8988  1.5667  0.9581
17481TIP3    H273859   2.282   0.179   3.378 -0.8152 -3.3892  0.1909
17482TIP3   OH273860   0.174   6.531  15.431 -0.8571 -0.0598 -1.2841
17482TIP3    H173861   0.186   6.437  15.418 -0.3849 -0.3461  0.8365
17482TIP3    H273862   0.255   6.561  15.472 -2.6358  0.3004  2.3687
17483TIP3   OH273863   1.274   1.674  15.816 -0.5102 -0.2795  0.0451
17483TIP3    H173864   1.251   1.675  15.724  0.3947  1.5537 -0.1993
17483TIP3    H273865   1.355   1.725  15.821 -2.0519  2.2129  2.2045
17484TIP3   OH273866   3.653   0.122  14.464 -0.0741  0.1947  0.1528
17484TIP3    H173867   3.602   0.154  14.389 -0.7488 -3.2427 -1.0127
17484TIP3    H273868   3.608   0.158  14.540 -1.2395  1.2698 -0.9836
17485TIP3   OH273869   0.669   3.436  16.221  0.3919  0.1797 -0.2799
17485TIP3    H173870   0.693   3.426  16.129 -0.7843  0.1314 -0.5937
17485TIP3    H273871   0.592   3.492  16.220  0.1338 -0.1426  0.6490
17486TIP3   OH273872   0.140   4.781  11.337  0.2042  0.2485  0.4685
17486TIP3    H173873   0.170   4.696  11.371 -1.3165  0.0755  1.4972
17486TIP3    H273874   0.200   4.845  11.376  0.9608 -0.2775  0.2050
17487TIP3   OH273875   4.592   5.312  14.036  0.0794 -0.3497 -0.7719
17487TIP3    H173876   4.682   5.280  14.031  0.5593  1.1546 -2.3972
17487TIP3    H273877   4.555   5.265  14.111  1.7727 -2.0369 -0.9087
17488TIP3   OH273878   5.415   0.937   4.780  0.5083 -0.2747  0.0396
17488TIP3    H173879   5.328   0.924   4.742  0.1440  1.3615  0.2722
17488TIP3    H273880   5.465   0.982   4.712  0.5687  0.5570  0.6230
17489TIP3   OH273881   5.440   4.794  15.018  0.0269  0.1592 -0.0056
17489TIP3    H173882   5.413   4.842  14.940  0.0813 -0.5172 -0.4448
17489TIP3    H273883   5.527   4.830  15.039 -0.4414  1.1052  0.3943
17490TIP3   OH273884   1.964   3.050  14.129 -0.0431  0.8321  0.1481
17490TIP3    H173885   1.894   3.099  14.086  0.0832  1.0555  0.1912
17490TIP3    H273886   2.040   3.061  14.072  0.2269  1.4533  0.6153
17491TIP3   OH273887   1.507   5.330   5.182  0.0068  0.2197  0.1729
17491TIP3    H173888   1.547   5.257   5.229 -0.2928  1.0906  1.8464
17491TIP3    H273889   1.414   5.325   5.206 -0.3039  0.2206 -0.9786
17492TIP3   OH273890   1.497   5.556   3.888 -0.5483  0.1636 -0.2530
17492TIP3    H173891   1.525   5.647   3.878  2.5130 -0.7680 -1.5336
17492TIP3    H273892   1.456   5.533   3.805  0.2460 -0.0604 -0.5953
17493TIP3   OH273893   1.169   2.197  15.563 -0.3730  0.0249  0.3365
17493TIP3    H173894   1.235   2.266  15.566  0.3552 -0.6587  0.3755
17493TIP3    H273895   1.158   2.170  15.654 -0.6672  0.0877  0.3234
17494TIP3   OH273896   5.784   2.434   1.953  0.2174  0.0783  0.4010
17494TIP3    H173897   5.762   2.379   1.877 -0.4008  1.3131 -0.3385
17494TIP3    H273898   5.700   2.473   1.979  0.7458  1.1706  0.5045
17495TIP3   OH273899   5.378   6.130  12.230 -0.3872  0.1091 -0.0692
17495TIP3    H173900   5.444   6.172  12.284 -1.5831  2.1354 -0.0712
17495TIP3    H273901   5.407   6.146  12.140  0.4952 -1.4019 -0.0824
17496TIP3   OH273902   5.688   5.348   5.627 -0.1526  0.7826  0.4756
17496TIP3    H173903   5.595   5.370   5.635  0.0268  1.2612  1.4775
17496TIP3    H273904   5.713   5.381   5.541 -1.4740 -1.6153 -0.9636
17497TIP3   OH273905   4.171   5.551  16.818 -0.1988  0.2771  0.0651
17497TIP3    H173906   4.157   5.639  16.783  2.5210  0.5521 -0.5479
17497TIP3    H273907   4.266   5.539  16.815 -0.5531 -3.2864 -1.3529
17498TIP3   OH273908   0.749   6.026  15.997 -0.1693  0.1878  0.1453
17498TIP3    H173909   0.755   6.086  16.071 -1.1769  0.2551  0.1739
17498TIP3    H273910   0.718   5.944  16.035  0.8603 -0.2644  0.0495
17499TIP3   OH273911   0.598   3.812   2.648 -0.4095  0.0790  0.2475
17499TIP3    H173912   0.593   3.869   2.571  0.1475 -1.3156 -0.8536
17499TIP3    H273913   0.516   3.762   2.647 -0.2786 -0.1392  0.4134
17500TIP3   OH273914   2.636   6.369  16.276 -0.0858 -0.0603  0.3577
17500TIP3    H173915   2.569   6.302  16.263 -1.2307  0.6962  1.9945
17500TIP3    H273916   2.649   6.373  16.370 -0.6934  2.5468  0.4239
17501TIP3   OH273917   0.154   5.339   1.827  0.4876 -0.5381 -0.2587
17501TIP3    H173918   0.231   5.363   1.880  0.0934  1.1501 -0.3824
17501TIP3    H273919   0.189   5.328   1.739  0.6846 -0.3688 -0.2046
17502TIP3   OH273920   2.734   0.042  11.105  0.2076  0.0298 -0.7118
17502TIP3    H173921   2.735   0.003  11.193  3.3390  0.8399 -0.2684
17502TIP3    H273922   2.780  -0.021  11.050  0.9260  0.8707 -1.0933
17503TIP3   OH273923   6.414   5.701  13.024  0.1827 -0.3909 -0.6860
17503TIP3    H173924   6.426   5.617  13.069 -0.1349  1.1606  2.5866
17503TIP3    H273925   6.381   5.677  12.937 -1.5539 -3.6430  0.6754
17504TIP3   OH273926   4.015   6.469   3.029 -0.1579  0.0572  0.0342
17504TIP3    H173927   4.100   6.425   3.030 -0.1077  0.1460 -0.2270
17504TIP3    H273928   3.990   6.476   3.121  1.0774  1.9134  0.2714
17505TIP3   OH273929   5.061   2.723   1.352  0.1421  0.2495 -0.0369
17505TIP3    H173930   4.973   2.758   1.337  1.3200  2.2300 -3.5202
17505TIP3    H273931   5.117   2.773   1.293  3.9016 -0.0063  2.9196
17506TIP3   OH273932   3.990   5.732   4.423 -0.0297 -0.4351  0.3445
17506TIP3    H173933   3.994   5.665   4.354 -0.5972 -1.5341  1.3452
17506TIP3    H273934   3.940   5.691   4.493 -1.1660  1.3761  0.6463
17507TIP3   OH273935   1.680   1.778   0.672  0.0856  0.0177  0.1687
17507TIP3    H173936   1.770   1.784   0.641  0.6188  2.0385  1.9081
17507TIP3    H273937   1.678   1.699   0.725  0.9014  0.1094  0.3424
17508TIP3   OH273938   3.060   4.091  13.761 -0.1125  0.1826 -0.1414
17508TIP3    H173939   3.123   4.027  13.793 -2.1142 -2.7102 -1.6123
17508TIP3    H273940   3.040   4.063  13.671 -1.8861  2.2788 -0.4898
17509TIP3   OH273941   0.507   4.686  12.056  0.7328  0.2609  0.1322
17509TIP3    H173942   0.487   4.604  12.101  0.4845  0.9908  1.4014
17509TIP3    H273943   0.459   4.681  11.974  0.4099 -0.6966  0.3706
17510TIP3   OH273944   5.202   2.754   2.336 -0.5765  0.2692  0.2981
17510TIP3    H173945   5.230   2.752   2.428  2.2592  1.4907 -0.4480
17510TIP3    H273946   5.132   2.689   2.332  0.2406 -0.9458  2.9985
17511TIP3   OH273947   1.757   4.174   4.306  0.2875 -0.6011 -1.2511
17511TIP3    H173948   1.708   4.157   4.225 -4.5057  1.7387  0.7856
17511TIP3    H273949   1.746   4.094   4.358 -1.6173 -0.0811 -0.7945
17512TIP3   OH273950   1.191   1.768   1.765  0.1896 -0.2399  0.0840
17512TIP3    H173951   1.223   1.837   1.707  0.2065 -0.9560 -0.7840
17512TIP3    H273952   1.268   1.714   1.783 -0.2106 -1.1768 -0.8937
17513TIP3   OH273953   1.077   1.427  14.983  0.3070 -0.4206  0.3284
17513TIP3    H173954   1.041   1.352  14.937 -1.0210  0.0748  0.5061
17513TIP3    H273955   1.159   1.447  14.937 -0.6763 -0.3060 -1.4474
17514TIP3   OH273956   2.567   2.725  10.198 -0.0864 -0.2381 -0.4296
17514TIP3    H173957   2.644   2.719  10.142  1.2178 -0.9152  1.3355
17514TIP3    H273958   2.585   2.800  10.256 -0.0364 -1.2845  0.9589
17515TIP3   OH273959   6.383   1.319  13.265 -0.0824  0.1906  0.5024
17515TIP3    H173960   6.343   1.305  13.179  0.7799  0.4529  0.0405
17515TIP3    H273961   6.376   1.234  13.309  0.4775 -0.2731 -0.2773
17516TIP3   OH273962   5.563   1.505   2.124  0.2066 -0.1315 -0.3897
17516TIP3    H173963   5.646   1.531   2.083  0.3540 -0.4683 -0.3084
17516TIP3    H273964   5.496   1.535   2.063  0.2859  1.6968  0.3543
17517TIP3   OH273965   1.021   2.871  16.649 -0.4064  0.4193 -0.4062
17517TIP3    H173966   1.047   2.941  16.590  0.0408 -0.7360 -1.6268
17517TIP3    H273967   0.927   2.858  16.631 -0.1481 -0.3033 -1.2922
17518TIP3   OH273968   5.346   0.953  17.077  0.7133 -0.4504 -0.3789
17518TIP3    H173969   5.425   0.917  17.038  0.8172 -1.9121  1.0935
17518TIP3    H273970   5.376   1.032  17.123  1.0186 -0.1300 -1.1141
17519TIP3   OH273971   6.128   5.586   1.268  0.0827 -0.3041  0.0229
17519TIP3    H173972   6.169   5.506   1.236 -0.7856 -0.5728 -0.4485
17519TIP3    H273973   6.187   5.656   1.239  1.3340 -0.8092  1.2450
17520TIP3   OH273974   2.214   0.463  15.480 -0.3386 -0.0302 -0.2307
17520TIP3    H173975   2.219   0.466  15.576  0.0586 -0.0431 -0.2532
17520TIP3    H273976   2.270   0.389  15.455  1.0232  1.0850 -0.5871
17521TIP3   OH273977   3.890   2.230  14.596 -0.1297  0.6106  0.2740
17521TIP3    H173978   3.864   2.296  14.533 -1.6755 -0.5324 -0.3312
17521TIP3    H273979   3.811   2.179  14.614  0.8967 -0.8313  1.0291
17522TIP3   OH273980   3.281   2.953   1.194 -0.2381  0.1057  0.1965
17522TIP3    H173981   3.357   3.011   1.196 -0.7812  0.8359  0.6111
17522TIP3    H273982   3.251   2.952   1.285 -0.9260  0.1147 -0.0273
17523TIP3   OH273983   6.048   1.912  15.304  0.0487 -0.1783  0.0805
17523TIP3    H173984   6.047   1.900  15.209 -0.3321  1.5174 -0.1580
17523TIP3    H273985   6.122   1.971  15.320 -0.4854  0.3296  0.7222
17524TIP3   OH273986   2.644   5.715  11.462  0.4369  0.6192 -0.5096
17524TIP3    H173987   2.704   5.741  11.392 -0.7544  1.2668 -1.3347
17524TIP3    H273988   2.572   5.778  11.456 -0.3533 -0.1591  0.4212
17525TIP3   OH273989   0.788   0.921  11.333 -0.0805  0.5967  0.1053
17525TIP3    H173990   0.823   0.925  11.244 -1.9734 -1.1567 -0.7818
17525TIP3    H273991   0.695   0.939  11.323 -0.3379  0.2876  1.7383
17526TIP3   OH273992   2.630   6.683  12.942  0.1620 -0.0250  0.5836
17526TIP3    H173993   2.666   6.681  13.031  2.0040 -1.6886 -0.1332
17526TIP3    H273994   2.660   6.767  12.906  0.9856 -0.1604  0.9284
17527TIP3   OH273995   2.921   2.552  12.137  0.2151 -0.0335  0.2764
17527TIP3    H173996   2.990   2.486  12.143  0.4137  0.1779  0.3490
17527TIP3    H273997   2.958   2.629  12.181  0.3824  0.4639 -0.6988
17528TIP3   OH273998   2.017   1.690  16.170  0.6947  0.0595  0.3026
17528TIP3    H173999   2.070   1.660  16.244 -0.3375  0.7511  1.3462
17528TIP3    H274000   2.074   1.678  16.094  1.3111 -1.9180  1.0076
17529TIP3   OH274001   5.017   6.462  15.361 -0.5950  0.0408  0.4962
17529TIP3    H174002   5.049   6.482  15.449 -2.0564  1.1361  0.8138
17529TIP3    H274003   5.062   6.381  15.337  0.0442 -0.1250  2.1298
17530TIP3   OH274004   6.021   0.429   5.743 -1.1602  0.5450 -0.0992
17530TIP3    H174005   6.070   0.511   5.753 -0.4756 -0.0723  2.1421
17530TIP3    H274006   5.946   0.439   5.801 -2.0295  0.2288 -1.1320
17531TIP3   OH274007   3.758   3.594   2.862 -0.1486  0.4830  0.6178
17531TIP3    H174008   3.699   3.626   2.931 -1.2884 -0.9442  0.3538
17531TIP3    H274009   3.742   3.500   2.859  1.1653  0.2684 -0.4252
17532TIP3   OH274010   6.768   4.089   4.469 -0.3870  0.1260 -0.3835
17532TIP3    H174011   6.855   4.090   4.510 -0.1633 -1.0607 -0.7918
17532TIP3    H274012   6.708   4.108   4.541  0.1195 -0.2999  0.1708
17533TIP3   OH274013   4.500   2.392   0.268  0.0397 -0.5946 -0.6150
17533TIP3    H174014   4.521   2.299   0.273 -0.6066 -0.8133 -1.6698
17533TIP3    H274015   4.567   2.429   0.210  2.7859  0.4355  2.8520
17534TIP3   OH274016   4.707   0.065   3.922  0.6242 -0.2248  0.5376
17534TIP3    H174017   4.643  -0.005   3.934  0.0803  0.1216 -0.2215
17534TIP3    H274018   4.727   0.094   4.011 -1.7372  0.9345  0.7804
17535TIP3   OH274019   5.677   5.899  16.438  0.1222  0.3241  0.2600
17535TIP3    H174020   5.708   5.882  16.527  1.8263 -1.8785 -0.6657
17535TIP3    H274021   5.706   5.988  16.418  0.2146  0.6271  1.6733
17536TIP3   OH274022   1.495   4.253   1.719 -0.1432 -0.1404 -0.1459
17536TIP3    H174023   1.406   4.230   1.749  0.2522 -0.0305  1.2025
17536TIP3    H274024   1.514   4.190   1.650 -1.1747 -0.3316 -0.2816
17537TIP3   OH274025   3.625   3.803   5.279 -0.1359  0.1953  0.0497
17537TIP3    H174026   3.686   3.780   5.208 -0.2744  1.7430 -0.6128
17537TIP3    H274027   3.621   3.724   5.333  2.0249 -0.1580 -0.1807
17538TIP3   OH274028   4.955   2.611   2.358  0.0858 -0.3919  0.1599
17538TIP3    H174029   4.907   2.666   2.420  3.1010  1.0864  1.3843
17538TIP3    H274030   4.906   2.618   2.276 -1.9787  0.6015  1.3947
17539TIP3   OH274031   3.057   4.846   3.892  0.2977  0.2619  0.4165
17539TIP3    H174032   3.090   4.925   3.936  0.8064  1.3180 -1.7258
17539TIP3    H274033   3.136   4.802   3.860 -0.0921 -0.0578 -0.1108
17540TIP3   OH274034   0.540   4.592  13.278 -0.0730 -0.1014  0.0180
17540TIP3    H174035   0.594   4.516  13.301 -0.0607  0.4369  1.8999
17540TIP3    H274036   0.596   4.644  13.221 -0.0158 -1.3827 -1.1607
17541TIP3   OH274037   1.807   5.106  11.635 -0.5399  0.3330  0.4897
17541TIP3    H174038   1.742   5.140  11.573 -0.6635 -0.3542  0.2230
17541TIP3    H274039   1.765   5.112  11.720 -0.0925  1.9713  0.6278
17542TIP3   OH274040   1.575   4.240   2.448 -0.7184 -0.1018 -0.0205
17542TIP3    H174041   1.553   4.320   2.495 -3.2873 -0.3438 -0.6835
17542TIP3    H274042   1.551   4.258   2.357  1.4786 -0.6405 -0.7719
17543TIP3   OH274043   3.998   0.510   4.670 -0.2926 -0.0077 -0.2228
17543TIP3    H174044   4.076   0.454   4.667  0.6967  1.2747  0.6811
17543TIP3    H274045   3.988   0.542   4.580 -0.1510 -0.6396 -0.4742
17544TIP3   OH274046   3.867   6.805   3.438 -0.2975  0.2038  0.0021
17544TIP3    H174047   3.962   6.816   3.443 -0.1022 -0.7748 -1.0604
17544TIP3    H274048   3.845   6.752   3.514  0.2388 -0.8207 -0.5316
17545TIP3   OH274049   4.558   5.056  15.215 -0.2193  0.0422  0.0226
17545TIP3    H174050   4.645   5.094  15.233  0.2072 -0.0134 -1.7504
17545TIP3    H274051   4.568   4.964  15.237 -0.0037  0.1344  0.3328
17546TIP3   OH274052   1.119   0.340  15.585  0.1872  0.3448 -0.4615
17546TIP3    H174053   1.112   0.399  15.510  0.1059  1.4831  0.4148
17546TIP3    H274054   1.121   0.398  15.661 -0.0641 -0.7997  0.4440
17547TIP3   OH274055   5.507   0.016  15.671 -0.1251 -0.1848 -0.4643
17547TIP3    H174056   5.551   0.041  15.752 -0.7325 -1.0622  0.1547
17547TIP3    H274057   5.499  -0.080  15.677 -3.8539  0.0140  0.4171
17548TIP3   OH274058   6.126   1.988   3.846 -0.1720  0.1218 -0.0690
17548TIP3    H174059   6.088   1.941   3.772 -0.3657 -0.0886  0.1633
17548TIP3    H274060   6.169   1.920   3.898  0.1642  0.3001 -0.1087
17549TIP3   OH274061   1.238   0.653   0.448  0.3567  0.3367 -0.0063
17549TIP3    H174062   1.210   0.692   0.365 -0.5892 -0.6729 -0.1809
17549TIP3    H274063   1.164   0.599   0.475 -0.3377  2.4001  2.6690
17550TIP3   OH274064   5.417   1.115   6.481 -0.2821  0.2032  0.5625
17550TIP3    H174065   5.468   1.041   6.448 -0.2961  0.3141  0.2900
17550TIP3    H274066   5.413   1.102   6.576  1.8195  1.1552  0.8349
17551TIP3   OH274067   1.964   3.905   4.877 -0.3291  0.8112 -0.3147
17551TIP3    H174068   1.899   3.900   4.947  0.3186  0.7281  0.3007
17551TIP3    H274069   1.965   3.998   4.852 -0.2474  0.9278  0.1080
17552TIP3   OH274070   1.757   1.033   3.147 -0.1099 -0.0759 -0.5524
17552TIP3    H174071   1.691   1.079   3.095 -2.5326  0.7828  2.9099
17552TIP3    H274072   1.825   1.099   3.163 -1.3663  0.9841  0.6578
17553TIP3   OH274073   2.842   4.391  16.737  0.5746  0.4857 -0.0643
17553TIP3    H174074   2.894   4.459  16.780 -0.2466  1.6929 -0.9307
17553TIP3    H274075   2.788   4.355  16.807  1.8239 -0.0731  0.6337
17554TIP3   OH274076   1.468   3.961   5.635  0.5008  0.2037 -0.2335
17554TIP3    H174077   1.493   4.017   5.562  0.8698  0.0877 -0.1992
17554TIP3    H274078   1.388   4.000   5.669  1.0893  1.0669  0.1767
17555TIP3   OH274079   5.451   6.182  10.827  0.2821  0.2028  0.3928
17555TIP3    H174080   5.428   6.252  10.767 -0.4935 -1.8473 -1.8864
17555TIP3    H274081   5.530   6.213  10.872 -0.6446  2.8938  0.2954
17556TIP3   OH274082   2.201   5.026   3.834 -0.1868  0.6041 -0.8604
17556TIP3    H174083   2.254   5.010   3.756  0.3726 -4.9204  0.2113
17556TIP3    H274084   2.265   5.032   3.905 -0.6886 -2.7595  0.0226
17557TIP3   OH274085   2.227   4.611   3.815 -0.6252 -0.1092 -0.4134
17557TIP3    H174086   2.247   4.661   3.736  0.8427  0.4955  0.2774
17557TIP3    H274087   2.199   4.526   3.784 -3.1239  1.0741 -1.6365
17558TIP3   OH274088   3.280   6.370   3.498  0.1629  0.1549  0.3111
17558TIP3    H174089   3.248   6.425   3.426  1.1676  0.0880 -0.2155
17558TIP3    H274090   3.300   6.432   3.568  0.3530  0.3660  0.0754
17559TIP3   OH274091   1.133   4.943  15.008 -0.3287 -0.5272 -0.1884
17559TIP3    H174092   1.129   4.935  15.103  0.5641 -0.7575 -0.1609
17559TIP3    H274093   1.122   4.853  14.976 -0.9965 -0.4004 -0.3188
17560TIP3   OH274094   4.003   1.698   0.100  0.3533  0.4340 -0.3046
17560TIP3    H174095   4.089   1.740   0.095  0.9455 -0.3861  1.9888
17560TIP3    H274096   3.986   1.667   0.011  2.8013 -0.0632 -0.6583
17561TIP3   OH274097   3.591   2.020   2.180  0.8176 -0.1452  0.5096
17561TIP3    H174098   3.546   2.000   2.098  0.1792  3.0056 -0.0315
17561TIP3    H274099   3.665   1.959   2.182 -1.0176 -2.5984 -0.6700
17562TIP3   OH274100   2.845   0.570   5.587 -0.1313  0.9615 -0.8750
17562TIP3    H174101   2.844   0.655   5.544 -4.7783  0.6440 -1.9128
17562TIP3    H274102   2.775   0.574   5.652 -0.1310 -1.8620 -0.5366
17563TIP3   OH274103   6.185   6.312  13.765  0.8505 -0.0801 -1.0195
17563TIP3    H174104   6.252   6.292  13.831  1.3776  0.8308 -1.2691
17563TIP3    H274105   6.230   6.303  13.681  0.6597  0.5208 -1.1933
17564TIP3   OH274106   6.745   5.987   3.630 -0.7631  0.4436 -0.5265
17564TIP3    H174107   6.798   6.059   3.596  2.3583 -1.1320  0.5775
17564TIP3    H274108   6.750   5.919   3.563 -1.4313  0.2587 -0.3997
17565TIP3   OH274109   1.210   1.868  15.147 -0.3315  0.3765  0.2219
17565TIP3    H174110   1.199   1.928  15.221 -1.9029  0.6222 -0.1752
17565TIP3    H274111   1.162   1.789  15.173 -0.2461  0.1766 -0.2275
17566TIP3   OH274112   4.229   0.728  13.779 -0.3391  0.0744 -0.2271
17566TIP3    H174113   4.135   0.715  13.782 -0.4401  0.2325 -1.8643
17566TIP3    H274114   4.245   0.771  13.695  1.3416 -1.3037 -0.6743
17567TIP3   OH274115   3.444   5.521   5.435 -0.2668 -0.1638 -0.0733
17567TIP3    H174116   3.511   5.579   5.472 -1.1679  1.6646 -1.1142
17567TIP3    H274117   3.390   5.497   5.509  0.1403  0.3301  0.3972
17568TIP3   OH274118   0.323   4.099   0.885  0.2356  0.2944 -0.4179
17568TIP3    H174119   0.242   4.136   0.851  0.6403  0.1567 -1.6095
17568TIP3    H274120   0.297   4.051   0.964 -0.6637  1.0888 -0.2197
17569TIP3   OH274121   4.029   3.227   3.484  0.0647 -0.2206  0.7570
17569TIP3    H174122   4.064   3.274   3.408 -0.7012  3.4742  2.5110
17569TIP3    H274123   4.107   3.198   3.532  0.5864  0.6231  0.4306
17570TIP3   OH274124   5.046   6.313  14.459  0.0864 -0.3455  0.2254
17570TIP3    H174125   4.996   6.230  14.460  1.5537 -1.2688 -0.3804
17570TIP3    H274126   5.091   6.312  14.375 -1.7853  2.3040 -0.9380
17571TIP3   OH274127   1.603   3.524   5.254  0.8537  0.8701 -0.3905
17571TIP3    H174128   1.611   3.433   5.282  0.2882  1.3850  1.6156
17571TIP3    H274129   1.547   3.521   5.177 -0.7213 -0.3449  0.7289
17572TIP3   OH274130   5.103   1.290   5.250 -0.0664  0.0412 -0.0596
17572TIP3    H174131   5.119   1.204   5.211 -1.5771  0.2761 -1.2863
17572TIP3    H274132   5.186   1.337   5.238  0.8332 -1.2663  0.7734
17573TIP3   OH274133   2.307   2.628   3.086 -0.3101  0.3477 -0.0497
17573TIP3    H174134   2.345   2.558   3.032 -0.4649 -0.2823  0.6377
17573TIP3    H274135   2.299   2.702   3.026  0.1519 -0.1235 -0.7167
17574TIP3   OH274136   1.711   3.603  11.086 -0.3239  0.1579  0.5074
17574TIP3    H174137   1.658   3.677  11.117  0.4620  0.8650  0.1946
17574TIP3    H274138   1.650   3.529  11.087 -1.3421  0.9523  0.1202
17575TIP3   OH274139   5.625   6.416  10.278  0.1734  0.0107  0.4476
17575TIP3    H174140   5.623   6.427  10.373 -1.8815 -1.0002  0.5647
17575TIP3    H274141   5.617   6.322  10.264 -0.5655  0.2246 -0.7201
17576TIP3   OH274142   2.334   1.137  12.639 -0.2460  0.1557  0.1839
17576TIP3    H174143   2.332   1.043  12.622  0.8353 -0.0394  0.9905
17576TIP3    H274144   2.342   1.144  12.734  1.6438  1.0002  0.0071
17577TIP3   OH274145   0.558   2.546   0.862 -0.1188  0.2835  0.6393
17577TIP3    H174146   0.560   2.551   0.957 -0.4484 -1.1656  0.7369
17577TIP3    H274147   0.647   2.522   0.837  0.0615  1.0254  0.5463
17578TIP3   OH274148   0.581   2.880  15.920 -0.2314  0.3441  0.3495
17578TIP3    H174149   0.525   2.821  15.971 -0.4734 -0.3286 -0.6491
17578TIP3    H274150   0.546   2.967  15.937  1.5197  0.5599  3.6702
17579TIP3   OH274151   3.110   0.859   2.575 -0.3135 -0.5019 -0.0026
17579TIP3    H174152   3.129   0.939   2.625  0.2511 -0.2652 -0.5780
17579TIP3    H274153   3.075   0.798   2.640  0.0004 -0.0570  0.6002
17580TIP3   OH274154   1.663   2.315   2.206  0.7201  0.5425  0.7385
17580TIP3    H174155   1.650   2.346   2.116  2.2479  0.2149  0.3867
17580TIP3    H274156   1.690   2.224   2.196 -0.9720 -0.1049  1.6482
17581TIP3   OH274157   5.530   0.663   0.344  0.0123 -0.1055  0.4478
17581TIP3    H174158   5.456   0.603   0.356 -0.3467  0.0231 -1.0001
17581TIP3    H274159   5.500   0.745   0.382 -1.3995  0.5119 -1.8225
17582TIP3   OH274160   6.773   6.140  13.996  0.5124  0.0988  0.1581
17582TIP3    H174161   6.796   6.114  13.907 -3.0936 -1.4611 -0.4890
17582TIP3    H274162   6.826   6.219  14.012  1.1222  0.5956 -3.4299
17583TIP3   OH274163   6.314   6.247   5.524  0.7716 -1.0506  0.2796
17583TIP3    H174164   6.366   6.318   5.484  0.8671 -0.4428  1.4397
17583TIP3    H274165   6.368   6.216   5.596 -0.1796 -0.8675  1.0902
17584TIP3   OH274166   1.786   3.851   3.607  0.3412 -0.7532 -0.5371
17584TIP3    H174167   1.709   3.906   3.594 -0.3477 -1.8630 -1.3563
17584TIP3    H274168   1.857   3.897   3.563 -0.3160 -0.6945 -1.5706
17585TIP3   OH274169   4.960   2.237   4.882 -0.4864  0.1183 -0.4483
17585TIP3    H174170   5.036   2.257   4.938  0.9115 -1.4766 -1.6532
17585TIP3    H274171   4.975   2.146   4.855 -3.1901 -0.4485 -0.2298
17586TIP3   OH274172   0.360   3.947  16.109  0.1883 -0.5256  0.1634
17586TIP3    H174173   0.293   3.954  16.041  1.1453 -0.4474 -0.8047
17586TIP3    H274174   0.349   4.026  16.162  1.0477  0.7471 -1.4626
17587TIP3   OH274175   6.710   3.601  13.284 -0.6504  0.4651 -0.1668
17587TIP3    H174176   6.740   3.548  13.210 -2.5968 -1.3137  0.2392
17587TIP3    H274177   6.786   3.608  13.341 -0.2456 -1.7353 -0.3475
17588TIP3   OH274178   0.122   1.240  16.559 -0.1973  0.3713  0.3518
17588TIP3    H174179   0.163   1.324  16.538  0.2669 -0.0506 -0.4560
17588TIP3    H274180   0.072   1.217  16.481 -0.2965 -0.1225  0.5565
17589TIP3   OH274181   0.107   3.226  16.547  0.2159 -0.7803 -0.3185
17589TIP3    H174182   0.104   3.209  16.641  0.6750 -0.2254 -0.1987
17589TIP3    H274183   0.178   3.289  16.536  0.9282 -1.6922 -1.1673
17590TIP3   OH274184   0.926   3.040   2.984  0.1757  0.0123  0.0263
17590TIP3    H174185   0.893   3.091   2.910 -0.6210  0.3529  0.6006
17590TIP3    H274186   0.926   3.101   3.057  1.1893 -0.2546  0.2652
17591TIP3   OH274187   5.232   2.200  16.135 -0.0514  0.5235  0.1035
17591TIP3    H174188   5.271   2.279  16.098  0.4505 -0.0701 -0.6628
17591TIP3    H274189   5.140   2.223  16.148  0.0444  1.1685 -0.3142
17592TIP3   OH274190   1.541   0.371   3.891 -0.0343 -0.3771 -0.2787
17592TIP3    H174191   1.456   0.408   3.867 -0.2760 -1.6810 -1.5441
17592TIP3    H274192   1.604   0.419   3.836 -0.0665 -0.1206 -0.0915
17593TIP3   OH274193   1.451   3.580   3.033  0.1475  0.8521 -0.5325
17593TIP3    H174194   1.393   3.652   3.008 -1.6492 -0.4170 -0.1927
17593TIP3    H274195   1.472   3.536   2.951 -0.1964  0.7061 -0.5410
17594TIP3   OH274196   4.363   5.954   5.036  0.1625  0.2724  0.4103
17594TIP3    H174197   4.316   5.946   5.119 -1.0462  0.0446 -0.2687
17594TIP3    H274198   4.333   5.880   4.984  3.0197 -1.2408  0.7184
17595TIP3   OH274199   2.457   0.337  14.237  0.2013 -0.2767  0.2527
17595TIP3    H174200   2.488   0.411  14.289  1.0125 -0.4950  0.0959
17595TIP3    H274201   2.453   0.264  14.298  0.3800 -0.3391  0.1929
17596TIP3   OH274202   3.164   4.823  16.948  0.4699 -0.0575 -0.5855
17596TIP3    H174203   3.098   4.873  16.996  1.1745 -0.0823  0.4350
17596TIP3    H274204   3.184   4.878  16.872  1.1055  1.1755  0.4301
17597TIP3   OH274205   4.761   6.704   1.895 -0.3403 -0.5814  0.1011
17597TIP3    H174206   4.852   6.726   1.878 -0.9926  1.2201 -1.3362
17597TIP3    H274207   4.720   6.702   1.809 -1.8384 -0.4765  0.7782
17598TIP3   OH274208   0.373   4.751   0.015 -0.8685 -1.1157  0.5805
17598TIP3    H174209   0.456   4.771  -0.027 -0.6732 -1.2529  0.8972
17598TIP3    H274210   0.372   4.804   0.095 -1.5484 -0.3225  0.0585
17599TIP3   OH274211   1.192   3.993  14.698 -0.1187 -0.5574  0.6178
17599TIP3    H174212   1.172   3.934  14.626 -1.1251 -0.9741  1.2119
17599TIP3    H274213   1.152   3.952  14.775  1.8704 -0.7045  1.6542
17600TIP3   OH274214   3.611   4.658   4.119  0.2613 -0.0954 -0.4223
17600TIP3    H174215   3.706   4.656   4.109  0.3504 -1.4296  0.3268
17600TIP3    H274216   3.598   4.665   4.214 -0.3848 -0.1344 -0.5078
17601TIP3   OH274217   4.591   5.618  15.551 -0.1780  0.4499 -0.4720
17601TIP3    H174218   4.521   5.565  15.588  0.3251  0.0524 -0.0664
17601TIP3    H274219   4.619   5.675  15.622  0.0252  0.4817 -0.5741
17602TIP3   OH274220   1.076   5.193   0.244 -0.3626  0.4463 -0.0024
17602TIP3    H174221   1.072   5.259   0.313 -2.0889 -1.2125  1.5737
17602TIP3    H274222   1.089   5.110   0.290  2.5266 -0.3662 -1.9500
17603TIP3   OH274223   1.012   4.378  10.536  0.0259 -0.6019  0.2330
17603TIP3    H174224   1.042   4.298  10.493 -1.0993 -1.1506  0.4065
17603TIP3    H274225   0.940   4.348  10.592 -0.2963  0.5093  0.4273
17604TIP3   OH274226   4.761   6.050   4.919 -0.1431  0.1421  0.7813
17604TIP3    H174227   4.690   6.111   4.939 -0.9847 -0.3953 -0.4340
17604TIP3    H274228   4.786   6.072   4.829  0.7395 -0.1710  0.9357
17605TIP3   OH274229   5.431   2.585  11.868  0.4149 -0.0100  0.1809
17605TIP3    H174230   5.464   2.580  11.778  0.1847 -0.8260  0.1320
17605TIP3    H274231   5.346   2.630  11.860 -0.2069 -1.2192 -0.1908
17606TIP3   OH274232   4.007   6.443  12.877 -0.1569  0.2701 -0.2951
17606TIP3    H174233   3.981   6.413  12.964 -1.0195 -1.0437 -0.9705
17606TIP3    H274234   4.102   6.454  12.883 -0.3177  1.1327  1.0630
17607TIP3   OH274235   4.730   6.750   4.795 -0.3899 -0.4841 -0.2479
17607TIP3    H174236   4.691   6.775   4.711 -0.5662 -0.0977 -0.0551
17607TIP3    H274237   4.695   6.814   4.858  1.4542  0.6121 -0.2721
17608TIP3   OH274238   4.360   3.191   6.179  0.4330 -0.0691 -0.6640
17608TIP3    H174239   4.269   3.190   6.209 -0.2769  0.6457 -2.6313
17608TIP3    H274240   4.407   3.137   6.243 -0.9053  1.4538  1.7476
17609TIP3   OH274241   2.866   6.331   4.895  0.0827  0.0557  0.4592
17609TIP3    H174242   2.923   6.269   4.848  0.9663  1.6276 -0.6577
17609TIP3    H274243   2.862   6.407   4.837 -0.0037  1.5040  2.2844
17610TIP3   OH274244   1.126   1.914  11.249 -0.0625 -0.5402 -0.7254
17610TIP3    H174245   1.049   1.970  11.256  0.3630  0.0287 -0.5116
17610TIP3    H274246   1.095   1.836  11.202 -0.6534 -0.1159 -1.0517
17611TIP3   OH274247   4.862   0.280  16.441 -0.3536 -0.1527  0.5154
17611TIP3    H174248   4.904   0.262  16.356 -0.7561  0.5311  0.1585
17611TIP3    H274249   4.935   0.293  16.501 -0.0509 -1.7518  0.5437
17612TIP3   OH274250   1.571   1.290  12.996  0.3244 -0.5988  0.0864
17612TIP3    H174251   1.567   1.385  13.002  0.2536 -0.5303 -0.9233
17612TIP3    H274252   1.487   1.265  12.958 -0.6521 -1.2804  2.4664
17613TIP3   OH274253   0.454   3.452   4.039 -0.3902  0.5388 -0.2655
17613TIP3    H174254   0.372   3.457   4.087 -0.5561 -1.3427 -0.2692
17613TIP3    H274255   0.435   3.395   3.964  0.5892  1.1372 -0.9988
17614TIP3   OH274256   1.833   2.936   4.400  0.2873 -0.1424 -0.8763
17614TIP3    H174257   1.783   2.867   4.442 -0.8185  0.9990 -0.2372
17614TIP3    H274258   1.914   2.942   4.450 -1.5456  2.0999  2.1274
17615TIP3   OH274259   3.942   0.534   4.405 -0.1660  0.5721 -0.4068
17615TIP3    H174260   3.920   0.627   4.415  0.0085  0.8908 -2.5810
17615TIP3    H274261   3.868   0.497   4.356  0.3022 -0.1884 -0.5500
17616TIP3   OH274262   3.705   2.036   0.920 -0.2206 -0.4543  0.7491
17616TIP3    H174263   3.709   2.079   0.834  2.2833 -0.9089  0.5434
17616TIP3    H274264   3.694   2.107   0.982  1.0460  0.2576  0.2121
17617TIP3   OH274265   0.955   5.861   3.376 -0.1396  0.1553  0.2518
17617TIP3    H174266   0.995   5.795   3.319  0.2893  0.4552  0.2044
17617TIP3    H274267   0.940   5.936   3.318 -0.5417  0.1334  0.3267
17618TIP3   OH274268   1.704   2.001   4.643  0.0136 -0.5566 -0.4502
17618TIP3    H174269   1.671   2.042   4.724  1.8421  0.8549 -0.3633
17618TIP3    H274270   1.790   1.967   4.667  0.6141 -0.0452 -1.8073
17619TIP3   OH274271   4.215   6.716  14.762 -0.9214  0.0035  0.0168
17619TIP3    H174272   4.233   6.659  14.837 -2.0632 -0.2790  0.1106
17619TIP3    H274273   4.299   6.755  14.740 -0.6431  0.5447  1.8171
17620TIP3   OH274274   0.363   4.177   3.877  0.2737  0.0308  0.2686
17620TIP3    H174275   0.356   4.268   3.906  0.6433  0.3887 -0.7406
17620TIP3    H274276   0.452   4.150   3.904  0.9449  0.6403 -1.2569
17621TIP3   OH274277   2.377   0.239   3.052  0.1279 -0.2305 -0.2628
17621TIP3    H174278   2.292   0.262   3.013  0.5916  1.0959 -0.5432
17621TIP3    H274279   2.412   0.322   3.083  0.7757 -0.9450  1.0093
17622TIP3   OH274280   1.252   0.578  13.825  0.0597 -0.5246 -0.0225
17622TIP3    H174281   1.167   0.554  13.789  0.7704 -2.0644 -0.7714
17622TIP3    H274282   1.284   0.647  13.767 -0.7446  0.2479  0.4138
17623TIP3   OH274283   6.459   2.451  11.174 -0.0772  0.3766 -0.2367
17623TIP3    H174284   6.539   2.461  11.226  0.8591  0.5182 -1.6469
17623TIP3    H274285   6.438   2.539  11.144 -0.2007  0.2013 -0.6779
17624TIP3   OH274286   5.797   3.754  16.981 -0.0321  0.4157 -0.1311
17624TIP3    H174287   5.842   3.670  16.977 -1.1552 -0.2631  0.6441
17624TIP3    H274288   5.719   3.742  16.927 -0.2893  0.8959  0.1283
17625TIP3   OH274289   2.309   5.068   3.069 -0.8265  0.2690  0.0249
17625TIP3    H174290   2.240   5.070   3.003  0.4433  1.2348 -1.3341
17625TIP3    H274291   2.390   5.085   3.020  0.0145  2.6016  2.0264
17626TIP3   OH274292   2.709   2.091   4.322  0.1983 -0.0001 -0.5552
17626TIP3    H174293   2.660   2.144   4.259  1.7016 -0.1874 -1.9520
17626TIP3    H274294   2.801   2.111   4.303  0.7489 -1.9026 -0.0553
17627TIP3   OH274295   2.610   1.495   4.031 -0.2059 -0.6618 -0.0048
17627TIP3    H174296   2.592   1.542   4.113  1.1282  0.0861 -0.1152
17627TIP3    H274297   2.679   1.433   4.054 -0.9620 -1.6155 -0.2057
17628TIP3   OH274298   2.451   2.931   5.631  0.3487 -0.1828 -0.2716
17628TIP3    H174299   2.439   2.951   5.539 -0.3460  1.5068  0.1661
17628TIP3    H274300   2.534   2.973   5.654 -0.4745  1.1755  0.3350
17629TIP3   OH274301   5.115   0.899  12.233 -0.2505 -0.0319 -0.6220
17629TIP3    H174302   5.068   0.981  12.220 -0.3761 -0.0104 -0.0573
17629TIP3    H274303   5.060   0.833  12.190 -0.6879  0.0281 -0.1701
17630TIP3   OH274304   1.691   0.702   3.344 -0.0958  0.2202 -0.1453
17630TIP3    H174305   1.608   0.665   3.316 -0.4914  1.7424 -1.1508
17630TIP3    H274306   1.704   0.778   3.286  1.9023  0.1286  0.0956
17631TIP3   OH274307   1.995   4.074  15.801 -0.0502  0.0190 -0.5205
17631TIP3    H174308   2.028   3.984  15.798  0.5442  0.1501  1.1160
17631TIP3    H274309   1.901   4.065  15.782 -0.3676 -1.1906  1.3387
17632TIP3   OH274310   5.569   2.644   4.054  0.2863  0.3314 -0.2078
17632TIP3    H174311   5.582   2.612   3.964  0.2273  1.0481 -0.4812
17632TIP3    H274312   5.533   2.569   4.101  0.7168 -0.1815 -0.6772
17633TIP3   OH274313   2.290   3.947   0.509 -0.2720 -0.3877 -0.3203
17633TIP3    H174314   2.264   3.984   0.425  0.4156 -0.2268 -0.4720
17633TIP3    H274315   2.345   3.872   0.486  1.9095  1.0240 -0.0854
17634TIP3   OH274316   4.155   1.922   4.762 -0.0791 -0.1247  0.3547
17634TIP3    H174317   4.084   1.895   4.705 -0.9776 -0.7445  1.7235
17634TIP3    H274318   4.220   1.852   4.755  1.2377  1.1771 -2.1348
17635TIP3   OH274319   4.608   6.555  15.492  0.0148 -0.0773 -0.1393
17635TIP3    H174320   4.700   6.563  15.466  0.2893  0.0110  0.7974
17635TIP3    H274321   4.563   6.624  15.444  0.7264  0.9330  0.6041
17636TIP3   OH274322   4.820   1.013   4.173  0.5861  0.3534 -0.2876
17636TIP3    H174323   4.897   0.967   4.205  1.1183  2.0928  1.0911
17636TIP3    H274324   4.797   1.074   4.243 -0.9331  1.1769 -1.4249
17637TIP3   OH274325   1.163   2.314   2.953 -0.5317  0.4894 -0.1852
17637TIP3    H174326   1.191   2.283   2.867 -0.1882 -0.4127  0.2359
17637TIP3    H274327   1.067   2.320   2.946 -0.4980  0.5000 -0.6506
17638TIP3   OH274328   3.466   0.979   0.827  0.8809  0.1423 -0.0953
17638TIP3    H174329   3.430   1.051   0.879  0.4588  0.1840 -0.4475
17638TIP3    H274330   3.469   0.905   0.888 -0.2374  0.0137 -0.1856
17639TIP3   OH274331   0.902   1.807   2.839  0.4519 -0.1076  0.0993
17639TIP3    H174332   0.951   1.741   2.887  1.9693  0.9610  0.1007
17639TIP3    H274333   0.864   1.863   2.907 -1.1847 -1.1710  0.1099
17640TIP3   OH274334   3.440   2.489   2.878 -0.4608  0.0390  0.3871
17640TIP3    H174335   3.349   2.466   2.862 -0.4869  0.2920  0.1541
17640TIP3    H274336   3.450   2.575   2.836  0.2018 -0.5224 -0.6490
17641TIP3   OH274337   1.208   3.191   0.693  0.0995 -0.2632 -0.4069
17641TIP3    H174338   1.157   3.267   0.664 -0.4399 -0.7586 -0.7929
17641TIP3    H274339   1.240   3.152   0.612 -1.4561 -1.6896 -0.3960
17642TIP3   OH274340   0.323   3.460  13.788  0.5693 -0.0781  0.0752
17642TIP3    H174341   0.272   3.470  13.869 -0.3096 -0.7983 -0.3680
17642TIP3    H274342   0.258   3.464  13.718  1.3037  0.4034 -0.6006
17643TIP3   OH274343   3.251   1.699   4.838  0.1426 -0.5562 -0.5831
17643TIP3    H174344   3.316   1.720   4.905 -1.1825 -0.3115  0.6992
17643TIP3    H274345   3.213   1.784   4.815 -0.6763 -0.8227 -0.2640
17644TIP3   OH274346   0.371   3.080   0.327  0.1241 -0.2100  0.5429
17644TIP3    H174347   0.406   3.167   0.349  3.0281 -0.9088 -0.8320
17644TIP3    H274348   0.374   3.032   0.410  1.1078  0.2243  0.7788
17645TIP3   OH274349   1.845   0.129  16.569 -0.0387 -0.7345 -0.0929
17645TIP3    H174350   1.918   0.189  16.557  0.4959 -1.1685  0.9494
17645TIP3    H274351   1.778   0.181  16.614 -0.7165 -0.1056 -1.7348
17646TIP3   OH274352   0.789   1.359  15.482 -0.0730 -0.1570  0.3580
17646TIP3    H174353   0.707   1.346  15.530  0.4688 -1.8192  0.9028
17646TIP3    H274354   0.829   1.272  15.479 -0.3323 -0.2965 -3.6878
17647TIP3   OH274355   4.701   3.424  13.874 -0.5514 -0.0144  0.7649
17647TIP3    H174356   4.611   3.395  13.890 -0.5036 -0.4556  0.2642
17647TIP3    H274357   4.700   3.518  13.896 -0.4584 -0.5538  3.4294
17648TIP3   OH274358   4.331   0.520   4.222 -0.1619  0.2954 -0.6149
17648TIP3    H174359   4.279   0.491   4.147 -2.3229 -0.7906  1.1769
17648TIP3    H274360   4.382   0.594   4.189 -3.1353  1.7071 -2.4764
17649TIP3   OH274361   4.324   0.617  11.338 -0.1831  0.6255 -0.1167
17649TIP3    H174362   4.259   0.658  11.396 -0.1075 -1.9034  1.9328
17649TIP3    H274363   4.272   0.575  11.270 -0.6991 -0.7327  1.0801
17650TIP3   OH274364   1.558   0.924   4.311  0.8610  0.1538 -0.3798
17650TIP3    H174365   1.547   1.009   4.353  1.2932 -1.0977  2.4852
17650TIP3    H274366   1.470   0.897   4.287  0.2275 -0.0920  2.0030
17651TIP3   OH274367   6.331   1.653  11.220 -0.6042  0.0491 -0.2529
17651TIP3    H174368   6.246   1.643  11.177 -0.5151  1.1202 -0.6912
17651TIP3    H274369   6.315   1.716  11.290 -0.4527 -0.7257  0.5020
17652TIP3   OH274370   6.531   6.289  11.105  0.2540 -0.1610 -0.2567
17652TIP3    H174371   6.502   6.198  11.111  1.6072 -0.6792 -1.0673
17652TIP3    H274372   6.601   6.296  11.170 -0.4851  0.5853  0.4783
17653TIP3   OH274373   5.295   3.515  15.652 -0.0641 -0.0364  0.5855
17653TIP3    H174374   5.245   3.454  15.597  1.3880 -0.9065  0.1779
17653TIP3    H274375   5.333   3.460  15.720  0.3728  0.5936  0.8611
17654TIP3   OH274376   2.279   6.136   3.027 -0.0381  0.2087  0.3929
17654TIP3    H174377   2.344   6.149   2.957 -0.3098 -0.7369 -0.0445
17654TIP3    H274378   2.203   6.187   2.998 -0.0022  0.1585  0.2087
17655TIP3   OH274379   0.857   0.931   4.960  0.0811 -0.3186 -0.0562
17655TIP3    H174380   0.919   1.002   4.941  0.8464 -0.8041  0.5832
17655TIP3    H274381   0.771   0.973   4.955  0.5045  0.5721 -0.0545
17656TIP3   OH274382   0.883   6.590  11.886 -0.1580  0.3096  0.6473
17656TIP3    H174383   0.881   6.570  11.792 -0.4253  1.8955  0.2868
17656TIP3    H274384   0.818   6.659  11.897  1.6059  1.9326  1.5436
17657TIP3   OH274385   5.036   0.848   4.296  0.6390 -0.3123  0.1992
17657TIP3    H174386   5.125   0.882   4.285  0.1579  1.3784  1.0904
17657TIP3    H274387   5.008   0.824   4.208  1.1771  1.3025 -0.4445
17658TIP3   OH274388   5.152   1.958   2.344  0.0379  0.1299  0.2902
17658TIP3    H174389   5.243   1.929   2.336 -0.3248 -1.1301  0.3881
17658TIP3    H274390   5.103   1.892   2.295 -0.7230  1.4971 -0.8661
17659TIP3   OH274391   0.339   4.514  10.681 -0.0070 -0.0255 -0.0471
17659TIP3    H174392   0.365   4.593  10.633  0.3154 -0.0328  0.1064
17659TIP3    H274393   0.249   4.497  10.653  0.0316  0.2117 -0.3267
17660TIP3   OH274394   4.097   3.034  11.294 -0.0440  0.3532 -0.0066
17660TIP3    H174395   4.144   2.951  11.284 -0.9366 -0.1375 -0.2272
17660TIP3    H274396   4.158   3.100  11.262  1.9219  0.2036  3.0206
17661TIP3   OH274397   2.833   4.665   0.096  0.1492 -0.6884  0.0825
17661TIP3    H174398   2.848   4.759   0.110 -1.1477 -0.6926  1.7525
17661TIP3    H274399   2.920   4.627   0.092  0.6832  0.4537  0.4227
17662TIP3   OH274400   1.144   3.285   4.014 -0.3645 -0.6490 -0.2594
17662TIP3    H174401   1.206   3.301   4.085  1.6377  0.4158 -2.1064
17662TIP3    H274402   1.126   3.372   3.978 -0.3538 -1.2374 -1.7680
17663TIP3   OH274403   0.445   0.756  14.814  0.5390  0.1864 -0.6851
17663TIP3    H174404   0.537   0.773  14.833  0.0653  0.4619  1.6524
17663TIP3    H274405   0.446   0.699  14.737  2.7104 -0.7750 -0.0069
17664TIP3   OH274406   3.303   2.681  15.244  0.0300  0.4438  0.2252
17664TIP3    H174407   3.306   2.611  15.310 -0.4792 -0.2493 -0.4721
17664TIP3    H274408   3.219   2.668  15.200 -0.0112  1.4252 -0.0012
17665TIP3   OH274409   4.798   0.628  13.819 -0.0121  0.4627 -0.6225
17665TIP3    H174410   4.809   0.697  13.754  1.1868  1.1013  0.2307
17665TIP3    H274411   4.764   0.673  13.897  2.0212  0.3593  0.3738
17666TIP3   OH274412   1.929   4.911  13.200 -0.1451  0.0853  0.2016
17666TIP3    H174413   1.921   4.823  13.236  0.8505  0.2339  0.8532
17666TIP3    H274414   1.977   4.899  13.118  2.7760  0.2359  1.7349
17667TIP3   OH274415   5.908   3.153  16.479  1.0168  0.1308 -0.1314
17667TIP3    H174416   5.831   3.120  16.432  0.0508  1.3536  0.5421
17667TIP3    H274417   5.983   3.113  16.434  0.0185 -0.5984 -1.1836
17668TIP3   OH274418   2.198   3.662   4.861 -0.3996  0.3237 -0.2294
17668TIP3    H174419   2.228   3.748   4.830 -1.3500  0.7936  0.0973
17668TIP3    H274420   2.112   3.651   4.820 -0.7009 -0.0364  0.4764
17669TIP3   OH274421   1.898   5.671  14.961  0.4330 -0.8140  0.0824
17669TIP3    H174422   1.877   5.763  14.943  0.9777 -0.4968  1.0036
17669TIP3    H274423   1.869   5.657  15.051  1.2720 -1.2548  0.2952
17670TIP3   OH274424   1.081   6.543   0.148 -0.6041  0.0273  0.0992
17670TIP3    H174425   1.124   6.628   0.162  0.0863 -0.2791 -0.0961
17670TIP3    H274426   1.005   6.545   0.205  0.4441  0.0263  1.5557
17671TIP3   OH274427   4.621   1.695   3.083  0.3591 -0.4237 -0.0295
17671TIP3    H174428   4.711   1.726   3.090  0.3864  0.0433 -1.8490
17671TIP3    H274429   4.627   1.601   3.100  1.5944 -0.8106 -2.1878
17672TIP3   OH274430   6.542   5.585  15.650  0.1166  0.2852  0.2074
17672TIP3    H174431   6.495   5.503  15.632  0.5974 -0.5434  2.5063
17672TIP3    H274432   6.509   5.645  15.583 -1.3005 -1.3673 -0.6822
17673TIP3   OH274433   4.424   3.541   4.064 -0.1808  0.1214 -0.0295
17673TIP3    H174434   4.368   3.618   4.061 -1.4747 -0.7215  1.1623
17673TIP3    H274435   4.423   3.507   3.974  1.0713  1.9018 -0.7680
17674TIP3   OH274436   5.837   1.881   3.703 -0.0654 -0.7556  0.1877
17674TIP3    H174437   5.843   1.934   3.783 -1.8735  1.0637 -0.7659
17674TIP3    H274438   5.928   1.868   3.676  0.5166  2.2725  0.3108
17675TIP3   OH274439   0.197   6.129   2.380 -0.0862  0.5163 -0.7738
17675TIP3    H174440   0.234   6.217   2.372 -1.0349  0.8375 -1.7899
17675TIP3    H274441   0.107   6.138   2.349 -0.7336 -0.4557  0.7217
17676TIP3   OH274442   3.676   5.599  15.986  0.3868  0.1369 -0.2359
17676TIP3    H174443   3.662   5.504  15.989 -0.1562  0.2052 -0.4938
17676TIP3    H274444   3.758   5.613  16.034  0.8285 -0.5370 -0.7723
17677TIP3   OH274445   3.936   0.151   4.275 -0.3957  0.2809 -0.0556
17677TIP3    H174446   4.013   0.185   4.322  1.3606  0.4790 -2.8206
17677TIP3    H274447   3.898   0.228   4.234 -0.7249 -0.1160 -0.5041
17678TIP3   OH274448   3.450   2.675   1.775  0.4963  0.0245 -0.3553
17678TIP3    H174449   3.426   2.765   1.751 -0.2395 -0.6998 -2.6137
17678TIP3    H274450   3.387   2.620   1.728 -0.3219 -1.6898  2.5033
17679TIP3   OH274451   4.578   1.471   1.759 -0.2085  0.6554  0.4657
17679TIP3    H174452   4.546   1.477   1.850 -0.5169 -0.0038  0.4056
17679TIP3    H274453   4.499   1.479   1.706 -0.2821 -0.8195  0.3085
17680TIP3   OH274454   4.696   4.316  11.870  0.1096 -0.3067  0.0077
17680TIP3    H174455   4.664   4.302  11.780 -0.4392 -0.2905  0.1968
17680TIP3    H274456   4.763   4.249  11.882 -0.1484 -0.6186 -0.2537
17681TIP3   OH274457   2.853   6.421   4.454 -0.0817  0.1502 -0.4736
17681TIP3    H174458   2.840   6.462   4.539 -2.0720 -1.5398  0.1378
17681TIP3    H274459   2.774   6.368   4.441  1.6894 -2.4151 -1.7444
17682TIP3   OH274460   0.364   4.262  13.459 -0.0289  0.5872 -0.1244
17682TIP3    H174461   0.378   4.285  13.367  0.8231 -1.1269 -0.4695
17682TIP3    H274462   0.317   4.337  13.495 -1.7956  0.6586 -2.3251
17683TIP3   OH274463   5.041   0.854   5.402 -0.2563  0.2283 -0.0715
17683TIP3    H174464   5.108   0.801   5.445  0.3290 -1.4438 -2.7816
17683TIP3    H274465   4.958   0.814   5.429  0.0192 -0.0035  0.4532
17684TIP3   OH274466   5.588   3.011  14.140 -0.4439  0.2264  0.2665
17684TIP3    H174467   5.636   3.000  14.222  0.2821 -0.7120 -0.2608
17684TIP3    H274468   5.518   3.073  14.161  1.1800  1.9290  0.9777
17685TIP3   OH274469   4.816   5.397   4.357  0.2556  0.1524  0.1903
17685TIP3    H174470   4.902   5.377   4.321 -0.5854 -2.0963 -0.7725
17685TIP3    H274471   4.817   5.492   4.372  3.2542  0.0251  1.3044
17686TIP3   OH274472   4.566   0.675  12.607 -0.3818 -0.2939  0.7218
17686TIP3    H174473   4.636   0.653  12.669 -0.2906 -1.2272  0.3147
17686TIP3    H274474   4.552   0.594  12.558  0.7539  0.8628 -1.6836
17687TIP3   OH274475   0.383   0.444   3.960 -0.0478 -0.3448  0.8478
17687TIP3    H174476   0.412   0.504   4.028 -0.3117  0.4445  0.2779
17687TIP3    H274477   0.388   0.495   3.879 -2.5842 -0.2860  0.6497
17688TIP3   OH274478   2.717   0.205  13.732 -0.2089  0.4224  0.0512
17688TIP3    H174479   2.705   0.285  13.783 -2.2912 -0.3964  0.9888
17688TIP3    H274480   2.635   0.195  13.684 -0.2688 -1.4451  0.4650
17689TIP3   OH274481   6.654   3.420   3.509  0.2089 -0.1757  0.2454
17689TIP3    H174482   6.709   3.497   3.496 -1.3768  0.8146 -1.0698
17689TIP3    H274483   6.600   3.415   3.430 -2.0896 -0.6442  1.7289
17690TIP3   OH274484   1.196   2.279   0.002 -0.1293 -0.1419 -0.4917
17690TIP3    H174485   1.242   2.198   0.026 -2.1916 -0.7098  2.1146
17690TIP3    H274486   1.198   2.332   0.082 -2.6347  0.3874 -0.6853
17691TIP3   OH274487   5.141   0.493   4.298 -0.3023  0.5882  0.3698
17691TIP3    H174488   5.136   0.458   4.387 -1.4743 -0.9211 -0.2510
17691TIP3    H274489   5.064   0.457   4.254 -0.5965  2.5636 -0.8396
17692TIP3   OH274490   2.529   5.185  13.329 -0.1500 -0.3718  0.4825
17692TIP3    H174491   2.618   5.216  13.314 -0.4159 -0.3394 -1.2141
17692TIP3    H274492   2.540   5.094  13.358  0.4264 -0.4176  0.1323
17693TIP3   OH274493   6.689   2.450  15.861 -0.1718  0.0414  0.2963
17693TIP3    H174494   6.782   2.463  15.881 -0.1046  0.7261 -0.4394
17693TIP3    H274495   6.682   2.462  15.767 -1.0803  0.4245  0.3989
17694TIP3   OH274496   4.452   5.960   2.509  0.1682  0.0933  0.2715
17694TIP3    H174497   4.408   5.925   2.587 -0.8886  2.5741  0.8626
17694TIP3    H274498   4.382   5.997   2.456  1.1621  0.9047 -0.5147
17695TIP3   OH274499   2.759   3.096  14.690 -0.0610  0.2527 -0.0150
17695TIP3    H174500   2.670   3.062  14.699 -0.3060  0.8139 -0.3023
17695TIP3    H274501   2.812   3.036  14.743 -0.2035 -1.6903 -1.9157
17696TIP3   OH274502   3.350   2.858  13.146  0.5175 -0.2300 -0.0522
17696TIP3    H174503   3.387   2.772  13.167  0.0905 -0.4302 -0.0991
17696TIP3    H274504   3.349   2.860  13.051 -0.5787 -0.6678 -0.0620
17697TIP3   OH274505   4.444   5.690   1.016 -0.0084  0.1468 -0.3060
17697TIP3    H174506   4.498   5.768   1.026  0.5979 -0.1393 -1.1437
17697TIP3    H274507   4.504   5.625   0.978 -1.0865  0.0143 -1.9060
17698TIP3   OH274508   2.142   3.532  12.809 -0.2998  0.2787 -0.3749
17698TIP3    H174509   2.209   3.589  12.845  0.9243 -1.2511 -0.1202
17698TIP3    H274510   2.148   3.544  12.714 -0.2629  0.7789 -0.3111
17699TIP3   OH274511   3.534   4.957  14.323  0.7164  0.2855  0.0456
17699TIP3    H174512   3.575   4.895  14.384  2.5591  1.0931 -0.3014
17699TIP3    H274513   3.521   5.037  14.375  1.4733  0.6900 -0.3754
17700TIP3   OH274514   3.222   5.345  14.057 -0.5367 -0.0350  0.4630
17700TIP3    H174515   3.221   5.256  14.093  0.0849  0.7251  2.4518
17700TIP3    H274516   3.313   5.373  14.063 -0.9916  1.3261  1.4332
17701TIP3   OH274517   6.202   5.281   1.256  0.0555  0.0895  0.4350
17701TIP3    H174518   6.292   5.268   1.227 -0.3808  2.0977 -2.3004
17701TIP3    H274519   6.149   5.261   1.179 -1.5672  1.8232  1.0115
17702TIP3   OH274520   0.594   0.754   1.885 -0.4972 -0.3181 -0.3396
17702TIP3    H174521   0.672   0.710   1.920 -0.7295 -0.7055 -0.3098
17702TIP3    H274522   0.527   0.686   1.883 -1.1668  0.2817  0.7090
17703TIP3   OH274523   3.648   3.153  11.574  0.0037 -0.3234 -0.3038
17703TIP3    H174524   3.675   3.068  11.610 -1.3088 -0.7048 -0.1435
17703TIP3    H274525   3.604   3.131  11.492 -3.6461 -0.2940  1.4049
17704TIP3   OH274526   2.426   5.328  15.789  0.7600 -0.0405  0.1186
17704TIP3    H174527   2.427   5.333  15.693  0.0798 -1.8063 -0.0053
17704TIP3    H274528   2.351   5.274  15.810 -1.0791  2.9070  1.8456
17705TIP3   OH274529   3.537   2.070  14.763  0.7643 -0.4098  0.2241
17705TIP3    H174530   3.554   2.071  14.669 -1.0600 -3.1447 -0.2576
17705TIP3    H274531   3.448   2.105  14.772  0.1173 -2.0868  0.6452
17706TIP3   OH274532   6.383   1.722  15.788  0.1647  0.5557 -0.4790
17706TIP3    H174533   6.404   1.641  15.743  0.6450  0.7109 -0.5365
17706TIP3    H274534   6.289   1.717  15.804 -0.0929  0.6541 -1.8442
17707TIP3   OH274535   6.051   2.836   1.246  0.3125  0.2940  0.1182
17707TIP3    H174536   6.042   2.777   1.171 -0.2348  0.3355  0.1433
17707TIP3    H274537   6.103   2.910   1.214  0.3285  0.1714 -0.1352
17708TIP3   OH274538   4.028   1.131  17.041 -0.4740  0.3614 -0.5116
17708TIP3    H174539   4.113   1.162  17.072 -1.1123  0.6830  0.9954
17708TIP3    H274540   4.043   1.039  17.019  0.7241  0.9045 -2.2268
17709TIP3   OH274541   4.957   4.507   5.428  0.4537  0.1965 -0.0610
17709TIP3    H174542   4.977   4.565   5.355 -1.3113  0.5688 -0.2919
17709TIP3    H274543   4.961   4.419   5.391  2.8145  0.1249  0.2149
17710TIP3   OH274544   2.359   0.978  11.652 -0.3034  0.2493 -0.2674
17710TIP3    H174545   2.283   0.934  11.687  0.2737 -0.0680  0.6060
17710TIP3    H274546   2.331   1.009  11.565 -1.8464  1.3353  0.5755
17711TIP3   OH274547   5.294   0.753   0.895 -0.6069 -0.4467 -0.0453
17711TIP3    H174548   5.239   0.811   0.948 -0.7983 -1.5570  1.0171
17711TIP3    H274549   5.383   0.785   0.909 -0.5796 -1.1157  1.5191
17712TIP3   OH274550   6.111   4.549  12.882  0.5648 -0.2735 -0.1249
17712TIP3    H174551   6.111   4.456  12.860  0.1167 -0.1095 -0.8470
17712TIP3    H274552   6.080   4.593  12.803 -2.1297  0.2603  1.0838
17713TIP3   OH274553   6.752   2.212  15.073 -0.5853  0.2092 -0.0763
17713TIP3    H174554   6.748   2.153  14.997  1.6682  0.7977 -0.7199
17713TIP3    H274555   6.825   2.178  15.125  0.0663  1.8047  0.0802
17714TIP3   OH274556   4.786   0.118   2.123  0.2823 -0.2010  0.5433
17714TIP3    H174557   4.851   0.165   2.174  1.4097 -0.3742 -0.6971
17714TIP3    H274558   4.825   0.031   2.108 -0.2294 -0.3193 -0.1866
17715TIP3   OH274559   2.738   1.898  16.035 -0.0697 -0.0735 -0.3787
17715TIP3    H174560   2.817   1.847  16.052 -1.1006 -1.0722  1.5931
17715TIP3    H274561   2.748   1.926  15.943  1.6463 -1.7638 -0.7723
17716TIP3   OH274562   1.060   0.909  15.576  0.1285 -0.3871  0.2963
17716TIP3    H174563   1.138   0.884  15.527 -0.0646  1.5409 -1.0777
17716TIP3    H274564   1.057   1.004  15.572 -1.5018 -0.3152  1.6048
17717TIP3   OH274565   6.145   6.568  13.618 -0.7036 -0.2407  0.6412
17717TIP3    H174566   6.125   6.657  13.591  0.2429  0.4304  2.0161
17717TIP3    H274567   6.064   6.520  13.604 -1.4905  1.0319  0.6670
17718TIP3   OH274568   1.270   4.929  16.773  0.1429 -0.0134  0.0066
17718TIP3    H174569   1.193   4.920  16.829  0.4457 -1.4053  0.2354
17718TIP3    H274570   1.234   4.944  16.685 -0.4720 -2.1782 -0.1657
17719TIP3   OH274571   1.410   4.476   2.151 -0.3059  0.3539 -0.0674
17719TIP3    H174572   1.408   4.383   2.171 -0.4997  0.2627 -0.4935
17719TIP3    H274573   1.491   4.508   2.192 -0.2801  0.0177  0.1474
17720TIP3   OH274574   0.304   4.332  14.326 -0.0025  0.4712  0.3915
17720TIP3    H174575   0.235   4.362  14.267  0.2466  0.6963  0.2145
17720TIP3    H274576   0.382   4.327  14.272 -0.1255 -0.9278  0.3087
17721TIP3   OH274577   3.816   5.206   3.716 -0.0159 -0.3781 -0.1539
17721TIP3    H174578   3.824   5.299   3.697 -0.2796 -0.1537  0.7566
17721TIP3    H274579   3.750   5.202   3.786  1.0028 -1.1161  0.8102
17722TIP3   OH274580   6.320   0.911  14.024  0.0076  0.4001 -0.0630
17722TIP3    H174581   6.392   0.857  13.993  0.7266  2.3214 -2.0592
17722TIP3    H274582   6.362   0.977  14.079 -0.5087  0.3827  0.3591
17723TIP3   OH274583   5.742   2.423  16.667  0.0800  0.1590  0.9051
17723TIP3    H174584   5.698   2.369  16.602 -0.0258 -0.8290  1.7617
17723TIP3    H274585   5.671   2.460  16.720  0.2244 -1.1296  2.0517
17724TIP3   OH274586   6.164   0.866  16.408 -0.1917  0.1459  0.1544
17724TIP3    H174587   6.096   0.862  16.475  0.5731 -0.3544  0.9241
17724TIP3    H274588   6.218   0.788  16.423 -0.2250 -0.1895 -1.2981
17725TIP3   OH274589   0.076   0.300  16.482  0.1217 -0.2860  0.4689
17725TIP3    H174590   0.095   0.359  16.555  0.1575 -0.8388  0.9138
17725TIP3    H274591   0.126   0.336  16.408  0.7034 -0.1600  0.9148
17726TIP3   OH274592   0.559   2.912   2.269  0.3215  0.1810  0.0567
17726TIP3    H174593   0.633   2.855   2.290 -0.0393 -1.1589 -1.9714
17726TIP3    H274594   0.482   2.864   2.300  0.0477 -0.2876 -1.2779
17727TIP3   OH274595   2.870   2.560  16.342  0.4713 -0.4319  0.5986
17727TIP3    H174596   2.955   2.597  16.369 -0.1775  1.9538 -0.3309
17727TIP3    H274597   2.850   2.605  16.260 -0.4856 -2.9201 -0.6335
17728TIP3   OH274598   2.592   5.265  14.605 -0.2750 -0.6193  0.4096
17728TIP3    H174599   2.533   5.291  14.676  0.3858 -0.3179  0.8629
17728TIP3    H274600   2.536   5.261  14.527 -0.9158 -0.4827  0.8535
17729TIP3   OH274601   5.351   3.617  17.054 -0.2781 -0.3867  0.0063
17729TIP3    H174602   5.283   3.597  16.989 -0.7077  0.7918  0.0611
17729TIP3    H274603   5.431   3.628  17.002 -0.2775 -1.0829 -0.1383
17730TIP3   OH274604   3.202   1.404   0.640  0.1711  0.2618 -0.1850
17730TIP3    H174605   3.126   1.458   0.663 -0.3900  0.5335 -2.3825
17730TIP3    H274606   3.167   1.342   0.576  1.8076  0.4496 -1.3144
17731TIP3   OH274607   5.225   5.146   3.073 -0.5373 -0.0544 -0.1904
17731TIP3    H174608   5.297   5.092   3.106 -1.4614 -2.1146 -1.3751
17731TIP3    H274609   5.191   5.190   3.151  0.6777 -0.6736  0.7205
17732TIP3   OH274610   3.023   1.008   6.306 -0.1967  0.1922 -0.2678
17732TIP3    H174611   3.063   1.057   6.378  1.8882 -0.6316 -0.7935
17732TIP3    H274612   2.947   0.966   6.346  0.0071  1.0086  1.0638
17733TIP3   OH274613   5.818   6.430   1.421  0.2664  0.2750 -0.2018
17733TIP3    H174614   5.838   6.477   1.340 -3.6042  1.5338 -0.6422
17733TIP3    H274615   5.866   6.478   1.489  1.9033  0.4855 -1.4438
17734TIP3   OH274616   3.940   4.560   5.785  0.2668  0.3524  0.3282
17734TIP3    H174617   3.924   4.621   5.857 -0.7300  1.2779 -0.6519
17734TIP3    H274618   4.013   4.598   5.737  2.8605 -1.6670  2.3235
17735TIP3   OH274619   0.657   4.050  16.536 -0.1525 -0.2704  0.0245
17735TIP3    H174620   0.619   3.980  16.589 -0.5093 -0.8882 -1.0031
17735TIP3    H274621   0.750   4.027  16.531 -0.4861 -1.4565 -1.4108
17736TIP3   OH274622   2.535   0.295  15.848 -0.1761 -0.2893 -0.1855
17736TIP3    H174623   2.511   0.247  15.927 -1.8587 -0.0552 -0.5220
17736TIP3    H274624   2.629   0.279  15.838 -0.2662 -1.6994  0.9101
17737TIP3   OH274625   1.769   6.303  12.326 -0.0710  0.3252 -0.4487
17737TIP3    H174626   1.713   6.241  12.280  0.0081  0.8198 -1.2441
17737TIP3    H274627   1.710   6.375  12.350 -0.3792 -0.4820  1.3797
17738TIP3   OH274628   3.589   2.983   6.590 -0.1234 -0.3370  0.1669
17738TIP3    H174629   3.544   3.035   6.657 -2.0312 -2.6753  0.8265
17738TIP3    H274630   3.660   3.040   6.559 -0.0791  1.3906  3.1075
17739TIP3   OH274631   0.057   4.839   1.051  0.8133  0.1418 -0.1424
17739TIP3    H174632  -0.031   4.807   1.072  0.5889 -0.5643 -1.9203
17739TIP3    H274633   0.114   4.798   1.116  0.2613 -2.4480 -1.1454
17740TIP3   OH274634   5.304   3.813   0.795 -0.0720 -0.0356  0.2005
17740TIP3    H174635   5.336   3.895   0.759 -0.7527 -0.4497 -1.4361
17740TIP3    H274636   5.300   3.753   0.720  0.0286 -1.4528  1.2726
17741TIP3   OH274637   4.263   3.494  16.951  0.4340  0.0670 -1.1315
17741TIP3    H174638   4.224   3.497  17.038  1.1906 -0.4937 -0.7635
17741TIP3    H274639   4.226   3.570  16.906 -0.6126 -0.1084 -0.6082
17742TIP3   OH274640   3.047   0.422   2.426  0.3634 -0.3526  0.6424
17742TIP3    H174641   3.136   0.395   2.407 -0.4009 -1.9414 -0.9591
17742TIP3    H274642   3.011   0.447   2.341 -0.7201  0.2576  1.2598
17743TIP3   OH274643   6.351   5.308   1.503  0.0273 -0.0830 -0.0314
17743TIP3    H174644   6.262   5.343   1.515  0.4310  2.5235 -3.2076
17743TIP3    H274645   6.352   5.278   1.412  2.3713 -0.0500 -0.0620
17744TIP3   OH274646   2.077   3.782  13.100  0.1626  0.3280  0.1880
17744TIP3    H174647   2.097   3.875  13.093 -0.2561  0.4199  0.1749
17744TIP3    H274648   2.121   3.743  13.024 -0.3731  0.6410 -0.2959
17745TIP3   OH274649   3.877   5.931   5.557  0.0279 -0.0985  0.0669
17745TIP3    H174650   3.907   5.958   5.643  3.2773  0.5803 -1.1556
17745TIP3    H274651   3.915   5.844   5.544  1.9403  0.9106 -1.6546
17746TIP3   OH274652   6.268   2.011   3.381 -0.0005  0.3078  0.0690
17746TIP3    H174653   6.318   1.952   3.437 -0.3412  0.0568  0.1152
17746TIP3    H274654   6.322   2.089   3.374 -0.4047  0.7465  1.5617
17747TIP3   OH274655   1.290   4.911  13.148 -0.2325  0.4543 -0.1506
17747TIP3    H174656   1.341   4.922  13.068  0.4100 -0.2822  0.1453
17747TIP3    H274657   1.349   4.939  13.218 -0.4946  0.2935  0.1376
17748TIP3   OH274658   5.107   6.794  12.542  0.0659  0.2572  0.1956
17748TIP3    H174659   5.012   6.806  12.534 -0.2525 -1.8648  0.1986
17748TIP3    H274660   5.141   6.811  12.455 -0.1769  1.8541  0.3784
17749TIP3   OH274661   3.924   6.397   3.573  0.5237  0.2658  0.2346
17749TIP3    H174662   3.973   6.337   3.629 -0.5085 -2.7232 -1.8013
17749TIP3    H274663   3.833   6.369   3.582 -0.2563  2.5751  0.2980
17750TIP3   OH274664   4.769   6.392   3.677 -0.0150 -0.0664 -0.2572
17750TIP3    H174665   4.715   6.365   3.602  1.4172 -1.5760 -0.8027
17750TIP3    H274666   4.854   6.350   3.662  0.8965  1.1030  1.2886
17751TIP3   OH274667   0.386   5.684  11.564  0.0465 -0.0432  0.1949
17751TIP3    H174668   0.465   5.629  11.562 -0.6759 -1.2062 -2.7081
17751TIP3    H274669   0.314   5.623  11.547 -0.8897  1.5976 -2.3239
17752TIP3   OH274670   4.724   2.055   3.920 -0.6048 -0.7166  0.6343
17752TIP3    H174671   4.715   2.128   3.859 -1.0192 -1.1465  0.1766
17752TIP3    H274672   4.765   2.094   3.998 -0.2993 -0.1167  0.1816
17753TIP3   OH274673   6.414   5.743  15.458 -0.0729  0.3193  0.0886
17753TIP3    H174674   6.395   5.821  15.406 -1.3645 -1.2872 -2.0105
17753TIP3    H274675   6.395   5.670  15.399  1.3328 -1.6037  1.8796
17754TIP3   OH274676   2.620   2.243  16.669  0.6063  0.4272  0.2058
17754TIP3    H174677   2.611   2.276  16.579 -1.4804  1.4242  0.7189
17754TIP3    H274678   2.579   2.310  16.723 -1.5713 -1.7922  1.5522
17755TIP3   OH274679   3.572   6.074  14.809 -0.0761  0.3854 -0.1066
17755TIP3    H174680   3.617   5.996  14.777  0.5590  1.3080 -1.5634
17755TIP3    H274681   3.479   6.058  14.791 -0.4651 -1.5259  2.9138
17756TIP3   OH274682   5.945   1.172  12.701  0.3778  0.7466  0.4870
17756TIP3    H174683   5.970   1.085  12.672 -0.0868  0.4735  0.9059
17756TIP3    H274684   5.881   1.201  12.636 -0.3125  0.3206  0.9654
17757TIP3   OH274685   3.510   6.286  16.213  0.0618  0.0610  0.2391
17757TIP3    H174686   3.595   6.326  16.197  0.4109  0.4696  2.6942
17757TIP3    H274687   3.530   6.195  16.238 -0.5141 -0.8349 -2.2494
17758TIP3   OH274688   3.515   4.264  13.182  0.4234 -0.6536 -0.7710
17758TIP3    H174689   3.495   4.172  13.168 -0.5667 -0.6385  0.3335
17758TIP3    H274690   3.459   4.289  13.256 -0.4675  1.2123 -2.0083
17759TIP3   OH274691   6.058   3.074   1.586 -0.1043 -0.0507 -0.1196
17759TIP3    H174692   6.000   2.998   1.595  1.0826 -0.8606  1.3139
17759TIP3    H274693   6.108   3.075   1.668  0.9866  1.3845 -0.7593
17760TIP3   OH274694   2.152   5.280  12.362 -0.0068  0.7126 -0.3226
17760TIP3    H174695   2.236   5.252  12.327 -0.1010  1.0130 -0.8090
17760TIP3    H274696   2.105   5.198  12.380  0.7476  0.5205  0.9011
17761TIP3   OH274697   3.313   0.894  15.632  0.1025 -0.5272 -0.3448
17761TIP3    H174698   3.291   0.965  15.571  0.7273  0.6338  0.7218
17761TIP3    H274699   3.238   0.890  15.691 -0.4996 -1.6448 -1.1669
17762TIP3   OH274700   0.584   2.016   1.189 -0.0084  0.0765 -0.4657
17762TIP3    H174701   0.492   2.042   1.199 -0.1527 -0.3256 -0.7062
17762TIP3    H274702   0.588   1.979   1.100  0.2190 -0.5904 -0.1838
17763TIP3   OH274703   6.113   0.479   4.501  0.0185 -0.4459 -0.0446
17763TIP3    H174704   6.055   0.405   4.486  0.3667 -0.3132 -2.4123
17763TIP3    H274705   6.059   0.543   4.548 -0.6006 -1.7209  1.0505
17764TIP3   OH274706   5.565   6.138  16.806 -0.0785  0.4611 -0.2073
17764TIP3    H174707   5.578   6.062  16.749 -1.8746  0.9594 -1.3944
17764TIP3    H274708   5.548   6.100  16.892 -2.2054 -0.6385 -1.0213
17765TIP3   OH274709   0.898   1.681  12.067  0.3285  0.2286 -1.0089
17765TIP3    H174710   0.941   1.618  12.125 -0.1180  1.7638  1.0880
17765TIP3    H274711   0.913   1.646  11.979  2.1160 -1.5477 -0.0836
17766TIP3   OH274712   0.222   5.337  11.977  1.0703  0.4672 -0.2577
17766TIP3    H174713   0.221   5.415  11.921  3.4930 -0.3909 -1.6603
17766TIP3    H274714   0.237   5.371  12.065  0.0978  1.6786 -0.5277
17767TIP3   OH274715   0.512   0.068   0.845 -0.2922  0.1192  0.4545
17767TIP3    H174716   0.562  -0.007   0.816  0.4196 -0.4836  2.9685
17767TIP3    H274717   0.420   0.043   0.831 -0.0158 -0.3064 -0.6971
17768TIP3   OH274718   6.770   2.305   5.042 -0.0494 -0.3372  0.0314
17768TIP3    H174719   6.842   2.364   5.065 -0.5127  0.7230 -1.0997
17768TIP3    H274720   6.700   2.327   5.102 -0.4053  0.6757 -0.7318
17769TIP3   OH274721   3.971   5.995  11.633 -0.2436 -0.3957  0.1303
17769TIP3    H174722   3.879   6.002  11.606 -0.3116  0.2855  0.5285
17769TIP3    H274723   3.973   6.030  11.721  0.1607 -1.7312  0.6740
17770TIP3   OH274724   6.072   2.330   4.366 -0.4417  0.0759 -0.2366
17770TIP3    H174725   6.114   2.244   4.358 -0.9629 -0.1497 -0.6292
17770TIP3    H274726   5.980   2.314   4.342 -0.5298  0.7504 -0.3694
17771TIP3   OH274727   1.614   2.699  17.014 -0.7130  0.4454 -0.0243
17771TIP3    H174728   1.620   2.777  17.070  1.4449  0.8831 -0.7750
17771TIP3    H274729   1.577   2.632  17.071  0.4604  1.1532  1.6623
17772TIP3   OH274730   2.739   4.879   5.079 -0.1536  0.5420 -0.1990
17772TIP3    H174731   2.690   4.835   5.009  2.8506 -0.9559 -1.5724
17772TIP3    H274732   2.728   4.822   5.155  1.7296 -1.4584 -1.3053
17773TIP3   OH274733   2.535   1.339  12.975  0.4558  0.2619 -0.3476
17773TIP3    H174734   2.568   1.399  12.909  2.6480 -2.2764 -1.7802
17773TIP3    H274735   2.613   1.296  13.010 -0.9190 -1.1762  1.1507
17774TIP3   OH274736   4.840   1.915   6.010 -0.4516  0.4608 -0.8679
17774TIP3    H174737   4.892   1.901   5.931  0.0218  0.5219 -0.5644
17774TIP3    H274738   4.818   1.827   6.041  3.5435  0.1285  1.7326
17775TIP3   OH274739   4.708   5.493   1.743 -0.2067 -0.4443  0.0639
17775TIP3    H174740   4.747   5.556   1.683  2.3283 -0.2920  1.7291
17775TIP3    H274741   4.779   5.433   1.764 -0.7227 -0.0331  3.4809
17776TIP3   OH274742   3.935   3.441  12.607 -0.0098  0.6565  0.4059
17776TIP3    H174743   3.848   3.428  12.570  0.7221  1.6141 -1.8129
17776TIP3    H274744   3.938   3.534  12.631  0.3544  0.5947  0.6205
17777TIP3   OH274745   5.250   3.779  14.238  0.4578  0.0769  0.3220
17777TIP3    H174746   5.310   3.737  14.176  2.2495 -0.3925  2.2643
17777TIP3    H274747   5.204   3.706  14.280 -0.3304  0.3697  0.0063
17778TIP3   OH274748   3.809   0.254  14.796  1.1003 -0.6873  0.0374
17778TIP3    H174749   3.859   0.178  14.769  1.2834 -1.6993  2.8863
17778TIP3    H274750   3.718   0.231  14.779  1.2466 -0.9790 -0.3523
17779TIP3   OH274751   1.015   2.042   1.869  0.0187 -0.1203  0.9180
17779TIP3    H174752   1.035   2.029   1.776 -0.9301 -0.0256  0.6906
17779TIP3    H274753   0.929   2.001   1.881  0.8458 -1.5627  2.1227
17780TIP3   OH274754   4.086   2.811   2.691 -0.0893  0.0512 -0.3223
17780TIP3    H174755   4.086   2.897   2.733 -0.4881  0.5527 -1.3285
17780TIP3    H274756   4.156   2.815   2.626  0.3186 -0.6120  0.0593
17781TIP3   OH274757   1.772   0.216   5.366  0.2743 -0.2876  0.5404
17781TIP3    H174758   1.741   0.163   5.440 -0.1615  0.3585  0.8275
17781TIP3    H274759   1.692   0.244   5.321  0.5325 -0.6176 -0.1461
17782TIP3   OH274760   2.220   0.871   5.019  0.1911  0.1389 -0.5857
17782TIP3    H174761   2.248   0.924   5.093  2.5887 -0.6053 -0.8735
17782TIP3    H274762   2.190   0.934   4.953 -1.1689  0.8401  0.6473
17783TIP3   OH274763   4.899   4.179   4.799  0.5528  0.0610  0.2833
17783TIP3    H174764   4.846   4.141   4.729 -0.2697  2.0185 -0.2110
17783TIP3    H274765   4.938   4.257   4.761  0.6455  0.7943  1.7886
17784TIP3   OH274766   1.665   4.932   3.219 -0.2770 -0.1317  0.3333
17784TIP3    H174767   1.613   4.971   3.289  0.5206 -1.4505  1.7249
17784TIP3    H274768   1.663   4.838   3.237  1.0484 -0.3815 -0.6407
17785TIP3   OH274769   4.243   5.960  15.622 -0.0950  0.1208  0.0418
17785TIP3    H174770   4.316   6.017  15.647  1.2172 -1.4760  0.0932
17785TIP3    H274771   4.167   5.999  15.664  1.3004 -0.0111  3.0366
17786TIP3   OH274772   6.775   3.710   5.296  0.3035  0.3285 -0.6249
17786TIP3    H174773   6.823   3.763   5.359  1.0968 -1.5209  0.3977
17786TIP3    H274774   6.684   3.740   5.305  0.5476  0.7521  0.7237
17787TIP3   OH274775   1.340   1.463  13.368  1.2369 -0.7492 -0.1937
17787TIP3    H174776   1.333   1.539  13.310 -1.6658  1.8276  3.0263
17787TIP3    H274777   1.268   1.405  13.341  2.4594 -1.6507 -1.6439
17788TIP3   OH274778   6.146   5.910   3.505  0.0539  0.5121  0.5254
17788TIP3    H174779   6.203   5.977   3.543 -1.6590  2.5711 -0.2921
17788TIP3    H274780   6.105   5.868   3.581  0.6355  0.8610  1.0428
17789TIP3   OH274781   6.006   0.979  12.537  0.3160  0.2042  0.2490
17789TIP3    H174782   5.934   0.942  12.487 -0.6338  2.4534 -0.1542
17789TIP3    H274783   6.067   1.013  12.471 -0.9934  3.2759  0.4744
17790TIP3   OH274784   5.092   3.090   1.306  0.3345 -0.1834 -0.1484
17790TIP3    H174785   5.040   3.063   1.383 -0.0211 -0.1030 -0.3581
17790TIP3    H274786   5.095   3.012   1.251 -0.8079  0.2190 -0.8184
17791TIP3   OH274787   4.712   4.682  15.626 -0.5075 -0.1651  0.3099
17791TIP3    H174788   4.640   4.743  15.613 -1.3579 -1.1622  0.1915
17791TIP3    H274789   4.717   4.672  15.721 -0.0573  0.4360  0.3540
17792TIP3   OH274790   5.296   0.529   0.335 -0.7543  0.3061  0.2809
17792TIP3    H174791   5.209   0.509   0.368  0.0158  0.5255  2.5942
17792TIP3    H274792   5.338   0.443   0.327 -0.0817  0.3627  2.5477
17793TIP3   OH274793   1.462   4.801  10.950 -0.1178  0.1347  0.8019
17793TIP3    H174794   1.506   4.840  11.026 -1.7990  0.3084  1.7449
17793TIP3    H274795   1.466   4.869  10.883  2.0949 -0.3100  0.3910
17794TIP3   OH274796   1.203   4.164   3.857 -0.7227 -0.0053 -0.6044
17794TIP3    H174797   1.144   4.235   3.835 -0.2992  0.7517  0.6217
17794TIP3    H274798   1.289   4.193   3.826 -0.2984  0.6485  1.0921
17795TIP3   OH274799   1.895   1.239  14.056 -0.6191  0.0515 -0.3146
17795TIP3    H174800   1.946   1.319  14.046 -0.3109 -0.0984  0.0591
17795TIP3    H274801   1.884   1.206  13.967 -0.2794  0.2150 -0.4171
17796TIP3   OH274802   2.850   1.920  15.529 -0.0547  0.2249 -0.0083
17796TIP3    H174803   2.906   1.897  15.454 -0.4826 -1.0460  0.0272
17796TIP3    H274804   2.795   1.842  15.542 -0.5535  0.7425  1.1139
17797TIP3   OH274805   0.327   6.068  16.064 -0.0043  0.0129 -0.6082
17797TIP3    H174806   0.232   6.075  16.053 -0.2105 -1.3200  0.0510
17797TIP3    H274807   0.357   6.158  16.071 -1.0723  0.5040 -1.8937
17798TIP3   OH274808   1.092   2.507  15.629  0.1500 -0.1457 -0.3077
17798TIP3    H174809   1.124   2.481  15.716  0.7397 -1.9724 -1.0175
17798TIP3    H274810   1.051   2.592  15.643 -0.6388 -0.8292  1.9456
17799TIP3   OH274811   0.537   2.005   1.754 -0.6696 -0.3337 -0.8306
17799TIP3    H174812   0.613   2.063   1.745 -0.5406 -0.3725 -0.0781
17799TIP3    H274813   0.573   1.917   1.752 -0.5509 -0.3403  0.5814
17800TIP3   OH274814   5.329   4.328   4.947 -0.0986 -0.8084 -0.1005
17800TIP3    H174815   5.422   4.341   4.966 -0.1592  0.2079 -0.4074
17800TIP3    H274816   5.323   4.237   4.917  0.6754 -1.1019  0.5983
17801TIP3   OH274817   0.126   0.956  13.446  0.7604 -0.1889 -0.0868
17801TIP3    H174818   0.158   0.923  13.362  1.4794 -0.0706  0.1373
17801TIP3    H274819   0.127   1.051  13.436 -1.5159 -0.1631 -0.8089
17802TIP3   OH274820   1.367   5.345   4.183 -0.4713  0.9414  0.2826
17802TIP3    H174821   1.425   5.275   4.212  1.8318  1.7239 -2.0575
17802TIP3    H274822   1.393   5.421   4.235  0.4615  1.2355 -0.6054
17803TIP3   OH274823   1.084   6.668   2.767  0.4741 -0.2503  0.1528
17803TIP3    H174824   1.065   6.737   2.704  0.1206 -0.4982 -0.0128
17803TIP3    H274825   1.031   6.690   2.844  0.3576 -0.3432  0.0982
17804TIP3   OH274826   2.200   1.712  14.410  0.0111 -0.1381 -0.5459
17804TIP3    H174827   2.131   1.777  14.394 -0.0499 -0.2480 -0.7267
17804TIP3    H274828   2.213   1.669  14.326  0.5348  0.1057 -0.5919
17805TIP3   OH274829   2.555   2.267   4.143  0.3487  0.5848  0.3051
17805TIP3    H174830   2.546   2.326   4.069  0.5224  1.3293  0.8717
17805TIP3    H274831   2.492   2.298   4.207 -1.0892 -1.1261 -0.1772
17806TIP3   OH274832   4.959   5.026  12.991  0.1250  0.3950  0.3855
17806TIP3    H174833   4.932   5.063  13.076  0.6739  0.1714  0.6635
17806TIP3    H274834   4.886   5.045  12.932  0.0106  1.1300  0.7472
17807TIP3   OH274835   4.813   0.504   5.076  0.0858  0.5093  0.7511
17807TIP3    H174836   4.880   0.504   5.007 -1.2688 -0.7706 -0.6260
17807TIP3    H274837   4.766   0.586   5.063  0.9207  1.0890  1.2876
17808TIP3   OH274838   0.785   3.264  12.936  0.2776 -0.1892 -0.4352
17808TIP3    H174839   0.767   3.351  12.971  0.4466 -0.1731 -0.3876
17808TIP3    H274840   0.773   3.273  12.841 -1.1464 -0.4742 -0.2913
17809TIP3   OH274841   1.049   1.052   5.496 -0.0304 -0.1861 -0.5865
17809TIP3    H174842   1.128   1.026   5.544 -0.0675  2.7848  1.3124
17809TIP3    H274843   0.988   1.082   5.563 -0.7805  2.5282 -2.2966
17810TIP3   OH274844   4.708   0.293  14.141 -0.1252  0.8373 -0.5025
17810TIP3    H174845   4.744   0.279  14.228  0.7024 -1.1598 -1.1145
17810TIP3    H274846   4.635   0.232  14.134 -0.9952  1.8811 -0.7765
17811TIP3   OH274847   5.654   5.089  16.049  0.4842  0.3718 -0.4423
17811TIP3    H174848   5.624   5.104  16.139  0.9844 -2.8473  0.4007
17811TIP3    H274849   5.713   5.161  16.031 -2.4394  3.1954  0.3490
17812TIP3   OH274850   5.137   2.487   5.507 -0.3813  0.6075  0.0909
17812TIP3    H174851   5.054   2.474   5.553 -1.0934  4.3122  0.1583
17812TIP3    H274852   5.188   2.541   5.567  2.0605 -1.3356 -0.0932
17813TIP3   OH274853   4.601   2.065  13.186  0.1161  0.8425 -0.2751
17813TIP3    H174854   4.578   1.973  13.198  2.8222  0.1526  0.2632
17813TIP3    H274855   4.559   2.089  13.103 -2.0219 -0.3314  0.3814
17814TIP3   OH274856   1.350   1.383  11.177  0.3912  0.1880  0.2040
17814TIP3    H174857   1.263   1.405  11.145  0.6705 -0.4161 -1.0359
17814TIP3    H274858   1.398   1.353  11.099  1.2713 -0.8391  1.0978
17815TIP3   OH274859   1.068   0.775  16.346 -0.2115 -0.1472  0.5399
17815TIP3    H174860   1.035   0.759  16.435 -0.5130  1.5352  0.7532
17815TIP3    H274861   1.002   0.832  16.306 -0.8037 -1.9917 -1.2774
17816TIP3   OH274862   3.454   1.937   3.353  0.4980 -0.4733  0.1155
17816TIP3    H174863   3.396   2.013   3.352  0.2742 -0.6311  0.6457
17816TIP3    H274864   3.529   1.964   3.407  0.1105 -0.8400  0.8577
17817TIP3   OH274865   3.834   3.113  11.302 -0.0577  0.0311 -0.0599
17817TIP3    H174866   3.829   3.195  11.352 -1.3554  1.4119 -2.2176
17817TIP3    H274867   3.927   3.091  11.300  0.5854  2.4921 -0.8798
17818TIP3   OH274868   3.632   6.581  12.498 -0.3288  0.1624  0.5199
17818TIP3    H174869   3.723   6.611  12.506  0.9264 -3.3655  1.5968
17818TIP3    H274870   3.592   6.604  12.582  0.7323 -1.3306  1.5045
17819TIP3   OH274871   3.410   5.692   4.538 -0.3009  0.6534  0.3643
17819TIP3    H174872   3.412   5.604   4.576 -0.2523  0.2855 -0.4729
17819TIP3    H274873   3.317   5.715   4.536 -0.7933 -0.9833 -2.9342
17820TIP3   OH274874   4.966   0.250   2.273  0.2114  0.6039  0.0099
17820TIP3    H174875   5.032   0.238   2.342 -1.2095 -0.7853  1.1977
17820TIP3    H274876   5.014   0.293   2.202  2.1730  0.4516  1.1556
17821TIP3   OH274877   4.438   4.814   5.803  0.3019  0.1903 -0.4990
17821TIP3    H174878   4.394   4.753   5.744 -0.0228  0.6295 -0.7156
17821TIP3    H274879   4.377   4.828   5.874 -0.9901  2.6326 -1.9426
17822TIP3   OH274880   3.733   6.106   4.015 -0.3805 -0.4129 -0.0081
17822TIP3    H174881   3.793   6.044   4.055 -0.0587 -0.7196 -0.9352
17822TIP3    H274882   3.790   6.171   3.973 -0.6943  1.2653  2.0153
17823TIP3   OH274883   3.667   2.425   2.200 -0.7028  0.2122  0.1954
17823TIP3    H174884   3.703   2.458   2.282 -0.6514 -0.4905  0.4554
17823TIP3    H274885   3.611   2.352   2.225 -0.4401 -0.2093 -0.4285
17824TIP3   OH274886   2.575   6.454   1.033 -0.5037  0.4434 -0.0834
17824TIP3    H174887   2.561   6.368   1.072  1.4354  0.0400 -0.1861
17824TIP3    H274888   2.520   6.513   1.085 -2.2119 -0.8816 -0.2997
17825TIP3   OH274889   0.253   0.696  14.121  0.2429  0.1163 -0.3228
17825TIP3    H174890   0.178   0.724  14.068  0.5763  0.5963 -0.5452
17825TIP3    H274891   0.326   0.692  14.059  0.5315  0.2260  0.0064
17826TIP3   OH274892   0.948   4.013   4.491  0.2549 -0.3944 -0.0287
17826TIP3    H174893   1.024   4.008   4.550  0.5322  1.0868 -0.2108
17826TIP3    H274894   0.986   4.016   4.403  0.1557  2.2203 -0.0560
17827TIP3   OH274895   2.131   6.691   4.671 -0.4446 -0.5573 -0.8103
17827TIP3    H174896   2.175   6.668   4.588 -0.3322 -0.2413 -0.8416
17827TIP3    H274897   2.177   6.639   4.737  0.2429  0.0463 -0.7906
17828TIP3   OH274898   0.627   5.837  14.971  0.2353  0.1422 -0.3955
17828TIP3    H174899   0.646   5.867  15.060 -0.2168 -0.8711  0.0632
17828TIP3    H274900   0.668   5.902  14.914 -2.6492  2.9547  0.4787
17829TIP3   OH274901   0.272   2.509  15.812  0.0711  0.0845 -0.2257
17829TIP3    H174902   0.354   2.467  15.840  0.1695  1.6193  2.0999
17829TIP3    H274903   0.300   2.591  15.772 -0.3168  0.5708  0.4926
17830TIP3   OH274904   3.808   5.566  15.327  0.6998  0.1659  0.6217
17830TIP3    H174905   3.752   5.538  15.255  2.5558  0.2851 -0.9583
17830TIP3    H274906   3.815   5.661  15.316  1.4365  0.1145  0.5900
17831TIP3   OH274907   1.867   1.075  13.492 -0.3116 -0.5005  0.3073
17831TIP3    H174908   1.885   0.982  13.481  0.4506 -0.3274 -0.0289
17831TIP3    H274909   1.828   1.103  13.410  0.3154 -0.3392  0.0577
17832TIP3   OH274910   1.953   2.776   3.168 -0.0973  0.0357 -0.4053
17832TIP3    H174911   1.973   2.838   3.238 -1.8568  0.6323 -0.4001
17832TIP3    H274912   1.982   2.820   3.088  0.6131 -0.0593 -0.2137
17833TIP3   OH274913   6.601   1.279  14.563  0.5831  0.1977  0.2184
17833TIP3    H174914   6.652   1.223  14.621 -1.3482 -2.1768 -0.2046
17833TIP3    H274915   6.544   1.329  14.622  0.2973 -0.4461  0.4999
17834TIP3   OH274916   4.838   5.448   1.406 -0.2690  0.1071 -0.5494
17834TIP3    H174917   4.765   5.500   1.375  0.2103  2.8058  2.3325
17834TIP3    H274918   4.914   5.481   1.357 -0.4633 -0.4989 -1.2885
17835TIP3   OH274919   6.798   1.391  11.928  0.2021 -0.4125 -0.7639
17835TIP3    H174920   6.822   1.307  11.968  1.0761  0.0040 -0.3942
17835TIP3    H274921   6.809   1.377  11.834 -0.0225 -0.8304 -0.7266
17836TIP3   OH274922   5.979   5.069   3.158 -0.1241 -0.4240  0.2426
17836TIP3    H174923   6.011   5.135   3.220 -0.0363  0.3104 -0.5687
17836TIP3    H274924   5.915   5.018   3.208  0.2268 -0.0929  1.0474
17837TIP3   OH274925   6.726   5.777  13.905 -0.0738 -0.3315 -0.0083
17837TIP3    H174926   6.766   5.690  13.910 -1.0981 -0.9071 -1.3697
17837TIP3    H274927   6.776   5.823  13.838 -0.3544 -0.3167 -0.2083
17838TIP3   OH274928   1.260   1.070  16.203 -0.1195  0.0450 -0.4944
17838TIP3    H174929   1.353   1.048  16.212 -0.1898 -1.2967 -2.4331
17838TIP3    H274930   1.250   1.097  16.112 -1.5136  0.8337 -0.1363
17839TIP3   OH274931   3.135   1.888  13.136  0.4310  0.2237  0.1621
17839TIP3    H174932   3.044   1.907  13.112 -0.0302 -1.1493  0.7015
17839TIP3    H274933   3.135   1.893  13.232  0.7365 -0.5228  0.2036
17840TIP3   OH274934   1.004   0.303   3.781 -0.2604 -0.3340 -0.2533
17840TIP3    H174935   1.009   0.291   3.875 -0.4759  0.4162 -0.1408
17840TIP3    H274936   0.927   0.358   3.767 -1.1940 -1.7525 -1.0030
17841TIP3   OH274937   2.779   1.888  13.934 -0.8405  0.2847  0.1507
17841TIP3    H174938   2.806   1.798  13.952 -1.1424  0.4655  1.6741
17841TIP3    H274939   2.831   1.914  13.858  0.0500 -0.8152  0.3577
17842TIP3   OH274940   5.622   1.683  15.729 -0.6898  0.1081  0.0735
17842TIP3    H174941   5.646   1.771  15.759 -0.9527  0.6107 -1.1235
17842TIP3    H274942   5.560   1.651  15.794 -2.8339  1.9841 -0.9029
17843TIP3   OH274943   3.018   6.225  16.366 -0.1079  0.3007  0.2386
17843TIP3    H174944   2.943   6.171  16.390  0.2723 -0.4603 -0.2369
17843TIP3    H274945   3.093   6.178  16.403  0.1754  0.8281  0.3417
17844TIP3   OH274946   0.203   2.647   0.327 -0.2357  0.5836 -0.0849
17844TIP3    H174947   0.248   2.718   0.282  0.5249  0.9316  1.1804
17844TIP3    H274948   0.110   2.665   0.314 -0.0757  0.0689 -2.4113
17845TIP3   OH274949   0.430   4.015  14.055  0.0674 -0.4975  0.1265
17845TIP3    H174950   0.394   3.943  14.002  2.1066 -0.7876 -0.9916
17845TIP3    H274951   0.480   3.971  14.124  1.8825 -0.2679 -0.9493
17846TIP3   OH274952   3.924   4.777  14.251  0.1223 -0.1972 -0.3476
17846TIP3    H174953   3.857   4.722  14.210 -0.3689  0.0192  0.1468
17846TIP3    H274954   3.896   4.784  14.343  0.6633  0.1396 -0.2050
17847TIP3   OH274955   4.666   0.857  13.003  0.2066 -0.7897  0.0258
17847TIP3    H174956   4.595   0.919  13.020 -0.7157 -1.8969  0.3449
17847TIP3    H274957   4.644   0.780  13.056  2.7174 -0.4193  1.7426
17848TIP3   OH274958   0.161   2.040  16.313 -0.0254  0.2418 -0.1184
17848TIP3    H174959   0.083   1.984  16.321 -0.3350  0.7806  0.7179
17848TIP3    H274960   0.235   1.979  16.322 -0.2874 -0.4695 -2.0947
17849TIP3   OH274961   5.684   2.441  13.320  0.4927  0.1318 -0.1013
17849TIP3    H174962   5.686   2.417  13.412 -1.0703 -0.9810 -0.3233
17849TIP3    H274963   5.595   2.421  13.291  1.1718 -0.3792 -2.0571
17850TIP3   OH274964   1.677   1.716   4.139  0.2448 -0.1587  0.0221
17850TIP3    H174965   1.680   1.765   4.221 -1.5460 -0.4990  0.3431
17850TIP3    H274966   1.768   1.708   4.111  0.6899  2.2440  0.6018
17851TIP3   OH274967   6.552   1.932  10.783  0.3634  0.1623 -0.2165
17851TIP3    H174968   6.582   1.867  10.718  0.9873 -0.9961  1.1677
17851TIP3    H274969   6.476   1.973  10.743  1.1632  0.0101 -1.9848
17852TIP3   OH274970   0.768   5.786  12.299  0.1400 -0.5437  0.1741
17852TIP3    H174971   0.733   5.875  12.306  0.1582 -0.5048 -0.2456
17852TIP3    H274972   0.859   5.795  12.327 -0.5744 -0.9477  3.0052
17853TIP3   OH274973   3.915   4.449   0.217  0.2541  0.3254 -0.2689
17853TIP3    H174974   3.828   4.411   0.226  0.4421  0.1369  0.9966
17853TIP3    H274975   3.969   4.379   0.180 -0.0519  0.3250 -0.7101
17854TIP3   OH274976   2.961   4.314   5.691 -0.1527 -0.1131  0.0496
17854TIP3    H174977   2.959   4.384   5.626  0.3019  0.3643  0.5344
17854TIP3    H274978   2.982   4.235   5.642  1.9688  0.5205 -0.1588
17855TIP3   OH274979   6.285   4.414   0.419  0.6031 -0.1820 -0.0945
17855TIP3    H174980   6.254   4.503   0.402  0.3511  0.2096  2.0749
17855TIP3    H274981   6.205   4.364   0.435  0.8209 -0.4130  0.2901
17856TIP3   OH274982   0.359   1.314   5.633  0.0675 -0.0759 -0.2495
17856TIP3    H174983   0.271   1.280   5.640  0.1638 -0.0567  1.5066
17856TIP3    H274984   0.348   1.409   5.622 -0.1542  0.0911  1.1993
17857TIP3   OH274985   6.570   4.854  16.314 -0.2944 -0.0871  0.6101
17857TIP3    H174986   6.595   4.774  16.359 -0.4443 -0.9250 -0.7212
17857TIP3    H274987   6.556   4.918  16.383  3.2147 -0.1811  1.6178
17858TIP3   OH274988   1.229   6.810   4.627 -0.2245  0.1084 -0.3658
17858TIP3    H174989   1.199   6.847   4.544 -0.2055 -2.2458 -1.4924
17858TIP3    H274990   1.324   6.803   4.617 -0.2416 -0.3445 -0.2358
17859TIP3   OH274991   5.254   6.064   4.534 -0.1562  0.1809 -0.0941
17859TIP3    H174992   5.290   5.979   4.507 -0.4566  0.0348 -0.0447
17859TIP3    H274993   5.284   6.076   4.624 -1.4411 -0.6417  0.4827
17860TIP3   OH274994   3.959   0.257   3.894 -0.2707  0.8445 -0.5007
17860TIP3    H174995   3.990   0.260   3.804  0.2319  1.9480 -0.3114
17860TIP3    H274996   3.865   0.240   3.886 -0.0506 -0.1309 -1.1753
17861TIP3   OH274997   4.511   0.012   0.796 -0.2365 -0.0619 -0.1009
17861TIP3    H174998   4.588  -0.038   0.771  1.5462  2.1978  0.5541
17861TIP3    H274999   4.521   0.096   0.751 -2.3908  0.2842 -0.0665
17862TIP3   OH275000   1.368   6.397  12.160 -0.7552 -0.0103 -0.2179
17862TIP3    H175001   1.330   6.372  12.076  0.5925  0.6300 -1.0433
17862TIP3    H275002   1.439   6.334  12.174 -0.7137  0.1351  0.2465
17863TIP3   OH275003   0.472   4.216   6.178  0.3515 -0.3676 -0.1124
17863TIP3    H175004   0.482   4.222   6.273 -4.3619  2.3852  0.5561
17863TIP3    H275005   0.477   4.307   6.148 -0.7183 -0.8992 -2.0639
17864TIP3   OH275006   0.212   2.854   3.772 -0.3708  0.5470 -0.4607
17864TIP3    H175007   0.140   2.796   3.795 -0.2810  0.6557  0.0976
17864TIP3    H275008   0.176   2.942   3.777  0.1510  0.7048  1.2382
17865TIP3   OH275009   5.080   5.447  15.492 -0.3643  0.0287  0.4876
17865TIP3    H175010   5.018   5.515  15.468 -0.8051  0.4137  2.4948
17865TIP3    H275011   5.054   5.421  15.581 -0.0931 -2.6391 -0.1295
17866TIP3   OH275012   5.946   4.000  12.086  0.5420  0.3338 -0.5397
17866TIP3    H175013   5.921   4.005  11.994  3.3927 -1.0604 -1.5306
17866TIP3    H275014   5.877   3.949  12.127 -0.3246  0.1703 -2.1086
17867TIP3   OH275015   5.744   4.419  11.763 -0.3563 -0.4946 -0.1243
17867TIP3    H175016   5.700   4.504  11.751  2.3900  0.8854 -1.2852
17867TIP3    H275017   5.716   4.367  11.689 -0.2691  0.2589 -0.6976
17868TIP3   OH275018   0.655   0.007  13.526 -0.1845  0.4339  0.2439
17868TIP3    H175019   0.580  -0.046  13.499  0.2684 -0.4416  0.6477
17868TIP3    H275020   0.650   0.085  13.471 -0.8304 -0.0586 -0.4223
17869TIP3   OH275021   6.578   1.528   0.756 -0.1349  0.2828  0.1597
17869TIP3    H175022   6.551   1.619   0.770 -0.0128  0.3332  0.0671
17869TIP3    H275023   6.673   1.529   0.765 -0.0353  0.3422 -0.7961
17870TIP3   OH275024   5.494   5.891  15.014 -0.0632 -0.8267 -0.2600
17870TIP3    H175025   5.432   5.862  15.082 -1.6897  0.0341 -1.3127
17870TIP3    H275026   5.471   5.982  14.997  1.4811 -0.4952 -0.7513
17871TIP3   OH275027   2.036   2.489   3.000 -0.8262  0.3303  0.1194
17871TIP3    H175028   2.053   2.395   2.989  0.1545  0.6191 -0.8945
17871TIP3    H275029   2.096   2.516   3.069 -0.1761  0.4625 -0.4836
17872TIP3   OH275030   2.175   0.491  11.151 -0.3258 -0.7993 -0.2728
17872TIP3    H175031   2.212   0.404  11.133 -2.7388 -1.8406 -0.6810
17872TIP3    H275032   2.224   0.524  11.226  1.3888 -2.0260 -0.8113
17873TIP3   OH275033   6.039   5.684  15.021  0.7680  0.2280  0.5951
17873TIP3    H175034   5.964   5.728  14.982  0.8047 -0.9607 -0.9156
17873TIP3    H275035   6.003   5.633  15.093  0.2471  0.3213  0.4030
17874TIP3   OH275036   5.621   3.795  15.498  0.0044  0.0423  0.0633
17874TIP3    H175037   5.670   3.755  15.570  1.1655  1.7211  0.2534
17874TIP3    H275038   5.535   3.816  15.535 -0.3957 -1.5925  0.1420
17875TIP3   OH275039   0.147   1.706  10.914 -0.5752 -0.5091 -0.2010
17875TIP3    H175040   0.071   1.649  10.923 -0.5088 -0.5366  0.2108
17875TIP3    H275041   0.170   1.701  10.821 -2.3616  1.1901 -0.8000
17876TIP3   OH275042   6.246   0.679   1.943 -0.7409 -0.1821  0.2444
17876TIP3    H175043   6.294   0.741   1.886  0.3000 -0.8993  0.3100
17876TIP3    H275044   6.310   0.610   1.962 -1.3217 -0.3652  1.6469
17877TIP3   OH275045   2.697   4.871   3.233 -0.0877  0.3457 -0.2473
17877TIP3    H175046   2.785   4.908   3.230 -1.2697  3.2735 -1.8080
17877TIP3    H275047   2.709   4.780   3.206  2.3195  0.9770 -1.6178
17878TIP3   OH275048   0.798   6.800   6.122 -0.7706 -0.0708 -0.1428
17878TIP3    H175049   0.707   6.794   6.150 -1.1759 -0.1504 -1.4427
17878TIP3    H275050   0.828   6.709   6.118 -1.1006 -0.1407 -1.1849
17879TIP3   OH275051   2.878   5.378  14.705 -0.2797  0.2459  0.0414
17879TIP3    H175052   2.803   5.358  14.651 -1.2800 -1.7312  2.0161
17879TIP3    H275053   2.945   5.315  14.679 -0.3194  0.1331  0.2071
17880TIP3   OH275054   1.988   0.545  12.407 -0.6100  0.0121  0.0505
17880TIP3    H175055   1.910   0.499  12.379 -0.2738 -1.4180  1.3182
17880TIP3    H275056   2.059   0.507  12.354 -0.3929 -0.6556  0.8058
17881TIP3   OH275057   1.984   3.485  16.993  0.0556  0.1148  0.0058
17881TIP3    H175058   2.045   3.413  16.977 -0.1199  0.2660 -1.5125
17881TIP3    H275059   2.036   3.564  16.975 -0.0017  0.3480  0.8116
17882TIP3   OH275060   1.623   3.149   2.448  0.6059  0.5634 -0.8524
17882TIP3    H175061   1.613   3.084   2.518 -0.4728  0.4345 -1.1071
17882TIP3    H275062   1.716   3.146   2.426  0.7332 -0.2787 -0.2749
17883TIP3   OH275063   3.219   2.447   1.879 -0.2964 -0.1358  0.4464
17883TIP3    H175064   3.237   2.490   1.796  1.9443 -1.1210  0.3350
17883TIP3    H275065   3.129   2.417   1.873  0.0198 -0.7613 -1.9054
17884TIP3   OH275066   0.108   5.195  14.939  0.2988  0.1716 -0.0109
17884TIP3    H175067   0.055   5.261  14.894 -0.3470 -0.4149 -0.1237
17884TIP3    H275068   0.199   5.222  14.924  0.0347  1.4235  0.5458
17885TIP3   OH275069   2.654   1.651   0.002 -0.0558 -0.1072 -0.1682
17885TIP3    H175070   2.580   1.657  -0.059 -0.8424 -1.5511  0.5911
17885TIP3    H275071   2.638   1.721   0.065 -0.3511  0.1066 -0.4773
17886TIP3   OH275072   3.460   4.512   0.136 -0.2065  0.1270  0.1629
17886TIP3    H175073   3.392   4.552   0.082 -0.3885  0.5134  0.6694
17886TIP3    H275074   3.494   4.440   0.083 -2.3473 -1.3326  0.6857
17887TIP3   OH275075   0.016   5.713  13.054  0.1544 -0.3434  0.0485
17887TIP3    H175076  -0.026   5.787  13.096  0.5101 -0.5032  0.7016
17887TIP3    H275077  -0.046   5.685  12.986  0.9343  1.8753 -1.6792
17888TIP3   OH275078   0.274   4.664   2.859 -0.0725  0.1346 -0.2107
17888TIP3    H175079   0.282   4.659   2.954  0.5743  0.9840 -0.2085
17888TIP3    H275080   0.283   4.757   2.839 -1.4389  0.1327 -1.0111
17889TIP3   OH275081   4.419   0.078  15.171  0.2692  0.0285  0.1242
17889TIP3    H175082   4.440   0.031  15.251  2.2760  1.1503  0.3172
17889TIP3    H275083   4.350   0.140  15.197 -1.1099 -1.4947  0.2669
17890TIP3   OH275084   2.765   3.481  11.882  0.7026  0.1702  0.2639
17890TIP3    H175085   2.708   3.512  11.952  0.6614  0.0926  0.2659
17890TIP3    H275086   2.709   3.478  11.805  0.6790  0.0068  0.2863
17891TIP3   OH275087   5.862   3.341   4.563  0.1746  0.5145 -0.2573
17891TIP3    H175088   5.815   3.265   4.594 -0.8335  0.7083 -1.2523
17891TIP3    H275089   5.927   3.359   4.631 -0.7905 -0.1153  0.8584
17892TIP3   OH275090   6.766   2.534   3.395  0.1785 -0.1609  0.5180
17892TIP3    H175091   6.840   2.499   3.444 -1.0256 -1.7086  1.3185
17892TIP3    H275092   6.765   2.483   3.313  0.8588  0.8936 -0.1733
17893TIP3   OH275093   1.252   1.052  13.158  0.0197  1.0354  0.1151
17893TIP3    H175094   1.282   0.961  13.168 -1.1292  0.7491  1.1834
17893TIP3    H275095   1.321   1.094  13.107  0.2163 -0.6283 -1.0661
17894TIP3   OH275096   4.044   3.878   4.531 -0.0912  0.3685  0.0615
17894TIP3    H175097   4.046   3.957   4.476  0.9669 -0.3961 -1.0255
17894TIP3    H275098   3.968   3.829   4.499 -1.2020  1.2414  1.2281
17895TIP3   OH275099   3.716   4.156  14.491  0.3187 -0.7087 -0.0687
17895TIP3    H175100   3.743   4.100  14.418  1.9271  1.8301 -1.5775
17895TIP3    H275101   3.782   4.141  14.558  1.6505  0.4349 -1.0729
17896TIP3   OH275102   2.785   0.763  11.602 -0.8078 -0.2433  0.2947
17896TIP3    H175103   2.846   0.736  11.534 -1.2297  0.6791 -0.4681
17896TIP3    H275104   2.735   0.684  11.622 -0.6115 -0.5523 -0.4057
17897TIP3   OH275105   6.805   6.581   1.217  0.1805 -0.6618  0.0470
17897TIP3    H175106   6.729   6.540   1.175  0.6036  1.0454 -2.6230
17897TIP3    H275107   6.776   6.599   1.307 -2.6694  0.1274 -0.9211
17898TIP3   OH275108   4.355   1.801  10.713 -0.3448  0.9748 -0.5578
17898TIP3    H175109   4.301   1.818  10.791 -0.1950  0.8632 -0.4284
17898TIP3    H275110   4.405   1.882  10.701 -0.7257  1.1757 -0.8321
17899TIP3   OH275111   1.852   2.273   0.168 -0.3818  0.6173  0.6163
17899TIP3    H175112   1.921   2.258   0.104 -1.4793 -0.7686 -0.3033
17899TIP3    H275113   1.823   2.363   0.151  0.0142  0.6031 -0.1826
17900TIP3   OH275114   2.156   1.684   5.495  0.0812  0.1301 -0.4434
17900TIP3    H175115   2.196   1.625   5.432  1.1815  2.0424 -1.6475
17900TIP3    H275116   2.197   1.661   5.579 -1.1296 -2.1889 -0.3936
17901TIP3   OH275117   0.440   0.343  12.779 -0.2386 -0.4188 -0.5176
17901TIP3    H175118   0.427   0.251  12.757 -1.5515  0.3474 -3.3265
17901TIP3    H275119   0.402   0.352  12.867  0.7611 -2.6926  0.2026
17902TIP3   OH275120   0.066   2.289  13.836  0.1794  0.3247 -0.8784
17902TIP3    H175121   0.044   2.376  13.803  0.4500  1.1978  1.1086
17902TIP3    H275122   0.025   2.285  13.922  1.2602 -1.0065 -0.3854
17903TIP3   OH275123   5.985   4.440  15.899 -0.2044  0.4391  0.5193
17903TIP3    H175124   5.910   4.499  15.891 -1.0468 -0.6785 -0.1803
17903TIP3    H275125   6.049   4.489  15.951 -0.9733  1.8427  0.1876
17904TIP3   OH275126   3.658   4.533  11.725 -0.3876  0.0688 -0.4018
17904TIP3    H175127   3.663   4.491  11.811 -1.7895 -0.0089 -0.3408
17904TIP3    H275128   3.585   4.594  11.732  1.8005  2.8624 -0.3783
17905TIP3   OH275129   4.017   5.401  16.371  1.0987 -0.2578  0.0001
17905TIP3    H175130   3.958   5.361  16.435 -0.5085  1.8223 -0.0878
17905TIP3    H275131   4.042   5.485  16.410  1.9236  0.0442 -1.1233
17906TIP3   OH275132   4.406   2.071   5.070  0.2855  0.5212 -0.6742
17906TIP3    H175133   4.357   1.993   5.094  2.7711 -0.8764  0.2315
17906TIP3    H275134   4.388   2.084   4.977 -1.5664 -0.0245 -0.4218
17907TIP3   OH275135   1.313   3.031   0.489  0.3849  0.4576 -0.7198
17907TIP3    H175136   1.266   2.968   0.545 -0.8287  2.4440  0.6225
17907TIP3    H275137   1.263   3.033   0.408  0.7465 -0.6473 -0.9987
17908TIP3   OH275138   5.361   2.862  17.047 -0.1339 -0.5153  0.0673
17908TIP3    H175139   5.432   2.820  17.096  0.4714 -0.5393 -0.8100
17908TIP3    H275140   5.336   2.936  17.102  2.0466  0.7873 -0.5596
17909TIP3   OH275141   5.453   4.009   0.665 -0.4358 -0.2597 -0.2716
17909TIP3    H175142   5.522   4.066   0.699  1.4754 -2.8234  0.4293
17909TIP3    H275143   5.486   3.978   0.581 -2.0752  0.6420 -1.3191
17910TIP3   OH275144   2.331   2.435  13.748 -0.1595  0.4149  0.6384
17910TIP3    H175145   2.247   2.431  13.702 -0.4073  1.6781  0.9451
17910TIP3    H275146   2.367   2.347  13.739 -1.1360  0.0784 -0.2065
17911TIP3   OH275147   3.863   6.544  14.086 -0.0895  0.8738 -0.2113
17911TIP3    H175148   3.772   6.555  14.112  0.4278  3.1848  0.8817
17911TIP3    H275149   3.907   6.623  14.117  2.8400 -1.2921  1.7649
17912TIP3   OH275150   4.441   2.477   4.351 -0.0296  0.3563  0.5170
17912TIP3    H175151   4.349   2.466   4.326  0.4808 -0.2078 -1.2609
17912TIP3    H275152   4.467   2.560   4.309  0.9313 -0.7574 -1.1936
17913TIP3   OH275153   1.241   5.454   4.579 -0.3986 -0.4582 -0.0569
17913TIP3    H175154   1.226   5.452   4.674  1.7537  0.1094  0.3517
17913TIP3    H275155   1.155   5.437   4.541 -1.7867  1.4790  1.9701
17914TIP3   OH275156   4.611   1.413   5.038  0.3592 -0.3830  0.1438
17914TIP3    H175157   4.681   1.445   4.981  1.1082 -0.4797  0.9700
17914TIP3    H275158   4.658   1.370   5.110 -0.5570 -0.3550  0.7686
17915TIP3   OH275159   1.583   3.519   3.731  0.4489  0.3804  0.6281
17915TIP3    H175160   1.672   3.546   3.708  1.0572 -1.7234  0.3119
17915TIP3    H275161   1.593   3.467   3.810 -0.3331 -0.7697  0.0025
17916TIP3   OH275162   0.370   3.013  12.909 -0.8160  0.0736 -0.3078
17916TIP3    H175163   0.436   3.049  12.969  1.0950 -0.7506 -1.7936
17916TIP3    H275164   0.366   3.077  12.837  1.5229 -1.7788 -2.2439
17917TIP3   OH275165   3.864   2.421   5.234 -0.0327  0.5243 -0.1274
17917TIP3    H175166   3.925   2.478   5.186 -0.6270  0.0360 -1.5145
17917TIP3    H275167   3.918   2.349   5.266  0.1255  0.0200 -1.4702
17918TIP3   OH275168   0.945   6.062   0.187 -0.2727  0.6994  0.1164
17918TIP3    H175169   0.913   6.038   0.100  0.7197 -0.3160  0.0190
17918TIP3    H275170   1.040   6.055   0.180 -0.2475 -2.1036  2.0244
17919TIP3   OH275171   6.800   0.031  13.462  0.4064 -0.2653 -0.4708
17919TIP3    H175172   6.850   0.036  13.381 -0.5324  2.5859 -0.9856
17919TIP3    H275173   6.852   0.079  13.526 -1.1372  2.0763 -0.8221
17920TIP3   OH275174   4.268   5.153   1.118  0.0529  0.5492 -0.1402
17920TIP3    H175175   4.306   5.068   1.098  0.4814  1.0931 -1.7874
17920TIP3    H275176   4.175   5.143   1.099  0.1711  0.5486 -0.7445
17921TIP3   OH275177   1.815   4.464   1.566 -0.0257 -0.5866 -0.1868
17921TIP3    H175178   1.744   4.468   1.502 -0.1011 -0.6199 -0.1056
17921TIP3    H275179   1.886   4.516   1.528 -0.9770  1.5942  0.8581
17922TIP3   OH275180   3.962   5.489  16.075  0.4079  0.3986 -0.2430
17922TIP3    H175181   4.029   5.503  16.142 -0.0663  2.3164 -0.1178
17922TIP3    H275182   3.886   5.459  16.123  0.9503 -1.1440 -0.3074
17923TIP3   OH275183   1.828   0.947   6.037  0.2571  0.1008 -0.4615
17923TIP3    H175184   1.909   0.901   6.015  0.7310 -0.0290  1.3941
17923TIP3    H275185   1.758   0.887   6.011  0.8211 -0.7574 -0.0306
17924TIP3   OH275186   6.130   0.661  12.109 -0.4998  0.3520  0.4078
17924TIP3    H175187   6.167   0.689  12.026  1.1830  1.3992  1.4528
17924TIP3    H275188   6.036   0.655  12.093 -0.0888 -0.9236 -1.9359
17925TIP3   OH275189   6.485   5.628   0.794  0.4110  0.3514 -0.2622
17925TIP3    H175190   6.525   5.636   0.707  0.5607  0.2767 -0.2008
17925TIP3    H275191   6.421   5.699   0.797 -1.7061 -1.3642 -1.5462
17926TIP3   OH275192   0.445   5.755   3.224 -0.0138 -0.2648  0.0931
17926TIP3    H175193   0.365   5.719   3.186  0.8760 -2.9757  0.5985
17926TIP3    H275194   0.416   5.801   3.303 -1.3182  1.1760 -1.1539
17927TIP3   OH275195   0.301   3.732   6.241  0.1405 -0.6025  0.2961
17927TIP3    H175196   0.243   3.808   6.250  1.8891  1.0060 -1.1929
17927TIP3    H275197   0.386   3.763   6.273  0.7280 -2.1999  0.3761
17928TIP3   OH275198   1.453   0.524   1.782  0.3837  0.1045  0.0413
17928TIP3    H175199   1.478   0.616   1.784  1.0690  0.1728 -4.0206
17928TIP3    H275200   1.379   0.518   1.843 -0.8054  3.7292 -0.8227
17929TIP3   OH275201   2.356   6.435   3.989 -0.2561 -0.1292  0.0133
17929TIP3    H175202   2.268   6.406   3.963 -1.0504  2.5590 -0.5628
17929TIP3    H275203   2.376   6.382   4.067 -1.6616 -1.9326 -0.7784
17930TIP3   OH275204   1.025   5.390   4.454  0.5007  0.1912 -0.2993
17930TIP3    H175205   0.943   5.344   4.474  0.5968 -0.1342 -0.6436
17930TIP3    H275206   0.998   5.480   4.437  0.3037  0.2588  0.3227
17931TIP3   OH275207   3.243   3.540   0.926 -0.3305  0.4121  0.7279
17931TIP3    H175208   3.171   3.484   0.896 -0.5039 -0.7987  3.1968
17931TIP3    H275209   3.319   3.509   0.877 -0.3929 -2.1663  2.1178
17932TIP3   OH275210   4.981   4.326   1.766 -0.5464 -0.0155 -0.0191
17932TIP3    H175211   4.969   4.386   1.692  2.4774  1.1051  0.2511
17932TIP3    H275212   5.010   4.244   1.726 -0.7917 -0.0165 -0.1933
17933TIP3   OH275213   1.808   3.558   0.054 -0.2606 -0.3574  0.3760
17933TIP3    H175214   1.869   3.514  -0.005 -0.5741 -0.9801  0.5115
17933TIP3    H275215   1.749   3.606  -0.005 -1.4478 -2.0893  0.0626
17934TIP3   OH275216   6.810   4.060  15.115  0.0877  0.0588  0.2080
17934TIP3    H175217   6.806   3.972  15.153 -0.6362 -0.0334 -0.0672
17934TIP3    H275218   6.902   4.073  15.094  0.0363 -1.1385 -0.9060
17935TIP3   OH275219   3.160   5.287   2.053  0.0953  0.2409  0.9242
17935TIP3    H175220   3.150   5.216   2.117 -0.3225 -1.5048 -0.9680
17935TIP3    H275221   3.239   5.334   2.081  1.0934 -1.7241  1.5999
17936TIP3   OH275222   6.290   1.960  16.954  0.0786  0.3390  0.0363
17936TIP3    H175223   6.218   2.016  16.926 -0.7558 -0.9529 -0.4898
17936TIP3    H275224   6.249   1.894  17.010  0.2689 -2.0878 -2.4393
17937TIP3   OH275225   2.554   0.331   0.740 -0.4581  0.2723  0.1354
17937TIP3    H175226   2.561   0.244   0.702 -1.1756 -0.1134  0.8501
17937TIP3    H275227   2.624   0.382   0.698 -0.8493 -0.2893 -1.2273
17938TIP3   OH275228   0.146   0.970  12.205 -0.0903 -0.5510  0.3400
17938TIP3    H175229   0.052   0.969  12.192 -0.2091  1.0922  0.8465
17938TIP3    H275230   0.174   1.057  12.176  1.3255 -1.1478 -0.1683
17939TIP3   OH275231   1.668   4.649  14.349 -0.7284  0.1391  0.2243
17939TIP3    H175232   1.582   4.670  14.313 -0.5652  1.3850  0.5312
17939TIP3    H275233   1.651   4.580  14.413 -1.3847 -0.2026 -0.3120
17940TIP3   OH275234   6.804   3.047   1.389 -1.1214 -0.4654 -0.3429
17940TIP3    H175235   6.746   2.972   1.378 -2.5334  0.6725 -1.1809
17940TIP3    H275236   6.892   3.013   1.373 -1.6494 -2.0465 -0.0540
17941TIP3   OH275237   0.260   5.608  16.685  0.5423  0.1952  0.2419
17941TIP3    H175238   0.310   5.628  16.606 -0.4618  2.1592  0.0557
17941TIP3    H275239   0.168   5.612  16.658  0.1355 -3.0196  0.6537
17942TIP3   OH275240   0.257   3.876  14.583 -0.2116  0.4471 -0.3996
17942TIP3    H175241   0.212   3.807  14.632  1.3228 -0.1215  0.2879
17942TIP3    H275242   0.230   3.957  14.626  0.9902 -0.0307  1.3633
17943TIP3   OH275243   0.059   6.651  11.468  0.1269  0.1331 -0.2397
17943TIP3    H175244   0.124   6.604  11.520 -0.9971 -0.3524  0.7877
17943TIP3    H275245   0.090   6.642  11.377  1.1639 -0.5935  0.1627
17944TIP3   OH275246   2.141   1.626   1.191  0.1160  0.0632  0.2441
17944TIP3    H175247   2.133   1.563   1.263  0.0249 -0.7497 -0.4672
17944TIP3    H275248   2.233   1.621   1.165 -0.0304 -0.2414 -0.2250
17945TIP3   OH275249   6.363   3.004  13.600  0.6914  0.0607 -0.4080
17945TIP3    H175250   6.284   3.034  13.555  1.5496  3.8463  0.2659
17945TIP3    H275251   6.410   2.953  13.535 -0.5953  0.8733 -2.0444
17946TIP3   OH275252   1.750   4.535   3.374 -0.6868 -0.5600  0.2601
17946TIP3    H175253   1.837   4.569   3.352  0.2810 -1.8415  1.9162
17946TIP3    H275254   1.721   4.488   3.296 -1.1435  2.1276 -1.3094
17947TIP3   OH275255   5.919   3.223   0.342  0.4365  0.4610  0.4386
17947TIP3    H175256   5.967   3.198   0.263 -1.1431 -3.2690  0.4554
17947TIP3    H275257   5.984   3.219   0.412  0.7741 -1.8401  0.0704
17948TIP3   OH275258   0.395   4.459   6.082  0.1578  0.1491 -0.2800
17948TIP3    H175259   0.357   4.409   6.010  2.3743 -0.2104 -1.2742
17948TIP3    H275260   0.376   4.551   6.062 -4.4849 -0.0475  1.8668
17949TIP3   OH275261   4.282   3.405   1.996  0.3655  0.3144  0.2583
17949TIP3    H175262   4.281   3.493   2.034 -1.6308  0.2837  0.3885
17949TIP3    H275263   4.216   3.407   1.927  0.0122 -1.1805  0.5123
17950TIP3   OH275264   6.571   4.421  12.450  0.3031 -0.2324 -0.5093
17950TIP3    H175265   6.639   4.485  12.470  0.7293 -0.9866  0.5369
17950TIP3    H275266   6.490   4.473  12.446  0.7820  0.5089 -0.6595
17951TIP3   OH275267   5.914   2.311  17.061  0.0429 -0.4089  0.8684
17951TIP3    H175268   5.969   2.282  17.134  0.7883 -1.1482  0.0339
17951TIP3    H275269   5.826   2.282  17.086 -0.3968  2.3764  3.0731
17952TIP3   OH275270   5.712   2.615  11.519  0.1051  0.3954  0.5251
17952TIP3    H175271   5.698   2.525  11.547 -2.1111  0.8544  1.1049
17952TIP3    H275272   5.752   2.658  11.595  0.4189  0.0929  0.5345
17953TIP3   OH275273   2.147   3.338  14.378 -0.2836 -0.7081  0.0349
17953TIP3    H175274   2.163   3.387  14.297 -1.1588 -1.0271 -0.3354
17953TIP3    H275275   2.057   3.359  14.403  0.7899  1.5996  2.4720
17954TIP3   OH275276   1.011   5.525  15.869 -0.0912  0.2063  0.8891
17954TIP3    H175277   0.948   5.489  15.806  1.6270  0.1557 -0.8783
17954TIP3    H275278   1.061   5.449  15.899 -0.7853  0.2517  2.2790
17955TIP3   OH275279   6.247   4.819  13.598  0.0495 -0.3931 -0.3549
17955TIP3    H175280   6.179   4.784  13.540 -0.5230 -1.3904  0.8958
17955TIP3    H275281   6.267   4.748  13.658 -1.3321  1.4338  2.4621
17956TIP3   OH275282   6.690   0.472  16.231 -0.2029 -0.2322 -0.0697
17956TIP3    H175283   6.713   0.412  16.159  0.7201  0.0935 -0.0531
17956TIP3    H275284   6.766   0.472  16.288 -1.0296 -0.6895  1.0783
17957TIP3   OH275285   5.649   1.472  16.601 -0.9472  0.7535  0.2414
17957TIP3    H175286   5.735   1.444  16.568 -0.7858  1.0318  0.4329
17957TIP3    H275287   5.633   1.556  16.559 -0.3851  1.4984  1.4840
17958TIP3   OH275288   2.940   0.589  12.382 -0.1988 -0.0606  0.0917
17958TIP3    H175289   2.855   0.631  12.372  0.8980  1.9586 -1.5413
17958TIP3    H275290   2.967   0.612  12.471 -0.6037  0.8067  0.0054
17959TIP3   OH275291   3.865   1.979  17.029  0.2302  0.3853  0.1858
17959TIP3    H175292   3.832   1.901  16.985 -0.6455  0.9627 -0.2041
17959TIP3    H275293   3.952   1.993  16.992  0.3892 -0.3905  0.2511
17960TIP3   OH275294   6.368   4.648  13.130 -0.0440 -0.0227 -0.1022
17960TIP3    H175295   6.418   4.635  13.211  1.8673  0.2457 -1.1575
17960TIP3    H275296   6.358   4.560  13.094  0.9280  0.0260 -0.5470
17961TIP3   OH275297   5.315   4.017  11.594 -0.0409 -0.3069 -0.4303
17961TIP3    H175298   5.408   4.006  11.573  0.5511 -0.3350  1.8754
17961TIP3    H275299   5.294   3.940  11.648 -0.4704  1.2565  1.7707
17962TIP3   OH275300   2.381   1.883   3.665 -0.0982 -0.1387  0.2592
17962TIP3    H175301   2.400   1.928   3.747 -3.2365  1.8278  0.0643
17962TIP3    H275302   2.292   1.849   3.676 -0.5699  0.0887 -2.2620
17963TIP3   OH275303   4.591   1.595   4.152  0.0583  0.3028 -0.2583
17963TIP3    H175304   4.648   1.672   4.149 -1.3078  1.3305 -0.8602
17963TIP3    H275305   4.551   1.592   4.065 -1.3563  0.0432  0.3790
17964TIP3   OH275306   1.136   0.083  16.518  0.0601  0.1266 -0.0032
17964TIP3    H175307   1.131   0.158  16.459  0.0484 -1.1328 -1.6587
17964TIP3    H275308   1.223   0.088  16.556  0.6171  0.1593 -1.2433
17965TIP3   OH275309   5.323   1.363  15.991 -0.1396  0.6956  0.0166
17965TIP3    H175310   5.255   1.299  15.971  0.3730  0.5911 -1.5292
17965TIP3    H275311   5.330   1.362  16.087  0.1448 -1.8671  0.0300
17966TIP3   OH275312   5.311   2.685   3.927 -0.2559  0.1311 -1.1950
17966TIP3    H175313   5.270   2.598   3.923 -0.1679  0.0569 -0.6540
17966TIP3    H275314   5.404   2.668   3.918  0.0143 -0.1132  1.3464
17967TIP3   OH275315   4.774   1.522  13.295  0.1189 -0.1924 -0.0756
17967TIP3    H175316   4.746   1.537  13.386 -2.5891  0.3646 -0.9037
17967TIP3    H275317   4.834   1.593  13.276  0.3133 -0.0141  1.1321
17968TIP3   OH275318   5.845   2.426   3.110 -0.3561  0.0622  0.2763
17968TIP3    H175319   5.923   2.441   3.056 -0.6167 -2.0965 -0.7860
17968TIP3    H275320   5.870   2.355   3.168 -0.6702  1.2079  1.8816
17969TIP3   OH275321   4.725   4.405   6.208  0.4235 -0.0046 -0.2267
17969TIP3    H175322   4.811   4.364   6.199  0.4827  0.1929 -0.6100
17969TIP3    H275323   4.721   4.467   6.135 -0.3119 -0.4825 -0.5983
17970TIP3   OH275324   0.650   1.995  13.916 -0.1775  0.2964  0.3902
17970TIP3    H175325   0.606   1.958  13.839  1.3952  0.7250 -0.7459
17970TIP3    H275326   0.579   2.036  13.966 -1.3942 -0.9336 -0.2440
17971TIP3   OH275327   0.553   6.228   3.172 -0.3753  0.4291  0.3617
17971TIP3    H175328   0.623   6.254   3.111  0.4506  0.5038  1.3282
17971TIP3    H275329   0.588   6.153   3.219 -1.1742  0.1154  0.4844
17972TIP3   OH275330   0.193   5.964   1.711  0.2700 -0.2168  0.1413
17972TIP3    H175331   0.199   5.960   1.806 -0.3002  0.0558  0.1941
17972TIP3    H275332   0.125   6.030   1.694  0.5322 -0.0929 -0.4558
17973TIP3   OH275333   1.269   2.317   4.658 -0.1381 -0.2179  0.1273
17973TIP3    H175334   1.342   2.376   4.676 -0.4178 -0.0334  0.6711
17973TIP3    H275335   1.195   2.355   4.705 -0.4814 -0.6417 -0.0629
17974TIP3   OH275336   4.131   2.017   2.998 -0.2992  0.4113  0.3943
17974TIP3    H175337   4.116   1.969   2.917 -0.6981  0.8667  0.1956
17974TIP3    H275338   4.223   2.044   2.993 -0.3470  0.5133  0.0537
17975TIP3   OH275339   0.692   5.311   1.024 -0.4297 -0.3923 -0.1916
17975TIP3    H175340   0.665   5.399   0.997  1.1490 -0.2386 -1.3934
17975TIP3    H275341   0.633   5.252   0.978 -2.3295 -0.0063  1.5763
17976TIP3   OH275342   4.215   4.972   3.033 -0.4720 -0.1360 -0.7351
17976TIP3    H175343   4.276   5.022   3.087 -0.2605 -0.8691 -0.2795
17976TIP3    H275344   4.208   5.022   2.952  0.1774  0.3271 -0.5140
17977TIP3   OH275345   2.544   6.328   0.059 -0.2448  0.3064 -0.4079
17977TIP3    H175346   2.527   6.253   0.117 -0.3147  0.1841 -0.5848
17977TIP3    H275347   2.577   6.396   0.117 -0.2101  0.1475 -0.2397
17978TIP3   OH275348   1.378   0.822   6.062  0.4211 -0.5819 -0.4427
17978TIP3    H175349   1.454   0.791   6.111  0.8656 -0.1240 -0.8232
17978TIP3    H275350   1.345   0.744   6.017 -1.0381 -1.3932  1.8705
17979TIP3   OH275351   1.728   5.733  16.136 -0.3207  0.4261 -0.3306
17979TIP3    H175352   1.820   5.748  16.154 -0.5583  1.6756 -0.0123
17979TIP3    H275353   1.723   5.725  16.041  0.4086 -2.1539 -0.2299
17980TIP3   OH275354   3.359   1.745  13.025  0.2576  0.3171 -0.0448
17980TIP3    H175355   3.291   1.791  13.074 -0.2525 -1.3804  0.9198
17980TIP3    H275356   3.428   1.727  13.089 -0.1082 -1.3279 -0.0706
17981TIP3   OH275357   1.282   3.207  12.556 -0.2062  0.7829 -0.1547
17981TIP3    H175358   1.368   3.165  12.548 -0.1864  0.9435 -0.8270
17981TIP3    H275359   1.233   3.150  12.615  0.2985  0.5875  0.0791
17982TIP3   OH275360   4.887   4.377  15.340 -0.3970 -0.0556 -0.2372
17982TIP3    H175361   4.803   4.349  15.304 -1.5859  1.5588  1.1187
17982TIP3    H275362   4.880   4.472  15.346  1.6539  0.1370 -0.3404
17983TIP3   OH275363   3.819   1.395   0.225 -0.0698  1.2994 -0.1241
17983TIP3    H175364   3.769   1.390   0.306  0.6493 -1.0498  0.2493
17983TIP3    H275365   3.771   1.457   0.171 -1.8656  1.1461  1.2037
17984TIP3   OH275366   1.193   6.176   2.732  0.0089  0.1468  0.5837
17984TIP3    H175367   1.248   6.147   2.659  0.3856 -0.3294  1.0497
17984TIP3    H275368   1.126   6.230   2.691  0.8346  0.7590  0.0009
17985TIP3   OH275369   2.399   5.686  12.535  0.5212  0.0481 -0.1471
17985TIP3    H175370   2.466   5.754  12.538  0.8727 -0.3356  0.9006
17985TIP3    H275371   2.369   5.687  12.444  0.1103  1.9769 -0.0284
17986TIP3   OH275372   3.180   5.698  11.865 -0.1901  0.4427 -0.3835
17986TIP3    H175373   3.088   5.713  11.885 -0.2656  2.3363 -1.8142
17986TIP3    H275374   3.211   5.638  11.933 -2.1674  0.6942  0.8045
17987TIP3   OH275375   0.796   4.849   4.165 -0.6667  0.1674  0.2665
17987TIP3    H175376   0.746   4.771   4.140 -0.1565 -0.4381  1.0732
17987TIP3    H275377   0.795   4.904   4.087 -0.4494 -0.9524 -0.5557
17988TIP3   OH275378   6.404   3.997  14.923 -0.2635  0.1251  0.4191
17988TIP3    H175379   6.311   4.014  14.913 -0.6063 -1.0604  1.3856
17988TIP3    H275380   6.446   4.050  14.855 -1.9086 -2.5223 -2.9742
17989TIP3   OH275381   5.422   1.382   5.266 -0.2062 -0.4494  0.0086
17989TIP3    H175382   5.491   1.424   5.317 -0.4626 -1.8172  1.5688
17989TIP3    H275383   5.399   1.447   5.199  0.1096  1.4672  1.6590
17990TIP3   OH275384   5.984   6.573   0.558  0.0523 -0.2883  0.0083
17990TIP3    H175385   5.980   6.558   0.464  3.2261 -0.4296 -0.2137
17990TIP3    H275386   6.003   6.667   0.567  0.2822 -0.3751  0.4734
17991TIP3   OH275387   4.508   2.702  12.208 -0.3813  0.0502 -0.1053
17991TIP3    H175388   4.479   2.709  12.299  0.5474  0.3170  0.1801
17991TIP3    H275389   4.512   2.793  12.177  0.6325  0.0560  0.0243
17992TIP3   OH275390   6.239   4.850  12.548  0.2757  0.6908  0.2034
17992TIP3    H175391   6.331   4.873  12.563  0.5211 -0.3041  0.3370
17992TIP3    H275392   6.205   4.920  12.492  0.9605  1.3546  0.6010
17993TIP3   OH275393   0.421   6.018   1.228 -0.2319  0.0711 -0.0380
17993TIP3    H175394   0.385   6.076   1.161  3.5266  1.0607 -1.4354
17993TIP3    H275395   0.387   5.931   1.206 -0.3948  0.6350 -2.2403
17994TIP3   OH275396   0.640   4.136  13.540  0.6569 -0.3886  0.5007
17994TIP3    H175397   0.627   4.059  13.595  0.9321  0.0405  1.1834
17994TIP3    H275398   0.554   4.177  13.535  0.4571 -0.8744 -0.0716
17995TIP3   OH275399   2.747   5.555  13.120  0.2397 -0.4421  1.0939
17995TIP3    H175400   2.737   5.649  13.131 -1.4835 -0.5840  0.9450
17995TIP3    H275401   2.831   5.544  13.076 -0.5512  1.1647 -0.9129
17996TIP3   OH275402   5.529   5.265   1.065 -0.4240 -0.1579 -0.4978
17996TIP3    H175403   5.588   5.194   1.040 -2.0961 -1.6863 -0.3893
17996TIP3    H275404   5.584   5.343   1.069  1.2636 -1.1986 -1.8952
17997TIP3   OH275405   3.909   0.400   4.962  0.1475 -0.8602  0.0246
17997TIP3    H175406   3.890   0.317   4.919  0.1894 -1.2195  0.6769
17997TIP3    H275407   3.957   0.451   4.897 -1.3914 -0.6563 -1.0032
17998TIP3   OH275408   2.269   6.726  12.504 -0.2909  0.2110  0.3221
17998TIP3    H175409   2.323   6.656  12.467 -0.0113  1.2778 -1.4007
17998TIP3    H275410   2.327   6.771  12.565  0.7358  1.1283 -1.2522
17999TIP3   OH275411   1.643   2.036   2.285 -0.1983 -0.5432  0.4460
17999TIP3    H175412   1.695   1.961   2.256 -0.5090 -0.1469 -1.2986
17999TIP3    H275413   1.555   2.019   2.250 -0.3264  0.5038  0.2228
18000TIP3   OH275414   1.505   4.538  13.926  0.2993 -0.5449  0.3046
18000TIP3    H175415   1.444   4.579  13.864 -0.5346  0.2616  1.6034
18000TIP3    H275416   1.480   4.446  13.927  0.8290 -0.7278 -1.1029
18001TIP3   OH275417   0.752   1.247  13.560  0.2384 -0.6046  0.1808
18001TIP3    H175418   0.681   1.310  13.575  1.6684  1.0912  0.0968
18001TIP3    H275419   0.806   1.287  13.493  0.1327 -2.8961 -1.3725
18002TIP3   OH275420   5.455   2.671  12.157 -0.4376 -0.3817  0.5991
18002TIP3    H175421   5.456   2.762  12.128  0.7872 -0.4467  0.3400
18002TIP3    H275422   5.512   2.670  12.234 -0.7312 -0.8630  0.8112
18003TIP3   OH275423   0.153   6.279   4.696  0.6261 -0.3301 -0.4573
18003TIP3    H175424   0.124   6.365   4.667 -2.0430 -1.5444 -1.6961
18003TIP3    H275425   0.209   6.247   4.625 -0.3869 -0.5888 -1.1447
18004TIP3   OH275426   0.120   5.673   5.581  0.4000  0.0132  0.1429
18004TIP3    H175427   0.198   5.624   5.556  1.6691  2.2849 -0.6512
18004TIP3    H275428   0.148   5.765   5.578 -1.7802  0.8037  1.7447
18005TIP3   OH275429   3.743   3.702  16.785  0.4794 -0.0267 -0.2444
18005TIP3    H175430   3.687   3.775  16.758 -0.8017  0.1711  2.5997
18005TIP3    H275431   3.823   3.714  16.734 -0.5877  1.9493 -1.6109
18006TIP3   OH275432   0.127   4.025   5.716  0.3509  0.4511  0.1437
18006TIP3    H175433   0.084   4.097   5.761 -0.9518 -0.9692  1.2806
18006TIP3    H275434   0.153   3.965   5.786 -1.0254 -1.4552 -0.8939
18007TIP3   OH275435   1.934   2.874  13.741  0.2857 -0.5550 -0.0289
18007TIP3    H175436   1.932   2.957  13.790 -0.1508 -1.2596  1.1910
18007TIP3    H275437   1.844   2.863  13.709  0.0011 -1.2008  0.9558
18008TIP3   OH275438   4.466   3.978  11.233  0.4060  0.1983  0.2603
18008TIP3    H175439   4.555   3.944  11.231 -0.1112 -1.2350 -0.2459
18008TIP3    H275440   4.411   3.902  11.212 -0.9179  1.0935  0.3339
18009TIP3   OH275441   5.008   4.986  15.966  0.2145 -0.0417  0.2023
18009TIP3    H175442   4.952   5.043  15.915  1.9057  1.1137 -0.4418
18009TIP3    H275443   5.024   4.911  15.910  1.0051  0.6149 -0.4672
18010TIP3   OH275444   4.227   1.448   1.961  0.2222  0.1186 -0.0653
18010TIP3    H175445   4.194   1.418   2.046  1.7864 -1.1653  0.1327
18010TIP3    H275446   4.184   1.389   1.898  0.0766  0.2055 -0.0477
18011TIP3   OH275447   1.920   6.409  11.324 -0.0633 -0.1946 -0.0541
18011TIP3    H175448   1.897   6.346  11.255  1.1732 -0.2385 -0.4462
18011TIP3    H275449   1.870   6.379  11.400 -0.7142 -0.7143 -0.6585
18012TIP3   OH275450   6.078   4.283  12.995  1.0069 -0.0830 -0.3636
18012TIP3    H175451   6.049   4.197  13.028  0.7792 -0.4299 -1.4175
18012TIP3    H275452   6.173   4.282  13.006  1.1255 -0.9273 -1.3882
18013TIP3   OH275453   0.562   5.983   2.009 -0.4320 -0.0466  0.1697
18013TIP3    H175454   0.560   6.011   1.918 -1.4558  0.7380  0.4091
18013TIP3    H275455   0.583   6.063   2.058  2.1018 -0.8399  0.5236
18014TIP3   OH275456   0.471   6.411   2.801  0.4633 -0.4028 -0.1572
18014TIP3    H175457   0.379   6.407   2.827 -0.7165  0.2922 -3.6235
18014TIP3    H275458   0.497   6.319   2.793  0.1109 -0.6052  0.8902
18015TIP3   OH275459   2.065   0.547  15.003 -0.2540  0.0609 -0.3161
18015TIP3    H175460   1.969   0.546  14.994 -0.3705 -0.5868  0.8391
18015TIP3    H275461   2.097   0.546  14.913 -1.3378 -0.8248 -0.7158
18016TIP3   OH275462   3.602   3.929   4.175  0.0136 -0.1665 -0.0512
18016TIP3    H175463   3.515   3.968   4.163  0.3960  0.8432  0.2966
18016TIP3    H275464   3.610   3.865   4.104 -1.9491 -2.0498  1.2842
18017TIP3   OH275465   2.073   5.269   3.651 -0.3898 -0.2355 -0.7282
18017TIP3    H175466   2.168   5.275   3.664 -0.4220 -0.8646 -0.1399
18017TIP3    H275467   2.055   5.175   3.651 -0.9932 -0.1212 -0.9982
18018TIP3   OH275468   0.478   2.057  16.058 -0.0655 -0.1674 -0.0521
18018TIP3    H175469   0.572   2.063  16.038  0.3046  0.2432  1.5917
18018TIP3    H275470   0.463   1.963  16.073 -0.0356 -0.2938 -0.7869
18019TIP3   OH275471   3.301   2.365   0.556 -0.0410 -0.5275  0.1179
18019TIP3    H175472   3.310   2.293   0.494 -0.8610 -0.1951 -0.4135
18019TIP3    H275473   3.360   2.433   0.523  0.1466 -0.6567  0.1824
18020TIP3   OH275474   3.562   4.363  13.606 -0.1018  0.1067 -0.9160
18020TIP3    H175475   3.472   4.395  13.610  0.0215  0.3727  0.0330
18020TIP3    H275476   3.603   4.414  13.536 -0.1914  1.3167 -0.1106
18021TIP3   OH275477   3.690   6.317   4.252  0.0948 -0.8064 -0.4803
18021TIP3    H175478   3.726   6.234   4.283 -2.4323 -1.9427 -0.3750
18021TIP3    H275479   3.627   6.292   4.184 -1.4964  0.9272  0.2789
18022TIP3   OH275480   0.478   3.194   2.509  0.5064 -0.2212 -0.3191
18022TIP3    H175481   0.479   3.144   2.590  0.4055 -0.4695 -0.4715
18022TIP3    H275482   0.543   3.263   2.522 -0.2898  0.4190  0.4041
18023TIP3   OH275483   3.559   6.761   3.851  0.6109  0.1839  0.3738
18023TIP3    H175484   3.531   6.678   3.889 -0.3681  0.5155  0.4117
18023TIP3    H275485   3.480   6.815   3.851  0.3154 -0.0617 -2.8414
18024TIP3   OH275486   4.877   5.408   6.583 -0.1342  0.1723 -0.3540
18024TIP3    H175487   4.812   5.452   6.529 -1.6439 -1.0127  0.3826
18024TIP3    H275488   4.935   5.364   6.521  0.2750  1.6312 -1.0402
18025TIP3   OH275489   4.237   5.979  11.552  0.9249 -0.2747 -0.8742
18025TIP3    H175490   4.202   6.041  11.488  0.2169  1.2514  0.9043
18025TIP3    H275491   4.160   5.947  11.599  1.5708  1.7884  1.9047
18026TIP3   OH275492   2.866   4.902   1.452  0.3492 -0.5395  0.2478
18026TIP3    H175493   2.856   4.923   1.359  0.2654 -0.7201  0.2150
18026TIP3    H275494   2.839   4.982   1.497 -0.9868 -0.9095  0.1545
18027TIP3   OH275495   4.724   1.255   1.334 -0.4821 -0.1770  0.0717
18027TIP3    H175496   4.756   1.195   1.401  0.4479  0.2842  0.0615
18027TIP3    H275497   4.734   1.342   1.373  0.4005  0.1203 -0.7670
18028TIP3   OH275498   2.591   5.481  13.791 -0.4771  0.3526 -0.2906
18028TIP3    H175499   2.585   5.557  13.850 -0.7062  1.5260 -1.7626
18028TIP3    H275500   2.671   5.436  13.817  0.4625  1.9371 -0.3056
18029TIP3   OH275501   4.933   2.743  17.035 -0.5962  0.2243  0.2549
18029TIP3    H175502   4.989   2.808  17.078 -0.9387  0.7006 -0.0083
18029TIP3    H275503   4.846   2.758  17.073 -0.4766 -0.7440  0.9198
18030TIP3   OH275504   5.728   4.845  16.248  0.0683 -0.3298 -0.4594
18030TIP3    H175505   5.786   4.858  16.323 -0.0534 -0.2272 -0.3835
18030TIP3    H275506   5.697   4.933  16.226 -1.5251 -0.5831  0.6566
18031TIP3   OH275507   2.512   0.032   6.041 -0.5877 -0.0711 -0.0438
18031TIP3    H175508   2.520  -0.017   5.959  0.8908  0.7179 -0.4058
18031TIP3    H275509   2.530  -0.032   6.110  0.9227 -0.1710 -0.4902
18032TIP3   OH275510   2.573   5.152   6.002  0.1037 -0.3002  0.0656
18032TIP3    H175511   2.506   5.087   6.024 -1.4987  1.3064  0.1183
18032TIP3    H275512   2.618   5.168   6.085  0.1250 -0.9125  0.1781
18033TIP3   OH275513   5.435   0.033  14.371 -0.1893  0.0038 -0.3126
18033TIP3    H175514   5.392  -0.052  14.380  0.5477 -0.1700  1.9988
18033TIP3    H275515   5.522   0.013  14.338 -0.2356 -0.0614 -0.3965
18034TIP3   OH275516   5.154   4.528   5.910 -0.1744  0.3509 -0.0422
18034TIP3    H175517   5.126   4.541   6.000 -1.2529  0.3698 -0.3605
18034TIP3    H275518   5.093   4.463   5.875 -1.1830  1.9135 -1.3701
18035TIP3   OH275519   5.726   2.102   5.829  0.0789 -0.3329  0.1925
18035TIP3    H175520   5.682   2.114   5.913 -0.7094 -0.9053 -0.1327
18035TIP3    H275521   5.687   2.168   5.772  0.0658 -0.4523  0.0641
18036TIP3   OH275522   4.280   5.253   3.889  0.6080 -0.2910 -0.2127
18036TIP3    H175523   4.198   5.203   3.890  0.2253  0.3001 -1.2449
18036TIP3    H275524   4.341   5.199   3.941 -0.1195 -1.2567 -0.3309
18037TIP3   OH275525   5.724   3.529  14.058 -0.3158 -0.2141 -0.5749
18037TIP3    H175526   5.751   3.527  14.150 -0.7335 -0.4999 -0.4546
18037TIP3    H275527   5.726   3.437  14.031 -3.2124 -0.5357  0.0526
18038TIP3   OH275528   0.944   3.094  10.736  0.4427 -0.5040  0.1225
18038TIP3    H175529   0.956   3.116  10.643  1.9102  1.6619  0.7463
18038TIP3    H275530   0.879   3.157  10.766  0.9408 -0.3385  0.8568
18039TIP3   OH275531   0.094   4.619  12.713 -0.1625  0.0038  0.2059
18039TIP3    H175532   0.032   4.657  12.651  1.4684  1.5483 -0.5603
18039TIP3    H275533   0.064   4.529  12.724 -2.5073  0.6796 -0.1186
18040TIP3   OH275534   4.573   5.185  11.073 -0.1514  0.1230 -0.3799
18040TIP3    H175535   4.604   5.129  11.143  0.8876 -0.9331 -1.6291
18040TIP3    H275536   4.646   5.246  11.057 -0.2563  0.1579 -0.7429
18041TIP3   OH275537   6.527   5.602  16.260 -0.2106 -0.1227 -0.4879
18041TIP3    H175538   6.435   5.629  16.258 -0.4791 -1.0676 -1.6101
18041TIP3    H275539   6.566   5.658  16.327 -1.1646  1.6737 -1.3443
18042TIP3   OH275540   3.355   3.784  14.620 -0.2228  0.1792 -0.5462
18042TIP3    H175541   3.433   3.732  14.638  2.2301  1.9876 -4.3960
18042TIP3    H275542   3.387   3.874  14.619 -3.0143  1.2745  0.2397
18043TIP3   OH275543   5.604   6.120  13.198 -0.3765  0.2301 -0.3193
18043TIP3    H175544   5.675   6.144  13.138 -1.4510  0.2831 -1.6310
18043TIP3    H275545   5.560   6.203  13.216 -1.2498 -0.0523 -1.0723
18044TIP3   OH275546   2.112   0.902   3.468  0.1769  0.8222  0.2011
18044TIP3    H175547   2.088   0.880   3.378 -2.2317  1.0268  0.7160
18044TIP3    H275548   2.142   0.993   3.463 -1.0274  1.2178 -0.2737
18045TIP3   OH275549   2.448   0.975  11.156 -0.1018  0.2179  0.4541
18045TIP3    H175550   2.392   0.908  11.117  0.0368  0.6704 -0.5441
18045TIP3    H275551   2.437   1.051  11.100  0.2075  0.8523  1.2345
18046TIP3   OH275552   3.396   6.259  12.510 -0.3957  0.4245  0.3579
18046TIP3    H175553   3.487   6.248  12.539 -0.3521  0.1225  0.1063
18046TIP3    H275554   3.351   6.183  12.545 -0.5636  0.5933  0.5130
18047TIP3   OH275555   3.936   5.313   6.171 -0.3925 -0.4239 -0.1219
18047TIP3    H175556   3.888   5.316   6.254  0.2246 -0.4605  0.2389
18047TIP3    H275557   3.949   5.406   6.148  0.4540 -0.4086  0.4160
18048TIP3   OH275558   3.315   2.054  14.434  0.3379  0.6846  0.1478
18048TIP3    H175559   3.388   2.099  14.477 -0.6319  1.6033  0.8672
18048TIP3    H275560   3.333   1.961  14.449  1.6123  0.8702 -0.1084
18049TIP3   OH275561   3.942   4.708  15.065  0.0674 -0.1128 -0.1993
18049TIP3    H175562   3.984   4.789  15.036  0.1617 -0.3064 -0.6128
18049TIP3    H275563   3.898   4.732  15.146  0.1854  0.3272 -0.2600
18050TIP3   OH275564   5.470   2.860  14.793  0.1147  0.2162 -0.2460
18050TIP3    H175565   5.441   2.776  14.828  2.2012 -0.1608  0.7768
18050TIP3    H275566   5.397   2.919  14.806 -0.6393 -0.9454  0.9724
18051TIP3   OH275567   2.154   0.923  16.904  0.3546  0.2016  0.0683
18051TIP3    H175568   2.141   0.844  16.852  0.1146  0.2965 -0.0195
18051TIP3    H275569   2.248   0.927  16.920  0.3088 -0.3872  0.5214
18052TIP3   OH275570   0.656   0.334   2.065 -0.6414  0.3391 -0.4680
18052TIP3    H175571   0.744   0.298   2.063 -0.7024  0.1339  0.4289
18052TIP3    H275572   0.652   0.384   2.146 -1.3834  0.2481 -0.4429
18053TIP3   OH275573   4.685   4.981  16.295  0.2652  0.3535 -0.1626
18053TIP3    H175574   4.729   5.062  16.318  1.4804 -0.5712  0.9735
18053TIP3    H275575   4.615   4.972  16.360  0.2294  0.4151 -0.1935
18054TIP3   OH275576   4.024   2.255   4.832  1.0826 -0.2246  0.7376
18054TIP3    H175577   3.946   2.246   4.887  0.4529  1.2285  0.1347
18054TIP3    H275578   4.080   2.316   4.880  1.2562 -0.2274  0.5390
18055TIP3   OH275579   4.085   1.143  11.240 -0.0144 -0.4027 -0.3299
18055TIP3    H175580   4.156   1.181  11.292 -0.4026 -1.6314  1.1666
18055TIP3    H275581   4.096   1.182  11.153  1.0291  1.2636  0.4848
18056TIP3   OH275582   3.305   0.877  11.910 -0.7256 -0.3144 -0.0480
18056TIP3    H175583   3.325   0.880  11.817  1.4289 -1.6966  0.2857
18056TIP3    H275584   3.269   0.789  11.925 -2.1105  0.2803  0.2790
18057TIP3   OH275585   6.089   1.558  11.099  0.1527  0.3925  0.2703
18057TIP3    H175586   6.003   1.522  11.077  0.1919 -0.0407  0.7940
18057TIP3    H275587   6.146   1.529  11.028  0.4908 -1.8247  1.3476
18058TIP3   OH275588   6.191   1.636   4.751 -0.1312  0.4270  0.0253
18058TIP3    H175589   6.153   1.628   4.839 -0.7417 -1.2903 -0.3549
18058TIP3    H275590   6.278   1.596   4.758 -0.4801 -0.4186 -0.3026
18059TIP3   OH275591   1.203   5.207  10.473 -0.2371  0.3150  0.0688
18059TIP3    H175592   1.194   5.137  10.409  2.9106 -0.6308  0.4992
18059TIP3    H275593   1.165   5.171  10.554 -0.5624 -0.0552 -0.2454
18060TIP3   OH275594   0.509   5.421   2.733 -0.0090  0.4888 -0.5259
18060TIP3    H175595   0.444   5.421   2.663 -0.6406 -2.1781 -0.0573
18060TIP3    H275596   0.555   5.337   2.723  0.7271  0.5983  1.4659
18061TIP3   OH275597   6.080   2.183  12.080 -0.0810 -0.5986  0.0902
18061TIP3    H175598   6.047   2.211  11.996 -0.4442  0.1491  0.4750
18061TIP3    H275599   6.084   2.263  12.133 -1.0874 -1.2320  1.1911
18062TIP3   OH275600   4.741   6.677   2.951 -0.0060  0.0648  0.0211
18062TIP3    H175601   4.763   6.770   2.959  0.2349 -0.0794  1.1599
18062TIP3    H275602   4.671   6.675   2.886  0.1636  1.0175 -0.2078
18063TIP3   OH275603   6.797   5.269  12.173 -0.2334 -0.5193  0.3943
18063TIP3    H175604   6.849   5.202  12.129 -0.7217  0.3456 -1.5999
18063TIP3    H275605   6.838   5.351  12.147 -0.7409  0.0372  1.3189
18064TIP3   OH275606   3.204   1.162  16.849  0.3113  0.1820 -0.0324
18064TIP3    H175607   3.211   1.239  16.793 -0.1294 -0.0527 -0.4234
18064TIP3    H275608   3.293   1.146  16.880  0.3272  1.1444  0.4698
18065TIP3   OH275609   3.702   1.409   6.147 -0.1393 -0.3209  0.2717
18065TIP3    H175610   3.616   1.404   6.187 -1.3914  0.6112 -2.0897
18065TIP3    H275611   3.762   1.379   6.215 -2.2480 -0.5330  2.1588
18066TIP3   OH275612   0.323   3.436  16.415 -0.5380  0.3892  0.2915
18066TIP3    H175613   0.352   3.522  16.384 -1.3440  0.7505  0.5072
18066TIP3    H275614   0.328   3.443  16.511  1.9999 -0.7344  0.3151
18067TIP3   OH275615   0.072   6.641   5.419 -0.4104 -0.1658  0.6490
18067TIP3    H175616   0.139   6.579   5.448 -0.2773  0.0454  0.7966
18067TIP3    H275617   0.045   6.686   5.499 -0.9979 -0.5106  0.6465
18068TIP3   OH275618   0.700   5.381  15.202  0.0484 -0.3609 -0.2575
18068TIP3    H175619   0.696   5.302  15.149 -2.1062 -1.3544  1.2500
18068TIP3    H275620   0.635   5.440  15.162 -0.5182 -0.5440  0.3799
18069TIP3   OH275621   1.738   4.483  13.513 -0.2076  0.0178 -0.3620
18069TIP3    H175622   1.760   4.400  13.556  0.4114 -0.5351 -1.7093
18069TIP3    H275623   1.764   4.550  13.576 -0.0206 -0.7919  0.4401
18070TIP3   OH275624   2.236   1.094   4.439 -0.3176 -0.2103  0.0983
18070TIP3    H175625   2.141   1.086   4.451 -0.0842 -2.0880  0.9816
18070TIP3    H275626   2.264   1.153   4.509 -0.6813 -0.5778  0.5586
18071TIP3   OH275627   4.478   3.725   1.812 -0.9082 -0.8345  0.4446
18071TIP3    H175628   4.403   3.710   1.870 -0.5641  1.3018  1.5475
18071TIP3    H275629   4.490   3.820   1.813 -0.6119 -0.7301 -2.8562
18072TIP3   OH275630   2.920   0.971   4.996 -0.3329  0.2043  0.2526
18072TIP3    H175631   2.972   0.908   5.046  0.1805  1.4295  1.2852
18072TIP3    H275632   2.962   1.055   5.010 -1.0704  0.8222 -1.0386
18073TIP3   OH275633   5.999   1.646   5.232 -0.1273 -0.3556  0.5401
18073TIP3    H175634   6.084   1.628   5.194  0.5777 -0.5257  2.1221
18073TIP3    H275635   6.008   1.623   5.325 -1.3601  1.2558  1.1208
18074TIP3   OH275636   1.808   3.402  13.914 -0.1451 -0.7950  0.6609
18074TIP3    H175637   1.734   3.365  13.864  0.6967 -1.0289 -0.4627
18074TIP3    H275638   1.814   3.347  13.992 -0.5398 -1.3984  0.2775
18075TIP3   OH275639   6.230   1.811  11.444  0.4570  1.2460  0.5197
18075TIP3    H175640   6.156   1.818  11.383 -0.8646 -3.7189  1.0490
18075TIP3    H275641   6.189   1.805  11.530  1.3369 -1.2266  0.8643
18076TIP3   OH275642   3.100   2.804  11.762  0.3770  0.4751 -0.0130
18076TIP3    H175643   3.018   2.761  11.739  0.7860  0.2064 -1.0319
18076TIP3    H275644   3.079   2.898  11.766  0.3212  0.5683 -1.7847
18077TIP3   OH275645   4.853   2.162  11.244  0.3609  0.3006 -0.3293
18077TIP3    H175646   4.805   2.175  11.325 -0.6741 -1.9147 -0.5031
18077TIP3    H275647   4.812   2.222  11.181 -1.7936 -0.9999 -0.2759
18078TIP3   OH275648   5.119   3.751  11.901 -0.2083 -0.1446 -0.5397
18078TIP3    H175649   5.159   3.761  11.815  1.0420 -0.5408 -0.0255
18078TIP3    H275650   5.083   3.663  11.901  0.5945 -0.4793 -0.3471
18079TIP3   OH275651   0.676   4.877   1.307  0.5004  0.0898 -0.0343
18079TIP3    H175652   0.762   4.865   1.267 -0.3759 -0.2057 -1.9424
18079TIP3    H275653   0.679   4.964   1.346  2.4893 -0.8896  2.2027
18080TIP3   OH275654   1.925   3.613   1.019 -0.0560  0.3634 -0.4123
18080TIP3    H175655   1.905   3.706   1.006  0.4635  0.7499  1.2472
18080TIP3    H275656   1.904   3.597   1.111  0.0058 -1.1363 -0.6333
18081TIP3   OH275657   2.954   5.236  16.684 -0.2146  0.1421 -0.5236
18081TIP3    H175658   3.029   5.238  16.744  0.0818  1.7542 -0.9034
18081TIP3    H275659   2.900   5.310  16.711 -1.3020 -0.5465 -0.7467
18082TIP3   OH275660   3.282   6.379   0.972 -0.5134 -0.1044  0.5455
18082TIP3    H175661   3.364   6.333   0.952  0.5229  1.9211 -0.0622
18082TIP3    H275662   3.229   6.313   1.016  1.1618 -1.6921  0.3227
18083TIP3   OH275663   4.450   1.291  10.631 -0.0115  0.0300  0.0070
18083TIP3    H175664   4.425   1.201  10.654  0.5905 -0.8340 -2.4786
18083TIP3    H275665   4.375   1.344  10.660 -0.9295 -1.4083  0.3965
18084TIP3   OH275666   4.562   5.797  15.140  0.3700 -0.2627 -0.2711
18084TIP3    H175667   4.523   5.823  15.224  1.1693  1.1918 -0.3070
18084TIP3    H275668   4.525   5.858  15.076  1.2790 -0.0411 -0.6107
18085TIP3   OH275669   5.209   2.883   4.314  0.1641 -0.6474  0.0710
18085TIP3    H175670   5.297   2.853   4.337 -0.5443 -2.3676  0.6666
18085TIP3    H275671   5.207   2.879   4.218  0.9616  0.1487  0.0066
18086TIP3   OH275672   0.798   4.252   3.618 -0.7226 -0.2297  0.4899
18086TIP3    H175673   0.827   4.325   3.563  0.2570  0.0178  1.3036
18086TIP3    H275674   0.710   4.231   3.585 -0.3736  0.2370 -0.8216
18087TIP3   OH275675   2.747   4.315  12.457  0.4094  0.1873 -0.4984
18087TIP3    H175676   2.824   4.366  12.480 -0.0168  0.5799  0.0780
18087TIP3    H275677   2.676   4.380  12.452 -0.6537 -0.5663  2.5521
18088TIP3   OH275678   0.360   3.291   2.849  0.4255  0.2435 -0.1480
18088TIP3    H175679   0.412   3.369   2.867  1.6401 -0.2883 -1.1712
18088TIP3    H275680   0.283   3.323   2.803 -0.3266  1.0691  1.5876
18089TIP3   OH275681   3.068   4.044   4.782 -0.5115 -0.0240  0.0781
18089TIP3    H175682   3.066   4.049   4.878 -0.6135 -0.2741  0.0895
18089TIP3    H275683   2.990   3.994   4.759 -1.0744  0.9455 -0.2041
18090TIP3   OH275684   3.014   1.536  15.164 -0.2868 -0.2572  0.1032
18090TIP3    H175685   3.015   1.603  15.095  0.3941  0.0417  0.3961
18090TIP3    H275686   3.089   1.558  15.220  0.1065 -1.4181  0.0589
18091TIP3   OH275687   5.109   0.484   6.111 -0.5364  0.0025  0.3614
18091TIP3    H175688   5.199   0.484   6.146  0.2149 -0.2471 -1.4784
18091TIP3    H275689   5.068   0.409   6.154  0.0086  0.3028  1.4727
18092TIP3   OH275690   1.454   1.481  12.026  0.2136 -0.4113 -0.0612
18092TIP3    H175691   1.519   1.523  11.970 -0.2639  0.2169 -0.1570
18092TIP3    H275692   1.370   1.517  11.996 -0.0037  0.4614  1.4989
18093TIP3   OH275693   0.321   4.894  11.511  0.3755  0.0719  0.0386
18093TIP3    H175694   0.344   4.983  11.483 -2.8824  1.0933  0.1580
18093TIP3    H275695   0.312   4.902  11.606 -0.0526 -0.3729  0.0334
18094TIP3   OH275696   6.288   3.186  14.637  0.4638 -0.3441  0.1481
18094TIP3    H175697   6.289   3.118  14.705 -1.1930 -1.1964 -0.6272
18094TIP3    H275698   6.284   3.138  14.555 -0.9519  0.6535 -0.4142
18095TIP3   OH275699   5.206   1.959  10.382 -0.3301  0.7010  0.6999
18095TIP3    H175700   5.162   1.911  10.312 -1.7418  0.5014  1.6729
18095TIP3    H275701   5.188   1.908  10.461  0.8734  1.1420  1.2875
18096TIP3   OH275702   4.575   6.635  15.958  0.0268  0.2512 -0.7087
18096TIP3    H175703   4.509   6.650  15.890  0.1398 -0.0590 -0.8866
18096TIP3    H275704   4.657   6.626  15.910 -0.0712 -1.1993 -0.6355
18097TIP3   OH275705   0.663   0.775   0.354  0.1863 -0.2232  0.2846
18097TIP3    H175706   0.612   0.752   0.277 -1.2584  1.2506  0.7519
18097TIP3    H275707   0.697   0.863   0.336 -0.1366  0.1256  1.3016
18098TIP3   OH275708   5.211   5.388   4.507 -0.5665 -0.0865 -0.0855
18098TIP3    H175709   5.194   5.476   4.475 -0.1914  0.9982  2.4883
18098TIP3    H275710   5.283   5.397   4.569 -0.8047 -2.1212  0.5931
18099TIP3   OH275711   5.673   3.120   4.966 -0.6955  0.0594  0.2701
18099TIP3    H175712   5.749   3.114   5.024  0.8212 -0.8287 -1.6711
18099TIP3    H275713   5.657   3.030   4.937 -2.6106  0.2138  0.7205
18100TIP3   OH275714   5.275   6.309  16.131 -0.8866 -0.2830  0.4872
18100TIP3    H175715   5.211   6.240  16.144 -3.3348  1.8159  0.3598
18100TIP3    H275716   5.305   6.331  16.219 -1.7910 -0.0110  0.7328
18101TIP3   OH275717   2.251   4.839   0.244 -0.3161  0.5230 -0.3537
18101TIP3    H175718   2.178   4.820   0.184 -1.8278  1.9715  0.9197
18101TIP3    H275719   2.330   4.823   0.192 -1.5135 -0.8989 -1.8575
18102TIP3   OH275720   2.915   5.438   5.353 -0.0163  0.6122  0.4227
18102TIP3    H175721   2.922   5.419   5.447 -0.5010 -0.4968  0.2588
18102TIP3    H275722   2.839   5.495   5.346 -0.4426  0.0885  0.6474
18103TIP3   OH275723   1.111   4.097   2.412  0.4104  0.6161  0.9460
18103TIP3    H175724   1.129   4.053   2.495  0.1457 -2.7257 -0.6289
18103TIP3    H275725   1.045   4.042   2.369 -0.3367  2.8656 -1.0329
18104TIP3   OH275726   6.312   1.285  14.616 -0.7187  0.1295 -0.3310
18104TIP3    H175727   6.278   1.348  14.680 -1.6114 -1.1088  0.4452
18104TIP3    H275728   6.337   1.209  14.669  0.4480 -0.1480 -1.2461
18105TIP3   OH275729   6.789   6.425   1.889 -0.0418  0.0590 -0.0153
18105TIP3    H175730   6.754   6.346   1.847 -0.4996  0.6066 -0.6700
18105TIP3    H275731   6.719   6.453   1.948  0.3023 -0.2744  0.5673
18106TIP3   OH275732   4.061   6.367  15.427  0.4846 -0.7915  0.2399
18106TIP3    H175733   3.993   6.359  15.494 -1.9797 -1.0407 -2.1106
18106TIP3    H275734   4.092   6.278  15.412  2.0553 -0.5879  1.8921
18107TIP3   OH275735   2.664   6.138  11.510 -0.1730 -0.2523 -0.1763
18107TIP3    H175736   2.585   6.169  11.466 -0.8334 -1.6229 -0.0180
18107TIP3    H275737   2.717   6.217  11.523 -2.8595  1.3216  2.5854
18108TIP3   OH275738   3.132   4.075   0.602 -0.2137 -0.3340 -0.3302
18108TIP3    H175739   3.166   4.020   0.532  0.1951 -0.1811 -0.2515
18108TIP3    H275740   3.042   4.044   0.614  0.0627 -1.1087 -0.1672
18109TIP3   OH275741   2.740   1.575  12.870 -0.0244  0.0443 -0.3197
18109TIP3    H175742   2.834   1.558  12.866  0.2968  1.7536 -0.6632
18109TIP3    H275743   2.729   1.635  12.944 -0.9132 -0.5027  0.0078
18110TIP3   OH275744   1.973   0.845  12.457  0.4078 -0.3710  0.1719
18110TIP3    H175745   2.020   0.926  12.478 -0.2184  0.0720 -0.1072
18110TIP3    H275746   2.040   0.789  12.417  0.4584  0.7141 -1.3596
18111TIP3   OH275747   6.525   0.157  11.138  0.2937 -0.4780  0.1692
18111TIP3    H175748   6.527   0.226  11.071  0.8181  1.6399  2.2316
18111TIP3    H275749   6.434   0.126  11.138  0.1222 -0.0382 -1.0097
18112TIP3   OH275750   1.902   5.516   3.653  0.1054 -0.5990 -0.2461
18112TIP3    H175751   1.887   5.469   3.735 -1.2489  1.5675  0.8298
18112TIP3    H275752   1.976   5.471   3.613  0.5470 -1.9847  1.9621
18113TIP3   OH275753   1.803   5.683  11.906  0.5173  0.2430 -0.5671
18113TIP3    H175754   1.820   5.594  11.873 -0.7983 -0.9257  1.6287
18113TIP3    H275755   1.831   5.679  11.998 -2.4004  1.1187  0.4475
18114TIP3   OH275756   4.408   0.344  11.140  0.3864  0.4536  0.5687
18114TIP3    H175757   4.313   0.341  11.150  0.4989 -0.7356  1.4039
18114TIP3    H275758   4.423   0.307  11.053  0.1307 -0.1299  0.7670
18115TIP3   OH275759   6.712   6.487   0.047 -0.6241  0.0202  0.0838
18115TIP3    H175760   6.731   6.507   0.139  0.5267  1.1574 -0.3821
18115TIP3    H275761   6.771   6.543  -0.003 -0.3924 -1.4330 -1.3554
18116TIP3   OH275762   2.035   0.018  16.072 -0.4724  0.1564  0.3977
18116TIP3    H175763   2.086   0.078  16.125 -1.0585  1.5237 -0.5189
18116TIP3    H275764   2.084   0.010  15.990 -1.2884  0.8453 -0.1768
18117TIP3   OH275765   0.807   0.284  16.861 -0.9758 -0.0443 -0.2074
18117TIP3    H175766   0.741   0.340  16.820  2.6260  4.5441 -0.5257
18117TIP3    H275767   0.838   0.228  16.790 -3.0085 -0.7935 -0.5602
18118TIP3   OH275768   5.996   1.733   0.205  0.5160 -0.1117 -0.1893
18118TIP3    H175769   6.007   1.812   0.258 -1.3138 -0.4236  0.7401
18118TIP3    H275770   5.910   1.700   0.230  0.5755 -1.5343 -1.7326
18119TIP3   OH275771   0.133   2.644   4.291  0.6277  0.2745 -0.1781
18119TIP3    H175772   0.038   2.650   4.301  0.3810  0.0022 -1.9164
18119TIP3    H275773   0.164   2.613   4.375 -0.7644  0.8605  0.5942
18120TIP3   OH275774   5.536   6.756  16.430  0.1020 -0.0898  0.1988
18120TIP3    H175775   5.476   6.826  16.453  0.7846  0.6632 -0.2709
18120TIP3    H275776   5.542   6.702  16.509 -1.5903 -0.4894  0.0849
18121TIP3   OH275777   2.384   3.933  13.863 -0.7472 -0.0023  0.2342
18121TIP3    H175778   2.473   3.961  13.842 -0.7011 -0.5814 -0.3801
18121TIP3    H275779   2.385   3.920  13.958 -0.2918  0.3725  0.2878
18122TIP3   OH275780   0.363   1.927  14.605 -0.0499  0.0032  0.2836
18122TIP3    H175781   0.285   1.881  14.576 -0.6662  1.7979 -1.1087
18122TIP3    H275782   0.405   1.868  14.668 -1.0582 -2.1613 -0.9908
18123TIP3   OH275783   1.720   2.422   1.924 -0.1070  0.3982  0.3300
18123TIP3    H175784   1.736   2.488   1.857  0.1873 -1.6475 -1.7557
18123TIP3    H275785   1.660   2.360   1.882  1.7509 -2.0827  1.1173
18124TIP3   OH275786   3.255   2.679  15.631  0.0433  0.7377  0.3331
18124TIP3    H175787   3.265   2.661  15.538  0.0193 -0.3709  0.5290
18124TIP3    H275788   3.297   2.604  15.674 -0.2395  1.0730  1.2110
18125TIP3   OH275789   1.679   3.189  16.755  0.0986 -0.4048  0.6337
18125TIP3    H175790   1.696   3.105  16.713  1.5282  0.8393 -1.4656
18125TIP3    H275791   1.616   3.233  16.697  2.8908  1.7640 -1.0434
18126TIP3   OH275792   6.669   5.968   1.871  0.3829 -0.1459  0.2516
18126TIP3    H175793   6.645   5.882   1.907 -0.8266 -0.1749 -0.5415
18126TIP3    H275794   6.610   5.979   1.796  0.4990  1.3988  0.3640
18127TIP3   OH275795   6.371   2.561   2.421  0.3094 -0.0792 -0.0015
18127TIP3    H175796   6.397   2.575   2.513  0.7124  1.2324 -0.2945
18127TIP3    H275797   6.428   2.491   2.391  0.7708  0.0621  0.5147
18128TIP3   OH275798   0.617   6.147  11.836  0.1503 -0.7245 -0.2019
18128TIP3    H175799   0.659   6.064  11.814  0.5448 -0.6692  0.3255
18128TIP3    H275800   0.684   6.197  11.883 -0.9666 -1.2910  2.1512
18129TIP3   OH275801   4.663   0.252  13.496 -0.3848  0.2318  0.0604
18129TIP3    H175802   4.650   0.202  13.576 -0.2437 -0.5074 -0.3708
18129TIP3    H275803   4.756   0.277  13.499 -0.1654 -0.5244 -0.2798
18130TIP3   OH275804   4.351   5.222  12.335 -0.1991 -0.7030 -0.0691
18130TIP3    H175805   4.265   5.265  12.342 -0.5242 -1.1549 -1.0956
18130TIP3    H275806   4.388   5.255  12.254 -0.0420 -1.6105 -0.3836
18131TIP3   OH275807   3.238   6.553   3.281 -0.3735  0.2116  0.7040
18131TIP3    H175808   3.160   6.572   3.230  0.6851 -0.7908 -1.4058
18131TIP3    H275809   3.289   6.634   3.277 -0.3177  0.1537  0.1967
18132TIP3   OH275810   2.530   2.023  10.733  0.3909  0.1988  0.0156
18132TIP3    H175811   2.462   2.086  10.712  0.4426  0.4863  0.6607
18132TIP3    H275812   2.487   1.938  10.729  0.1732  0.3238 -0.2886
18133TIP3   OH275813   0.798   5.736  13.055 -0.0330 -0.2086  0.1785
18133TIP3    H175814   0.866   5.766  13.115 -0.0375 -0.4304  0.2970
18133TIP3    H275815   0.822   5.773  12.971 -0.5858  0.9476  0.5204
18134TIP3   OH275816   5.977   1.621   4.567 -0.5777  0.6064  0.2759
18134TIP3    H175817   6.059   1.662   4.594  1.0088 -0.5524 -2.3578
18134TIP3    H275818   5.985   1.530   4.597 -1.3535  0.7193  0.8388
18135TIP3   OH275819   6.769   2.958  13.611  0.7130  0.0453 -0.4707
18135TIP3    H175820   6.764   2.865  13.632  1.0066 -0.0318 -0.7352
18135TIP3    H275821   6.816   2.998  13.684 -1.9176  0.4716  1.1156
18136TIP3   OH275822   2.922   6.429  15.369 -0.1976  0.2057 -0.1420
18136TIP3    H175823   3.012   6.401  15.388  0.1425  0.8152 -0.8174
18136TIP3    H275824   2.872   6.403  15.446  0.4040 -0.8586 -0.0912
18137TIP3   OH275825   5.953   1.990  10.868 -0.1042 -0.2517  0.5209
18137TIP3    H175826   6.038   1.964  10.833 -0.9883 -0.9826 -1.2190
18137TIP3    H275827   5.896   1.914  10.853 -1.3042  0.5672  0.7450
18138TIP3   OH275828   2.668   6.292   1.403  0.2772  0.0629  0.3656
18138TIP3    H175829   2.743   6.334   1.362  1.1855 -3.0429 -1.4737
18138TIP3    H275830   2.609   6.272   1.331 -2.6976  2.7532  1.7885
18139TIP3   OH275831   6.158   6.322  11.162 -0.3879  0.6882  0.3250
18139TIP3    H175832   6.105   6.333  11.083  2.7012  2.1789 -1.7103
18139TIP3    H275833   6.155   6.228  11.179 -2.9866  0.6185 -0.1025
18140TIP3   OH275834   1.432   4.013  14.099  0.1838  0.2180  0.3209
18140TIP3    H175835   1.359   3.950  14.100  0.6412 -0.3638 -0.6970
18140TIP3    H275836   1.486   3.988  14.174 -0.5525  0.5193  0.9568
18141TIP3   OH275837   3.623   1.475   4.348 -0.0375 -0.0397  0.2062
18141TIP3    H175838   3.711   1.482   4.385 -0.5387  0.4748  1.3575
18141TIP3    H275839   3.577   1.553   4.380 -1.0005 -0.4537 -0.1128
18142TIP3   OH275840   4.719   2.670  11.603  0.0547  0.4699  0.1831
18142TIP3    H175841   4.713   2.575  11.599  1.3758  0.2729  1.8560
18142TIP3    H275842   4.793   2.691  11.546 -0.5915  0.5678 -0.6351
18143TIP3   OH275843   4.443   3.921  12.804  0.4628 -0.0190 -0.3283
18143TIP3    H175844   4.406   3.968  12.878  2.3271 -0.6953  1.1177
18143TIP3    H275845   4.410   3.831  12.814  2.6015 -0.7281  1.2028
18144TIP3   OH275846   0.247   4.369  12.433  0.2798  0.1370  0.1186
18144TIP3    H175847   0.172   4.316  12.406 -0.4976  1.5898 -0.6602
18144TIP3    H275848   0.268   4.337  12.521 -0.4114 -1.1777 -0.1722
18145TIP3   OH275849   5.574   0.664  14.518 -0.3747 -0.1425  0.3911
18145TIP3    H175850   5.495   0.632  14.563 -0.2712 -1.0971 -0.0890
18145TIP3    H275851   5.600   0.593  14.460  0.5931  0.3367  0.2085
18146TIP3   OH275852   5.192   4.572  16.709  0.0330 -0.1809  0.5438
18146TIP3    H175853   5.234   4.519  16.641  1.6693 -0.7008  1.9135
18146TIP3    H275854   5.242   4.654  16.711  0.7942 -0.6595  1.9442
18147TIP3   OH275855   4.127   0.160  12.264 -0.3133 -0.5795  0.3148
18147TIP3    H175856   4.127   0.214  12.185 -0.7231  1.0433  1.3830
18147TIP3    H275857   4.211   0.177  12.305 -0.8088  0.0025  1.1263
18148TIP3   OH275858   1.504   3.352  13.078  0.1279  0.3851 -0.2600
18148TIP3    H175859   1.579   3.401  13.046  0.4566 -0.5903 -1.0249
18148TIP3    H275860   1.429   3.391  13.034  0.5090 -0.5401 -1.8118
18149TIP3   OH275861   5.097   6.018   6.066 -0.4059 -0.1165  0.3381
18149TIP3    H175862   5.164   6.039   6.001  0.1166 -2.1096  0.1697
18149TIP3    H275863   5.145   6.015   6.149 -0.0531 -2.3518  0.1084
18150TIP3   OH275864   6.188   5.625  12.556  0.0007  0.2361 -0.3449
18150TIP3    H175865   6.239   5.599  12.633 -1.9747  0.6345  1.1864
18150TIP3    H275866   6.197   5.552  12.495  2.4209  0.3416 -0.1942
18151TIP3   OH275867   4.629   3.516  14.149  0.2669 -0.6647  0.0580
18151TIP3    H175868   4.546   3.496  14.191  0.2822 -2.9024 -0.8482
18151TIP3    H275869   4.679   3.434  14.154  1.5817  0.0097 -1.2703
18152TIP3   OH275870   3.240   2.816   3.180 -0.4214  0.4546  0.2132
18152TIP3    H175871   3.275   2.735   3.142 -1.2328  0.3808 -0.3945
18152TIP3    H275872   3.316   2.856   3.223  0.0403 -0.5199  0.3442
18153TIP3   OH275873   2.259   6.671  10.842  0.0058 -0.6133  0.6344
18153TIP3    H175874   2.337   6.645  10.793  0.3619  1.8830 -0.2520
18153TIP3    H275875   2.186   6.655  10.781  0.5469  3.7402 -1.5580
18154TIP3   OH275876   5.208   4.376   3.690  0.2891  0.0078 -0.3526
18154TIP3    H175877   5.149   4.451   3.685  0.7983  0.7726  2.7351
18154TIP3    H275878   5.156   4.308   3.733  0.2218 -1.0594 -2.0208
18155TIP3   OH275879   6.532   4.367   5.088 -0.2699  0.2150 -0.1909
18155TIP3    H175880   6.438   4.378   5.074 -0.5195  0.2613  1.3271
18155TIP3    H275881   6.539   4.299   5.155  0.7364  0.8540  0.3820
18156TIP3   OH275882   3.319   1.314  10.404 -0.0581 -0.0538 -0.6331
18156TIP3    H175883   3.327   1.409  10.396 -2.2072  0.3103  0.6806
18156TIP3    H275884   3.394   1.288  10.457 -0.3093  1.1820  0.3828
18157TIP3   OH275885   6.612   4.936  12.403 -0.4276  0.2690 -0.5060
18157TIP3    H175886   6.586   4.918  12.494 -1.6739  0.2707 -0.8398
18157TIP3    H275887   6.701   4.970  12.410 -0.6009  0.5297  0.7400
18158TIP3   OH275888   3.445   3.615  16.253 -0.4327 -0.1797 -0.0466
18158TIP3    H175889   3.527   3.630  16.300  0.4802 -0.5918 -1.4494
18158TIP3    H275890   3.378   3.656  16.308  0.9305  1.7988  0.2420
18159TIP3   OH275891   2.755   1.455  15.472 -0.4239  0.3178 -0.3380
18159TIP3    H175892   2.738   1.420  15.385  0.5399  0.1043 -0.4499
18159TIP3    H275893   2.742   1.381  15.531 -2.6801  0.8258 -0.0829
18160TIP3   OH275894   6.629   4.521  13.556 -0.1135 -0.3711 -0.5928
18160TIP3    H175895   6.605   4.431  13.576 -0.7385  0.0609  0.7485
18160TIP3    H275896   6.633   4.564  13.642  1.1841  0.6362 -1.1187
18161TIP3   OH275897   1.741   2.162  11.202  0.1225  0.1201 -0.3383
18161TIP3    H175898   1.803   2.207  11.145 -0.2273 -1.2579 -1.8779
18161TIP3    H275899   1.724   2.079  11.158 -1.5913 -0.2166  0.8715
18162TIP3   OH275900   3.751   2.037  14.109 -0.2462 -0.2472  0.5459
18162TIP3    H175901   3.713   2.105  14.053 -0.2567 -0.4494  0.3042
18162TIP3    H275902   3.838   2.071  14.131  0.3875 -0.8613 -0.8985
18163TIP3   OH275903   3.948   6.416   5.651 -0.0591 -0.5762  0.3973
18163TIP3    H175904   4.028   6.411   5.702 -0.4602 -1.0416  0.9989
18163TIP3    H275905   3.976   6.442   5.564  0.7718 -0.9971  0.5341
18164TIP3   OH275906   0.436   0.962   1.190 -0.1790  0.1679  1.2873
18164TIP3    H175907   0.384   0.995   1.263  1.2660  1.3087  1.8632
18164TIP3    H275908   0.413   1.018   1.117 -1.3632 -0.7465  0.9353
18165TIP3   OH275909   2.847   6.179  13.197 -0.5838  0.4495 -0.3648
18165TIP3    H175910   2.822   6.229  13.119  1.7957  0.7491 -1.0310
18165TIP3    H275911   2.885   6.244  13.256 -0.2513 -0.1198  0.0583
18166TIP3   OH275912   1.121   2.251   4.174 -0.3660  0.5571 -0.3543
18166TIP3    H175913   1.045   2.303   4.150 -0.5753  0.9347  1.0658
18166TIP3    H275914   1.151   2.289   4.256  1.2977  0.3439 -0.8298
18167TIP3   OH275915   3.306   0.031  16.257  0.1060  0.2042 -0.3832
18167TIP3    H175916   3.330   0.018  16.165 -1.3638  0.8463 -0.8862
18167TIP3    H275917   3.274   0.121  16.261  0.3958  0.2691  0.8272
18168TIP3   OH275918   3.606   5.330   0.468 -0.1758  0.2542 -0.2530
18168TIP3    H175919   3.689   5.286   0.486 -0.7748 -0.4488  0.9184
18168TIP3    H275920   3.589   5.314   0.375  0.7883  0.0499 -0.4015
18169TIP3   OH275921   2.026   2.278  11.975 -0.1144  0.1101 -0.1661
18169TIP3    H175922   2.000   2.186  11.988 -0.7504  0.4823  1.5094
18169TIP3    H275923   2.122   2.276  11.983 -0.2365 -0.1773  2.0074
18170TIP3   OH275924   6.135   2.244   4.805  0.5902  0.4595  0.3091
18170TIP3    H175925   6.042   2.234   4.825  1.1307 -1.1581  2.2394
18170TIP3    H275926   6.136   2.279   4.716 -1.8568  0.5426  0.2480
18171TIP3   OH275927   3.397   4.692   2.613 -0.0735  0.2005 -0.2295
18171TIP3    H175928   3.488   4.699   2.584  0.1918 -2.0634 -0.1110
18171TIP3    H275929   3.347   4.683   2.532 -0.0589  0.2404 -0.2432
18172TIP3   OH275930   5.769   1.441   0.155  0.2902 -0.3784  0.3939
18172TIP3    H175931   5.762   1.501   0.229 -3.6387 -0.6676  0.4991
18172TIP3    H275932   5.779   1.354   0.195 -1.9800 -0.5506  0.7196
18173TIP3   OH275933   2.845   5.233  14.949 -0.0790 -0.2954 -0.6491
18173TIP3    H175934   2.833   5.281  14.868 -1.9474 -2.6837 -1.9152
18173TIP3    H275935   2.929   5.264  14.983 -0.9316  3.4365 -1.5237
18174TIP3   OH275936   3.070   5.077  16.206 -0.4189  0.0485 -0.5539
18174TIP3    H175937   3.145   5.063  16.264 -0.2104 -0.8651 -1.0248
18174TIP3    H275938   2.994   5.074  16.264 -0.0290  4.2709  0.5094
18175TIP3   OH275939   5.035   2.221   2.229  0.1092  0.3598  0.3000
18175TIP3    H175940   4.969   2.152   2.231  0.5178 -0.0914 -0.7842
18175TIP3    H275941   5.111   2.183   2.275  0.1917  0.2390  0.0659
18176TIP3   OH275942   3.697   2.898  11.118 -0.3806  0.0219 -0.2962
18176TIP3    H175943   3.637   2.831  11.149  0.1405 -0.1327  0.3911
18176TIP3    H275944   3.689   2.969  11.182 -0.6898  0.4983 -0.8430
18177TIP3   OH275945   3.803   6.164  15.436  0.2831 -0.5788  0.3393
18177TIP3    H175946   3.835   6.076  15.421 -1.7971 -1.8025  2.4531
18177TIP3    H275947   3.794   6.171  15.531 -2.8333  0.5895  0.0967
18178TIP3   OH275948   1.170   4.849   1.069 -0.2166  0.3359 -0.1495
18178TIP3    H175949   1.194   4.940   1.083 -1.5574  0.6245  0.4211
18178TIP3    H275950   1.207   4.802   1.144 -1.3584  0.7681  0.7084
18179TIP3   OH275951   5.533   5.541  15.762 -0.1100  0.8793 -0.1003
18179TIP3    H175952   5.570   5.467  15.809 -0.6413 -0.0057 -1.0212
18179TIP3    H275953   5.441   5.541  15.787  0.2196  2.3275  1.2448
18180TIP3   OH275954   1.121   3.057   6.347 -0.2726 -0.2985  0.0647
18180TIP3    H175955   1.151   2.979   6.301  1.4501 -0.1353  0.8527
18180TIP3    H275956   1.102   3.027   6.436  0.0233  0.0880  0.2625
18181TIP3   OH275957   4.938   0.969   3.319  0.4328  0.4756  0.4724
18181TIP3    H175958   4.984   0.996   3.240  0.4023 -0.6664  0.0450
18181TIP3    H275959   4.989   1.008   3.391  1.4709  0.0917 -0.0367
18182TIP3   OH275960   5.788   0.384   0.992 -0.2125 -0.8028  0.0202
18182TIP3    H175961   5.704   0.370   1.037  0.7532 -1.0052  1.8246
18182TIP3    H275962   5.768   0.450   0.926 -1.4393  0.4958  1.5845
18183TIP3   OH275963   1.288   5.942   5.702 -0.2582  0.1320  0.2669
18183TIP3    H175964   1.202   5.966   5.668 -0.1573 -0.5973 -0.5622
18183TIP3    H275965   1.279   5.850   5.727  1.0446 -0.9793 -2.7604
18184TIP3   OH275966   5.094   3.574  13.909  0.5222  0.6840 -0.0056
18184TIP3    H175967   5.028   3.607  13.848  0.3387  1.1773  0.4527
18184TIP3    H275968   5.049   3.505  13.958  1.1672 -0.9526 -1.5896
18185TIP3   OH275969   0.067   6.642   3.693 -0.1120  0.2794  0.2857
18185TIP3    H175970   0.075   6.696   3.771  1.2473  0.9469 -0.2881
18185TIP3    H275971  -0.010   6.677   3.647  0.4777  1.4409  0.1534
18186TIP3   OH275972   6.628   0.736   0.954  0.4857  0.0535 -0.0607
18186TIP3    H175973   6.659   0.824   0.974 -2.1000  1.2545 -0.9004
18186TIP3    H275974   6.620   0.693   1.039  0.3389  1.1723  0.5040
18187TIP3   OH275975   0.725   3.896  12.217 -0.4900  0.1405  0.4456
18187TIP3    H175976   0.750   3.836  12.146  2.6359 -1.1514  2.3985
18187TIP3    H275977   0.746   3.983  12.184  0.0251 -0.3508 -0.5692
18188TIP3   OH275978   4.707   2.061  16.527  0.0427 -0.1932 -0.4864
18188TIP3    H175979   4.726   2.112  16.449 -0.3640  0.7222 -0.0059
18188TIP3    H275980   4.622   2.094  16.557  0.1148 -0.6482  0.2368
18189TIP3   OH275981   2.593   1.995  14.552 -0.6324 -0.1519 -0.1692
18189TIP3    H175982   2.498   1.987  14.558 -0.4793 -1.5294  1.2819
18189TIP3    H275983   2.615   1.960  14.466 -1.4524  0.5309 -0.6695
18190TIP3   OH275984   3.666   4.069   4.897 -0.2412 -0.1790  0.1100
18190TIP3    H175985   3.609   4.122   4.842  0.6347  2.3098  1.4092
18190TIP3    H275986   3.746   4.058   4.846 -0.9242 -1.5328 -0.7203
18191TIP3   OH275987   4.704   1.731  11.967 -0.4892 -0.4632 -0.5362
18191TIP3    H175988   4.752   1.761  11.890  0.6973 -0.2468  0.2542
18191TIP3    H275989   4.699   1.809  12.023 -0.4120 -0.8720  0.0444
18192TIP3   OH275990   6.380   3.239   4.173  0.5247  0.1726  0.0132
18192TIP3    H175991   6.437   3.272   4.242  1.7843  0.2324 -1.0332
18192TIP3    H275992   6.321   3.312   4.153  0.8642  0.5181  0.2636
18193TIP3   OH275993   5.596   4.882   1.137  0.4271 -0.2011  0.0143
18193TIP3    H175994   5.663   4.840   1.084  0.1882 -0.5342 -0.0208
18193TIP3    H275995   5.514   4.869   1.089  0.2316 -0.3900  0.3968
18194TIP3   OH275996   2.792   2.275  11.885  0.5493 -0.5866  0.1678
18194TIP3    H175997   2.704   2.287  11.919 -0.7937 -2.4795 -2.3135
18194TIP3    H275998   2.840   2.233  11.957  0.4564  3.0738  2.6330
18195TIP3   OH275999   0.743   3.101   4.739 -0.4069  0.0544  0.0281
18195TIP3    H176000   0.743   3.008   4.760  1.3067  0.0811  0.3314
18195TIP3    H276001   0.669   3.137   4.789 -0.7392 -1.0444  0.3525
18196TIP3   OH276002   3.629   2.804  14.975  0.2632  0.0981  0.0448
18196TIP3    H176003   3.720   2.829  14.992  1.0026  0.1257 -3.2822
18196TIP3    H276004   3.597   2.870  14.913 -1.5310 -0.7570 -0.0063
18197TIP3   OH276005   5.417   6.034   2.959 -0.4042  0.6172  0.4302
18197TIP3    H176006   5.491   6.065   2.907  0.7656 -0.9688  1.0757
18197TIP3    H276007   5.383   5.959   2.911 -1.1491  0.8780  0.5269
18198TIP3   OH276008   1.722   2.324   1.600 -0.1843  0.1895  0.2511
18198TIP3    H176009   1.655   2.389   1.579  0.8729  1.3022  0.2178
18198TIP3    H276010   1.692   2.283   1.681 -1.9361 -0.8231 -0.8473
18199TIP3   OH276011   5.110   4.996  13.291 -0.0820  0.2353 -0.2743
18199TIP3    H176012   5.134   4.937  13.362 -0.0329  1.1184  0.4585
18199TIP3    H276013   5.140   4.952  13.212 -0.9131 -1.1632  0.1636
18200TIP3   OH276014   3.698   2.559  12.066  0.1763 -0.3037  0.3637
18200TIP3    H176015   3.609   2.532  12.047 -1.2442  4.0456 -0.1458
18200TIP3    H276016   3.730   2.596  11.984  2.5816 -1.8628  0.4999
18201TIP3   OH276017   4.600   3.048  13.946  0.2056  0.3327  0.1206
18201TIP3    H176018   4.577   2.955  13.956 -4.1419  1.1305 -0.8548
18201TIP3    H276019   4.650   3.051  13.864  0.6177 -1.1303  0.2748
18202TIP3   OH276020   5.511   1.802  11.182 -0.4795  0.0584 -0.2308
18202TIP3    H176021   5.416   1.799  11.187 -0.4442  0.1480  0.5861
18202TIP3    H276022   5.535   1.887  11.220 -0.0710  0.0227 -0.3987
18203TIP3   OH276023   2.241   2.533  14.005  0.1449 -0.0894 -0.4234
18203TIP3    H176024   2.255   2.457  13.949 -0.1456  0.1158 -0.7811
18203TIP3    H276025   2.240   2.608  13.945 -0.4441  0.1023 -0.1850
18204TIP3   OH276026   6.527   1.581  16.848  0.3286 -0.7122 -0.3785
18204TIP3    H176027   6.538   1.487  16.865  1.5536 -0.7080 -1.0036
18204TIP3    H276028   6.570   1.624  16.921 -1.0916 -0.6088  0.4218
18205TIP3   OH276029   2.688   0.249  16.981 -0.4419  0.2149 -0.5267
18205TIP3    H176030   2.767   0.303  16.975  0.2645 -0.7158  0.1733
18205TIP3    H276031   2.637   0.288  17.052  0.5587 -0.6292  0.6897
18206TIP3   OH276032   4.086   6.013   2.173 -0.1264 -0.5180  0.0037
18206TIP3    H176033   4.071   5.986   2.082  0.7917 -0.3171 -0.2134
18206TIP3    H276034   4.181   6.008   2.184 -0.1956 -0.1157  0.8267
18207TIP3   OH276035   5.501   5.492   5.178  0.0892  0.1538  1.0417
18207TIP3    H176036   5.426   5.433   5.185  0.0044  0.1029 -0.0229
18207TIP3    H276037   5.515   5.524   5.267 -1.0978  0.0520  1.2849
18208TIP3   OH276038   3.681   5.209  13.370  0.0373 -0.1468 -0.1279
18208TIP3    H176039   3.595   5.175  13.344 -0.9064  0.0687  2.4296
18208TIP3    H276040   3.717   5.142  13.427  0.5340  0.7629  0.6634
18209TIP3   OH276041   2.550   4.113   1.486  0.5208  0.0986 -0.5184
18209TIP3    H176042   2.500   4.064   1.552 -0.0606  0.3848 -0.7399
18209TIP3    H276043   2.640   4.112   1.519  0.5870 -1.3773 -0.6611
18210TIP3   OH276044   2.341   1.363  15.402 -0.6172  0.0705  0.8126
18210TIP3    H176045   2.363   1.382  15.311 -2.2526  0.3304  0.4521
18210TIP3    H276046   2.342   1.448  15.446 -1.6466  0.1899  0.6176
18211TIP3   OH276047   3.346   0.060  15.262 -0.3220 -0.2043  0.3251
18211TIP3    H176048   3.430   0.019  15.242 -0.4289 -0.3835  0.2372
18211TIP3    H276049   3.292   0.045  15.184  0.0045  1.1112 -0.1882
18212TIP3   OH276050   1.729   0.581  16.173  0.3655 -0.0160  0.1943
18212TIP3    H176051   1.653   0.635  16.195  0.9028  0.4989  0.8225
18212TIP3    H276052   1.803   0.624  16.215  0.9479 -0.7460 -0.0476
18213TIP3   OH276053   6.426   0.123  15.855 -1.0280 -0.9541 -0.3846
18213TIP3    H176054   6.491   0.064  15.817  0.5059  0.5729 -0.2568
18213TIP3    H276055   6.421   0.196  15.792  0.8427  1.1585  1.7116
18214TIP3   OH276056   6.268   5.131  16.646  0.3590  0.4518 -0.5585
18214TIP3    H176057   6.231   5.068  16.707 -0.5934  0.2502 -1.3169
18214TIP3    H276058   6.197   5.193  16.629  0.8794  0.9921 -0.8150
18215TIP3   OH276059   3.888   1.008   3.335  0.8739 -0.2302  0.3034
18215TIP3    H176060   3.969   0.962   3.356  0.1229 -2.4945 -1.3719
18215TIP3    H276061   3.898   1.032   3.243 -0.8253 -1.7176 -0.3201
18216TIP3   OH276062   4.722   4.009  12.372 -0.1409 -0.2060 -0.2523
18216TIP3    H176063   4.709   4.002  12.467  0.5480 -2.2152 -0.2546
18216TIP3    H276064   4.806   4.054  12.363 -0.5822  0.6878  0.0703
18217TIP3   OH276065   3.482   4.867  16.128  0.4864 -0.7289  0.2603
18217TIP3    H176066   3.485   4.921  16.049  1.7890 -0.7674  0.2492
18217TIP3    H276067   3.403   4.815  16.119 -0.4431  0.6866 -0.0508
18218TIP3   OH276068   4.654   2.617   0.705  0.1565 -0.3111  0.0009
18218TIP3    H176069   4.577   2.590   0.654 -1.7331  1.8848  1.4899
18218TIP3    H276070   4.653   2.560   0.782 -1.3403  1.0558  1.0670
18219TIP3   OH276071   2.477   6.430  11.665  0.1384  0.3779  0.0377
18219TIP3    H176072   2.409   6.466  11.722  0.7113 -0.5980  1.3897
18219TIP3    H276073   2.429   6.384  11.597 -0.5745 -0.2508  0.9409
18220TIP3   OH276074   2.897   6.699   6.359  0.4599  0.0666  0.6523
18220TIP3    H176075   2.954   6.622   6.362  0.9956  0.2725 -1.9394
18220TIP3    H276076   2.808   6.662   6.361  0.5890 -0.3070  3.6033
18221TIP3   OH276077   0.995   1.680  11.174 -0.0414 -0.3542  0.1943
18221TIP3    H176078   1.028   1.612  11.114 -0.9463 -3.1325  2.5940
18221TIP3    H276079   0.900   1.669  11.172 -0.0928 -0.6263  2.1364
18222TIP3   OH276080   2.856   4.041  15.528 -0.4581 -0.1782 -0.5569
18222TIP3    H176081   2.938   3.992  15.529  0.1864  0.8631 -0.7551
18222TIP3    H276082   2.805   4.004  15.600 -0.0324 -1.1927 -0.7651
18223TIP3   OH276083   1.968   4.705   1.074  0.1181  0.1430  0.3988
18223TIP3    H176084   1.943   4.798   1.069  0.0488  0.0683 -0.8868
18223TIP3    H276085   1.970   4.687   1.168 -3.4230  0.5101  0.7148
18224TIP3   OH276086   4.156   3.904  13.326 -0.4291 -0.2296  0.4989
18224TIP3    H176087   4.148   3.810  13.310 -0.7481  0.2463 -2.7284
18224TIP3    H276088   4.242   3.926  13.291 -0.6274  0.8149  0.6486
18225TIP3   OH276089   2.754   3.097   0.151  0.3887  0.2391 -0.9566
18225TIP3    H176090   2.748   3.146   0.069 -2.9993  0.2299 -0.8387
18225TIP3    H276091   2.723   3.158   0.218  0.3195 -0.6948 -0.1140
18226TIP3   OH276092   0.489   3.820   5.461  0.3648 -0.1147 -0.3385
18226TIP3    H176093   0.475   3.852   5.550 -0.0765  1.2352 -0.8564
18226TIP3    H276094   0.536   3.738   5.471  0.2546 -0.0110  1.1395
18227TIP3   OH276095   4.156   1.086  15.109  0.3801  0.4957  0.7893
18227TIP3    H176096   4.095   1.148  15.150 -1.5672 -0.2205 -0.8346
18227TIP3    H276097   4.222   1.141  15.066 -1.0241  1.4757 -0.1914
18228TIP3   OH276098   0.372   5.028   1.775  0.2753  0.1207 -0.0315
18228TIP3    H176099   0.467   5.034   1.760  0.0682  1.0982 -1.0117
18228TIP3    H276100   0.363   5.035   1.870  1.1353  0.9199  0.0046
18229TIP3   OH276101   2.904   2.615   2.786 -0.5199 -0.0988  0.3529
18229TIP3    H176102   2.957   2.692   2.766  1.5981 -1.2470  1.2302
18229TIP3    H276103   2.882   2.625   2.879 -0.0749 -0.6002  0.5221
18230TIP3   OH276104   4.332   6.371  12.533  0.2286 -0.2959  0.3705
18230TIP3    H176105   4.405   6.324  12.574  0.0352  1.4888  2.9823
18230TIP3    H276106   4.361   6.462  12.529 -0.8702  0.0262 -1.0598
18231TIP3   OH276107   3.381   3.569   5.142  0.0539  0.0719  0.7609
18231TIP3    H176108   3.450   3.546   5.204 -1.5108 -0.7086  2.3032
18231TIP3    H276109   3.313   3.610   5.196 -0.4231  1.4679 -0.8066
18232TIP3   OH276110   5.502   2.262  15.144 -0.2608  0.0544  0.6782
18232TIP3    H176111   5.597   2.261  15.130 -0.3539  0.3492 -0.0439
18232TIP3    H276112   5.465   2.271  15.056 -1.0032 -1.4238  0.8176
18233TIP3   OH276113   6.745   0.662   3.508 -0.2112  0.0628 -0.9548
18233TIP3    H176114   6.710   0.581   3.545  2.2303  0.0038  1.4931
18233TIP3    H276115   6.689   0.679   3.432 -3.6316 -1.4835  0.9765
18234TIP3   OH276116   2.065   3.832   5.720 -0.2022  0.0669  0.0203
18234TIP3    H176117   2.120   3.824   5.798 -0.4978  0.9478  0.3333
18234TIP3    H276118   2.105   3.902   5.669  1.4961 -2.1327 -1.9353
18235TIP3   OH276119   1.841   3.305   6.181  0.4834  0.0321  0.2088
18235TIP3    H176120   1.924   3.354   6.180 -0.5406  1.8266 -0.3338
18235TIP3    H276121   1.864   3.222   6.224  2.7336  0.1338 -0.6339
18236TIP3   OH276122   4.175   4.639  14.721  0.2971 -0.3743  0.0560
18236TIP3    H176123   4.083   4.639  14.748 -0.7042 -0.9684 -2.9683
18236TIP3    H276124   4.211   4.719  14.760 -1.1471 -0.7132  2.2598
18237TIP3   OH276125   1.440   1.723   4.916  1.2056  1.0860  0.4554
18237TIP3    H176126   1.496   1.714   4.839  1.6306 -0.0947  0.8806
18237TIP3    H276127   1.408   1.634   4.932 -0.6619  1.6997  0.3373
18238TIP3   OH276128   4.752   2.616  14.861  0.1114 -0.0554 -0.3829
18238TIP3    H176129   4.780   2.557  14.791 -0.9619 -0.1620 -0.7354
18238TIP3    H276130   4.657   2.608  14.862  0.0853  0.2841  0.7993
18239TIP3   OH276131   0.112   4.473  10.543 -0.1916 -0.1019  0.2385
18239TIP3    H176132   0.111   4.478  10.447 -0.7144 -0.0397  0.2442
18239TIP3    H276133   0.020   4.466  10.568 -0.1034  0.6009  0.7796
18240TIP3   OH276134   1.378   4.799  12.710  0.4097  0.1039  1.0747
18240TIP3    H176135   1.353   4.757  12.793 -1.7183  0.1246  0.5231
18240TIP3    H276136   1.305   4.858  12.692  0.9629  0.2846 -0.6862
18241TIP3   OH276137   6.793   1.400  14.225  0.0531 -0.3854 -0.1784
18241TIP3    H176138   6.776   1.367  14.137  0.0005  0.8765 -0.6633
18241TIP3    H276139   6.804   1.495  14.214 -2.1400  0.1540  1.4656
18242TIP3   OH276140   5.442   4.898  14.768 -0.0408 -0.6747 -0.0842
18242TIP3    H176141   5.441   4.866  14.678 -0.6296 -0.3899 -0.1896
18242TIP3    H276142   5.486   4.983  14.762  0.7515 -1.0738  0.0522
18243TIP3   OH276143   1.245   0.491  16.584  0.2470 -0.3217  0.1105
18243TIP3    H176144   1.276   0.521  16.670  0.4165 -1.0515  0.3152
18243TIP3    H276145   1.150   0.502  16.589  0.4213  1.8692 -0.4991
18244TIP3   OH276146   2.579   3.669   1.785 -0.0410  0.1217  0.8117
18244TIP3    H176147   2.657   3.614   1.793 -0.0582  0.0061  0.2216
18244TIP3    H276148   2.593   3.740   1.848  0.7454  0.3429  0.4021
18245TIP3   OH276149   6.481   0.700  14.162  0.2721 -0.3250 -0.0675
18245TIP3    H176150   6.494   0.717  14.256 -0.4321  0.4039 -0.0933
18245TIP3    H276151   6.567   0.717  14.123  0.0974  1.3148  0.1943
18246TIP3   OH276152   4.401   0.137   4.206  0.2166  0.3958 -0.1067
18246TIP3    H176153   4.316   0.145   4.163  0.5968  0.2955 -0.8844
18246TIP3    H276154   4.435   0.226   4.211  1.3404  0.1668 -2.4365
18247TIP3   OH276155   3.588   1.233  13.221 -0.6123  0.0100 -0.2445
18247TIP3    H176156   3.589   1.195  13.133  0.9052 -0.5266 -0.0184
18247TIP3    H276157   3.554   1.163  13.276  0.7706 -0.5420 -0.0543
18248TIP3   OH276158   2.335   1.244  16.931  0.6199  0.4676 -0.2913
18248TIP3    H176159   2.264   1.303  16.906 -1.3750 -0.1767  3.1865
18248TIP3    H276160   2.333   1.242  17.026  1.8428 -3.6817 -0.1267
18249TIP3   OH276161   0.767   2.025  10.800 -0.0607  0.6938  0.4018
18249TIP3    H176162   0.730   2.110  10.776  0.5580  1.3428  1.6974
18249TIP3    H276163   0.801   2.037  10.888 -0.7735 -1.1577  0.9756
18250TIP3   OH276164   0.254   4.010  13.498 -0.5068  0.1248 -0.5469
18250TIP3    H176165   0.281   4.102  13.490 -0.2666  0.0591 -0.5049
18250TIP3    H276166   0.173   4.004  13.447 -0.4930  0.3477 -0.5953
18251TIP3   OH276167   4.280   3.676   2.001 -0.1145  0.0410  0.1090
18251TIP3    H176168   4.248   3.752   2.050 -0.5386  0.1207 -0.2943
18251TIP3    H276169   4.225   3.672   1.923  2.1002  1.4171 -1.6700
18252TIP3   OH276170   3.990   3.915  14.119  0.3683  0.4431  0.0592
18252TIP3    H176171   4.081   3.924  14.149  0.4843  2.7824 -0.8341
18252TIP3    H276172   3.958   4.005  14.109 -1.7612 -0.3147 -0.5455
18253TIP3   OH276173   0.382   5.441   1.968 -0.7476  0.7894  0.1028
18253TIP3    H176174   0.317   5.449   2.038 -2.1440  0.6680 -1.1376
18253TIP3    H276175   0.401   5.531   1.942 -1.3650  0.7994 -0.3478
18254TIP3   OH276176   2.611   6.048   2.085  0.4622 -0.0492  0.4979
18254TIP3    H176177   2.633   6.104   2.160  1.5967 -0.6906  0.6543
18254TIP3    H276178   2.674   5.977   2.089 -0.6974 -1.1355  0.0491
18255TIP3   OH276179   4.679   6.793  12.333 -0.0098 -0.0082  0.0752
18255TIP3    H176180   4.751   6.835  12.285 -1.0256  0.7562 -0.8493
18255TIP3    H276181   4.601   6.821  12.286 -0.9865 -0.0097  1.6488
18256TIP3   OH276182   1.931   4.911   6.271  0.1299  0.0897  0.2853
18256TIP3    H176183   1.845   4.914   6.229 -0.0016 -0.0710  0.5385
18256TIP3    H276184   1.937   4.992   6.322 -0.2920 -0.3532  1.0706
18257TIP3   OH276185   2.393   4.151   4.549  0.8625  0.2402 -0.4322
18257TIP3    H176186   2.387   4.090   4.623  0.0111  1.1869  0.3289
18257TIP3    H276187   2.368   4.099   4.473  2.7214 -1.0171 -0.2389
18258TIP3   OH276188   4.450   3.622   6.381  0.1799  0.4145  0.4546
18258TIP3    H176189   4.432   3.580   6.297  1.7155  1.5740 -0.5004
18258TIP3    H276190   4.527   3.577   6.415 -0.2287  0.1807  1.0944
18259TIP3   OH276191   0.916   1.136  13.771  0.1087 -0.0269  0.1515
18259TIP3    H176192   0.935   1.069  13.706 -1.2975 -0.2696 -0.0419
18259TIP3    H276193   0.857   1.196  13.727  0.1404  0.5012  0.8110
18260TIP3   OH276194   0.609   4.119   3.959 -0.2373 -0.2740 -0.6125
18260TIP3    H176195   0.670   4.176   4.005  0.8821 -1.6227 -0.3835
18260TIP3    H276196   0.580   4.056   4.026  0.1430 -1.2343 -1.3275
18261TIP3   OH276197   3.022   6.613   3.143  0.2883 -0.2195 -0.1964
18261TIP3    H176198   2.989   6.585   3.058  1.3225  0.1127 -0.7161
18261TIP3    H276199   2.952   6.669   3.178 -0.2100 -0.4843 -0.7559
18262TIP3   OH276200   5.193   6.050  16.851 -0.1270 -0.1361  0.3153
18262TIP3    H176201   5.231   6.116  16.909 -0.5782  0.1354  0.3005
18262TIP3    H276202   5.132   6.098  16.795 -0.6637 -0.6001  0.4914
18263TIP3   OH276203   1.619   2.541  12.572 -0.6624 -0.1169 -0.3669
18263TIP3    H176204   1.669   2.573  12.647 -1.6470  1.3021 -0.2545
18263TIP3    H276205   1.612   2.447  12.585  1.7498 -0.3539 -0.2985
18264TIP3   OH276206   1.832   3.744  13.266 -0.1401  0.5198 -0.1075
18264TIP3    H176207   1.920   3.777  13.246  0.4520 -0.2764  1.0944
18264TIP3    H276208   1.790   3.816  13.314 -1.0120  1.8105 -2.5906
18265TIP3   OH276209   2.465   5.046  15.703  0.1426  0.5773  0.2035
18265TIP3    H176210   2.384   5.031  15.654 -1.7629 -0.2947  3.3302
18265TIP3    H276211   2.502   4.959  15.718  0.9560  0.8629 -0.0867
18266TIP3   OH276212   6.611   1.285   2.288 -0.3764  0.4467 -0.1059
18266TIP3    H176213   6.654   1.215   2.337  0.2613  1.1000  0.2872
18266TIP3    H276214   6.518   1.272   2.303 -0.2123  0.2955  0.8145
18267TIP3   OH276215   4.016   1.134   3.636 -0.4044 -0.1168  0.1311
18267TIP3    H176216   4.022   1.168   3.546 -1.6171 -1.9426 -0.6880
18267TIP3    H276217   3.923   1.140   3.657 -1.1343 -4.5295 -0.8334
18268TIP3   OH276218   4.330   2.986   4.222  0.0570  0.1470 -0.3945
18268TIP3    H176219   4.264   2.923   4.252  1.1621 -0.4846  0.7831
18268TIP3    H276220   4.301   3.069   4.261 -0.2839 -0.0332 -0.2513
18269TIP3   OH276221   6.465   2.335   5.016  0.2297 -0.2318  0.5575
18269TIP3    H176222   6.513   2.418   5.011 -0.1545  0.0139  0.9131
18269TIP3    H276223   6.477   2.296   4.930 -0.1057  0.4774  0.1818
18270TIP3   OH276224   0.876   0.419   2.717 -0.8957  0.2802 -0.2962
18270TIP3    H176225   0.860   0.337   2.672  1.0653 -0.8533  0.9224
18270TIP3    H276226   0.959   0.451   2.682 -0.5647  0.6309  0.7531
18271TIP3   OH276227   4.191   3.186  16.796 -0.2278  0.1736  0.7811
18271TIP3    H176228   4.174   3.142  16.879  0.5220  0.8829  1.3245
18271TIP3    H276229   4.191   3.279  16.818  0.5795  0.3485  0.0976
18272TIP3   OH276230   4.097   2.328   3.624 -0.3915  0.3469  0.6118
18272TIP3    H176231   4.073   2.238   3.604  2.2400 -0.3644  0.2319
18272TIP3    H276232   4.044   2.382   3.565 -3.1490 -0.7737  1.9158
18273TIP3   OH276233   2.865   3.623   2.422 -0.4495  0.0115 -0.0409
18273TIP3    H176234   2.864   3.547   2.365  1.0233 -1.0237  1.2137
18273TIP3    H276235   2.776   3.629   2.457 -0.4342 -1.5420  0.3322
18274TIP3   OH276236   5.673   3.280   2.653 -0.2251 -0.0502 -0.6558
18274TIP3    H176237   5.625   3.219   2.708  0.8195 -1.4469 -1.2284
18274TIP3    H276238   5.763   3.248   2.654  0.3973  1.5808 -0.8690
18275TIP3   OH276239   6.057   6.484  12.322 -0.7039  0.8665  0.2434
18275TIP3    H176240   6.009   6.436  12.390  0.4295  2.6280  2.4224
18275TIP3    H276241   6.138   6.512  12.364 -0.6161  3.3493 -1.3353
18276TIP3   OH276242   4.047   4.984   5.640  0.0892  0.2347 -0.4147
18276TIP3    H176243   4.081   5.043   5.708  0.4465 -0.0360 -0.3575
18276TIP3    H276244   3.958   5.015   5.625  0.3748  0.9887 -0.6034
18277TIP3   OH276245   6.649   6.637  10.700 -0.2317 -0.6231 -0.5489
18277TIP3    H176246   6.582   6.643  10.633  0.0999 -0.3709 -0.8608
18277TIP3    H276247   6.640   6.717  10.751  0.4924 -0.0859 -1.2264
18278TIP3   OH276248   0.675   4.280  10.406 -0.4578 -0.7199 -0.4093
18278TIP3    H176249   0.724   4.273  10.324  0.8556 -2.5316  0.4502
18278TIP3    H276250   0.693   4.368  10.437 -0.4974 -0.2077 -1.7596
18279TIP3   OH276251   1.614   3.968   0.860 -0.6282 -0.2807  0.3887
18279TIP3    H176252   1.579   3.886   0.826  0.3725 -0.7666  0.5137
18279TIP3    H276253   1.537   4.015   0.893 -1.3538 -0.6465 -0.7509
18280TIP3   OH276254   3.975   1.475  13.122  0.6366  0.0616 -0.1731
18280TIP3    H176255   4.070   1.464  13.134  0.4130 -0.0495  1.8173
18280TIP3    H276256   3.938   1.391  13.146  0.0030  0.1832 -0.7057
18281TIP3   OH276257   2.552   1.428   3.283 -0.2045 -0.5222 -0.4795
18281TIP3    H176258   2.527   1.452   3.194 -0.5929  1.8431  0.1882
18281TIP3    H276259   2.616   1.495   3.309  0.1183 -1.3334  0.9209
18282TIP3   OH276260   3.494   2.489  14.029  0.0510  0.1784 -0.2078
18282TIP3    H176261   3.576   2.516  13.987 -0.6701  0.7847 -1.2381
18282TIP3    H276262   3.449   2.571  14.050 -0.2587 -0.1524  0.4620
18283TIP3   OH276263   2.152   1.768  11.042 -0.2357  0.0700 -0.7601
18283TIP3    H176264   2.175   1.861  11.043 -1.6321  0.4222  0.1767
18283TIP3    H276265   2.061   1.766  11.012 -0.2059 -1.0068 -0.8159
18284TIP3   OH276266   4.125   2.614   0.627 -0.0773  0.9333  0.2255
18284TIP3    H176267   4.172   2.660   0.558  0.7959 -1.9727 -1.3077
18284TIP3    H276268   4.187   2.548   0.659 -2.3095 -1.6688 -0.3901
18285TIP3   OH276269   5.879   5.653  16.863 -0.2804  0.0802 -0.4488
18285TIP3    H176270   5.879   5.728  16.923 -0.6838 -0.8927  0.8250
18285TIP3    H276271   5.950   5.672  16.801 -1.2686  2.1448 -1.0267
18286TIP3   OH276272   5.149   1.474  12.703 -0.3592 -0.5075 -0.0978
18286TIP3    H176273   5.150   1.378  12.705  2.2757 -0.6505 -2.0949
18286TIP3    H276274   5.238   1.498  12.677 -1.2222  2.4638 -0.6999
18287TIP3   OH276275   0.051   2.333   3.070 -0.0010  0.2485  0.1295
18287TIP3    H176276   0.128   2.279   3.050 -0.1760  0.4407 -1.1365
18287TIP3    H276277   0.084   2.423   3.067 -0.5390  0.4344 -1.9530
18288TIP3   OH276278   1.112   6.258   3.959  0.0280 -0.0753 -0.3011
18288TIP3    H176279   1.114   6.212   3.876  0.6474  1.1371 -0.9873
18288TIP3    H276280   1.203   6.282   3.975 -0.4755  2.6632 -1.0214
18289TIP3   OH276281   4.800   0.102   2.803  0.2362 -0.0259  0.4132
18289TIP3    H176282   4.835   0.043   2.735  0.4282  1.2199 -0.6118
18289TIP3    H276283   4.856   0.179   2.798 -1.5365  1.2850 -0.0336
18290TIP3   OH276284   0.514   0.846   2.910 -0.5932  0.1223 -0.3494
18290TIP3    H176285   0.497   0.941   2.910  0.8448  0.4781  2.4554
18290TIP3    H276286   0.469   0.814   2.988  0.8121 -1.0766  0.0113
18291TIP3   OH276287   2.940   3.016   5.464  0.4745 -0.0181 -0.0216
18291TIP3    H176288   2.965   3.036   5.373 -0.1103  0.1515 -0.1532
18291TIP3    H276289   2.955   2.922   5.474 -1.0514 -0.3905 -0.8399
18292TIP3   OH276290   1.541   6.239   2.731  0.4343 -0.2880  0.5965
18292TIP3    H176291   1.491   6.227   2.651  1.6580 -2.6582  0.0946
18292TIP3    H276292   1.492   6.191   2.798  0.1736  0.4379  0.9277
18293TIP3   OH276293   2.852   5.018   2.017 -0.0710 -0.1587  0.0884
18293TIP3    H176294   2.831   4.930   1.985 -1.1829  0.0684  0.1857
18293TIP3    H276295   2.813   5.077   1.953 -1.2245  0.2809  1.1612
18294TIP3   OH276296   0.524   2.275  11.955 -0.4151 -0.2762  0.3141
18294TIP3    H176297   0.618   2.257  11.945 -0.6040 -2.5767  1.7760
18294TIP3    H276298   0.501   2.233  12.038 -2.6889  0.5094  0.1496
18295TIP3   OH276299   2.551   5.068   5.433  0.2096  0.3753  0.0081
18295TIP3    H176300   2.596   5.104   5.356  0.9025  0.2067  0.3233
18295TIP3    H276301   2.461   5.055   5.405  0.4802  0.2158 -0.8120
18296TIP3   OH276302   4.816   5.005   2.932  0.0289 -0.1901 -0.2249
18296TIP3    H176303   4.781   4.992   2.844 -0.4897  0.3453 -0.1017
18296TIP3    H276304   4.910   5.016   2.919 -0.1828  1.0340 -0.8354
18297TIP3   OH276305   6.077   1.337  11.965 -0.0042  0.5209 -0.4779
18297TIP3    H176306   6.143   1.370  12.025 -1.3083 -0.9600  1.9382
18297TIP3    H276307   5.998   1.386  11.987 -0.7943 -0.8571 -0.0667
18298TIP3   OH276308   5.119   5.626   0.105 -0.1981  0.0841 -0.0283
18298TIP3    H176309   5.058   5.576   0.159  1.0613  0.0833  1.4667
18298TIP3    H276310   5.086   5.716   0.108 -1.8180 -0.3979 -1.7754
18299TIP3   OH276311   4.766   2.244   3.702 -0.5763 -0.5332  0.0600
18299TIP3    H176312   4.754   2.338   3.687 -1.3396 -0.7896 -1.1003
18299TIP3    H276313   4.693   2.203   3.656  0.9455 -1.8089 -1.3544
18300TIP3   OH276314   3.155   2.479   5.001  0.8708 -0.2646 -0.0922
18300TIP3    H176315   3.201   2.504   4.921 -0.7562  0.4640 -0.8489
18300TIP3    H276316   3.070   2.522   4.994  1.1587  0.9464  2.6985
18301TIP3   OH276317   4.888   5.178  13.361 -0.2207 -0.6371  0.1978
18301TIP3    H176318   4.960   5.116  13.348  1.2640  1.2291 -1.0144
18301TIP3    H276319   4.844   5.181  13.276  0.4494  0.7677 -0.1328
18302TIP3   OH276320   4.304   1.030   1.979 -0.8942 -0.2458 -0.2781
18302TIP3    H176321   4.220   1.071   1.999 -0.0591  2.3384 -1.4801
18302TIP3    H276322   4.369   1.094   2.008  0.5619 -1.0134 -1.6502
18303TIP3   OH276323   0.787   4.793  15.967  0.2749  0.1682 -0.1097
18303TIP3    H176324   0.790   4.854  16.040 -0.6689  0.0791  0.0110
18303TIP3    H276325   0.715   4.823  15.913 -1.4563 -1.8707  0.9121
18304TIP3   OH276326   4.218   0.958  13.044 -0.0255 -0.6745 -0.1969
18304TIP3    H176327   4.276   0.928  12.974  3.2446 -2.3704  2.8980
18304TIP3    H276328   4.244   1.048  13.060 -1.6875  0.1609 -1.8728
18305TIP3   OH276329   1.533   0.249  16.131 -0.1659 -0.1862 -0.4099
18305TIP3    H176330   1.600   0.181  16.131 -1.0291 -1.0825  0.7644
18305TIP3    H276331   1.465   0.216  16.073  0.2581  0.5857 -1.3654
18306TIP3   OH276332   6.465   4.836   0.247  0.0055  0.2497  0.3043
18306TIP3    H176333   6.377   4.820   0.280 -0.5218  1.3593 -0.5071
18306TIP3    H276334   6.459   4.920   0.202  1.0871 -0.4172 -1.1673
18307TIP3   OH276335   3.666   3.239  15.869  0.1686  0.2097 -0.3604
18307TIP3    H176336   3.751   3.273  15.839  0.2136 -0.2146 -0.7283
18307TIP3    H276337   3.633   3.306  15.928  1.2437 -0.0819  0.6069
18308TIP3   OH276338   1.350   1.471  11.735 -0.0329  0.8394  0.7178
18308TIP3    H176339   1.396   1.436  11.659 -0.2015 -2.1046  1.8391
18308TIP3    H276340   1.261   1.486  11.704  0.1726  0.7045  0.0537
18309TIP3   OH276341   6.231   5.446  16.105  0.0107 -0.0470  0.1340
18309TIP3    H176342   6.219   5.524  16.159  1.4872  0.9414 -0.9087
18309TIP3    H276343   6.265   5.479  16.021 -2.7545 -1.4425 -1.6984
18310TIP3   OH276344   1.817   4.402  16.617 -0.0735  0.7540 -0.3126
18310TIP3    H176345   1.835   4.371  16.529  0.0051 -1.6225  0.4789
18310TIP3    H276346   1.738   4.457  16.608 -0.4625 -0.0016 -1.7496
18311TIP3   OH276347   2.510   3.994  13.556  0.0872 -0.3579 -0.5151
18311TIP3    H176348   2.445   3.991  13.486  0.1336 -1.1019 -0.5394
18311TIP3    H276349   2.549   3.907  13.556 -0.8188 -0.8227  1.2680
18312TIP3   OH276350   4.887   3.542   3.093 -0.3493  0.2392 -0.3088
18312TIP3    H176351   4.794   3.521   3.087 -0.3571  0.2804 -0.3323
18312TIP3    H276352   4.916   3.505   3.176  0.3582 -2.6712 -1.7243
18313TIP3   OH276353   4.708   2.131   4.263 -0.0708 -0.0369  0.4213
18313TIP3    H176354   4.743   2.218   4.247  0.8721 -0.6489 -1.0544
18313TIP3    H276355   4.704   2.124   4.358 -0.9320  1.8807  0.5844
18314TIP3   OH276356   1.450   6.508   5.495  0.2185  0.3155 -0.5259
18314TIP3    H176357   1.545   6.500   5.488  0.4407  2.4370 -0.7484
18314TIP3    H276358   1.423   6.544   5.410 -0.4106  2.1963  0.4206
18315TIP3   OH276359   1.335   2.916   1.705  0.0036 -0.2904  0.5140
18315TIP3    H176360   1.245   2.930   1.677  0.3864 -0.7597 -1.0704
18315TIP3    H276361   1.374   3.003   1.706  0.0145 -0.2681 -0.6229
18316TIP3   OH276362   6.145   6.005   5.275 -0.0878  0.3782  0.0427
18316TIP3    H176363   6.201   5.997   5.198  0.7444 -0.1327  0.6847
18316TIP3    H276364   6.205   6.001   5.349 -0.5761  3.1524  0.7086
18317TIP3   OH276365   0.933   5.032   5.164  0.2195  0.4252 -0.2816
18317TIP3    H176366   0.866   5.075   5.219 -0.0456 -0.9231  0.4865
18317TIP3    H276367   0.976   5.105   5.119 -0.6766  1.4512  0.4456
18318TIP3   OH276368   0.320   1.800  11.574  0.4814 -0.0120  0.1966
18318TIP3    H176369   0.263   1.728  11.601 -1.7944  2.0046  1.1148
18318TIP3    H276370   0.269   1.848  11.509  1.2254  1.7092  0.8081
18319TIP3   OH276371   0.156   0.832   2.801  0.4233 -0.2761 -0.2817
18319TIP3    H176372   0.129   0.855   2.890  0.2551 -2.9157  0.4045
18319TIP3    H276373   0.169   0.917   2.758  1.8410  1.1176  2.6240
18320TIP3   OH276374   3.924   2.370  10.525  0.2224  0.0337  0.4659
18320TIP3    H176375   3.850   2.430  10.531  0.5598  0.4143  0.9178
18320TIP3    H276376   3.915   2.314  10.602  0.1121 -0.2614  0.2402
18321TIP3   OH276377   1.470   2.352  13.532 -0.1282  0.1904  0.1568
18321TIP3    H176378   1.492   2.422  13.471 -1.0124 -0.0146 -0.4057
18321TIP3    H276379   1.405   2.390  13.590  0.5825  0.3290  0.8765
18322TIP3   OH276380   0.480   4.242  12.288  0.2209 -0.0832  0.3680
18322TIP3    H176381   0.531   4.174  12.331  0.4004 -0.0793  0.1654
18322TIP3    H276382   0.418   4.272  12.354  0.8134  0.2608  0.7716
18323TIP3   OH276383   6.007   5.765  10.910  0.0382  0.1861 -0.1548
18323TIP3    H176384   6.065   5.736  10.980  0.0188  0.0110 -0.2130
18323TIP3    H276385   5.998   5.690  10.852 -0.2178  0.2231 -0.1661
18324TIP3   OH276386   2.909   1.381   4.875  0.1177 -0.0258 -0.3598
18324TIP3    H176387   2.886   1.472   4.889  0.3355 -0.3645  2.7640
18324TIP3    H276388   2.997   1.372   4.912  0.5089 -1.3343 -1.4891
18325TIP3   OH276389   5.212   2.594  12.645 -0.0573 -0.0321 -0.8852
18325TIP3    H176390   5.237   2.542  12.722 -1.2345 -2.2545 -1.9055
18325TIP3    H276391   5.121   2.570  12.628 -0.1458  1.2031 -2.3784
18326TIP3   OH276392   2.679   0.956   3.807  0.2057 -0.1175  0.0199
18326TIP3    H176393   2.637   0.929   3.725 -0.2517 -2.6808  0.9962
18326TIP3    H276394   2.660   1.049   3.814  0.5332  0.2770 -2.9259
18327TIP3   OH276395   0.251   4.874  14.087 -0.6032  0.3502 -0.1427
18327TIP3    H176396   0.325   4.862  14.028 -0.1703  0.6984  0.3141
18327TIP3    H276397   0.177   4.891  14.030 -0.3899 -0.2930 -0.6178
18328TIP3   OH276398   5.849   0.599  10.896  0.0010 -0.7778 -0.0854
18328TIP3    H176399   5.841   0.504  10.889 -1.0747 -0.7009 -0.0695
18328TIP3    H276400   5.840   0.617  10.989 -1.1256 -0.5658 -0.2221
18329TIP3   OH276401   1.177   3.481   2.884 -0.3531  0.3955 -0.2078
18329TIP3    H176402   1.232   3.404   2.895 -0.8236  0.2516  1.2950
18329TIP3    H276403   1.234   3.555   2.905 -0.5421  0.2867  0.7232
18330TIP3   OH276404   4.282   6.462  14.021  0.0666  0.2059 -0.2053
18330TIP3    H176405   4.198   6.508  14.023 -0.1154 -0.0904 -0.8532
18330TIP3    H276406   4.263   6.379  13.977  0.7048  0.1487 -0.3857
18331TIP3   OH276407   2.219   2.080   4.227  0.0296 -0.1014 -0.0599
18331TIP3    H176408   2.301   2.046   4.193 -0.0802  0.6094 -1.0747
18331TIP3    H276409   2.166   2.002   4.244  0.6854 -0.5338  0.0215
18332TIP3   OH276410   3.296   3.035  11.998 -0.3549  0.5672 -0.4429
18332TIP3    H176411   3.389   3.015  11.994 -0.4616 -1.3823  2.9856
18332TIP3    H276412   3.287   3.119  11.953  3.0081  0.7806 -0.9351
18333TIP3   OH276413   0.516   0.804   5.395 -0.4600  0.0002 -0.3925
18333TIP3    H176414   0.445   0.837   5.451 -1.2564 -1.4670 -0.4931
18333TIP3    H276415   0.576   0.762   5.456 -0.0181  0.6333 -0.3839
18334TIP3   OH276416   4.220   0.826  17.036  0.4799  0.3661 -0.5049
18334TIP3    H176417   4.312   0.854  17.025  0.7452 -0.0965  0.4889
18334TIP3    H276418   4.218   0.782  17.121 -0.7234  0.5909 -0.4025
18335TIP3   OH276419   0.164   6.321   4.172 -0.2380 -0.4083  0.3070
18335TIP3    H176420   0.092   6.288   4.226  0.1345  0.9843  1.7463
18335TIP3    H276421   0.169   6.260   4.099 -0.9462 -2.2527  1.7056
18336TIP3   OH276422   5.035   4.403  12.928 -0.1987  0.4222 -0.0569
18336TIP3    H176423   5.050   4.371  13.017 -1.0057 -0.5459 -0.2536
18336TIP3    H276424   5.098   4.474  12.917  2.0532 -1.4229  0.2062
18337TIP3   OH276425   4.271   4.403  14.847 -0.2607 -0.2970  0.9003
18337TIP3    H176426   4.329   4.450  14.907  0.6467 -0.9298  0.5522
18337TIP3    H276427   4.226   4.471  14.798  0.7103  0.2235  0.7000
18338TIP3   OH276428   3.848   6.347   2.838  0.0113 -0.3011  0.9710
18338TIP3    H176429   3.776   6.410   2.842  0.8452  0.6770  0.8302
18338TIP3    H276430   3.913   6.381   2.899  1.5663  0.3859 -0.9768
18339TIP3   OH276431   0.673   6.315  16.244  0.3182  0.6194  0.2304
18339TIP3    H176432   0.671   6.322  16.339  0.5692 -2.4552  0.5798
18339TIP3    H276433   0.591   6.271  16.221  0.1339  1.5528 -1.0287
18340TIP3   OH276434   2.687   3.317   6.390 -0.1034  0.0710  0.1556
18340TIP3    H176435   2.750   3.264   6.341  0.1360  1.2098 -0.8180
18340TIP3    H276436   2.736   3.397   6.412 -0.2425 -0.3493  2.1770
18341TIP3   OH276437   2.046   1.035  15.995  0.4589 -0.7336 -0.9922
18341TIP3    H176438   2.002   1.012  15.913  0.3084 -3.2718 -0.3018
18341TIP3    H276439   2.115   0.970  16.004  1.1070  0.1099  0.4145
18342TIP3   OH276440   4.612   2.297   0.765  0.3497  0.4408  0.8531
18342TIP3    H176441   4.633   2.205   0.780 -0.2942 -0.4055 -2.6220
18342TIP3    H276442   4.527   2.309   0.809  0.3537 -0.6633  1.1970
18343TIP3   OH276443   0.258   0.293  10.221 -0.7640 -0.0887 -0.1232
18343TIP3    H176444   0.322   0.224  10.238  1.1965  1.7464  0.3423
18343TIP3    H276445   0.213   0.264  10.141  0.9930 -1.2077 -0.7716
18344TIP3   OH276446   4.298   2.737   0.130  0.3131  0.5998 -0.5593
18344TIP3    H176447   4.331   2.696   0.051  1.2739 -1.6942  0.9232
18344TIP3    H276448   4.375   2.773   0.174  0.3201 -0.9268  0.7947
18345TIP3   OH276449   3.991   4.218   4.718  0.2151 -0.4894  0.4327
18345TIP3    H176450   3.990   4.123   4.708  1.5194 -0.5062  0.2855
18345TIP3    H276451   4.062   4.235   4.779 -1.6134  0.2596  2.4959
18346TIP3   OH276452   6.526   2.625   1.959 -0.9942 -0.4136 -0.1349
18346TIP3    H176453   6.475   2.654   2.034 -1.1844  2.3009 -1.1979
18346TIP3    H276454   6.464   2.622   1.887 -0.1270  0.8874 -0.9893
18347TIP3   OH276455   3.050   3.766  11.161 -0.0702  0.2470  0.1404
18347TIP3    H176456   3.008   3.802  11.239 -2.5827  2.4314 -2.0215
18347TIP3    H276457   3.136   3.808  11.159 -1.0045  2.3074  0.3791
18348TIP3   OH276458   6.199   5.447   3.288 -0.1270  0.2594 -0.3629
18348TIP3    H176459   6.280   5.497   3.293  2.5452 -3.5809 -0.0554
18348TIP3    H276460   6.170   5.457   3.197  2.3825 -0.4057 -1.3235
18349TIP3   OH276461   5.004   2.729  16.739  0.0163 -0.3911  0.0519
18349TIP3    H176462   5.090   2.769  16.732  1.0476 -2.4017  0.5375
18349TIP3    H276463   4.986   2.729  16.833 -0.6059  0.1732 -0.0612
18350TIP3   OH276464   0.014   5.997  13.230 -0.2783 -0.3491  0.6187
18350TIP3    H176465   0.049   6.059  13.295 -0.3203 -0.1878  0.4886
18350TIP3    H276466  -0.038   5.935  13.281 -3.8948  2.1680  0.3767
18351TIP3   OH276467   1.428   6.529  15.654  0.7199 -0.4282 -0.4783
18351TIP3    H176468   1.375   6.481  15.591  0.7538 -0.9497 -0.1123
18351TIP3    H276469   1.365   6.567  15.715  0.7920 -1.6467  0.3797
18352TIP3   OH276470   6.477   0.649  12.166  0.0291 -0.3655  0.5913
18352TIP3    H176471   6.553   0.645  12.224 -1.2649 -1.4449  2.3217
18352TIP3    H276472   6.403   0.666  12.225 -1.5822 -3.0770 -0.4840
18353TIP3   OH276473   3.219   2.917   1.469 -0.1049  0.5087  0.2589
18353TIP3    H176474   3.285   2.917   1.538 -0.4543 -2.4464  0.7099
18353TIP3    H276475   3.139   2.885   1.511 -0.7515  0.1894 -1.1349
18354TIP3   OH276476   2.201   5.764  16.973 -0.5953 -0.0773 -0.1447
18354TIP3    H176477   2.264   5.711  16.924 -1.4498 -0.9733 -0.2891
18354TIP3    H276478   2.132   5.784  16.910 -1.5592 -0.9964  0.5932
18355TIP3   OH276479   4.650   2.595   5.830 -0.3860 -0.0701 -0.3173
18355TIP3    H176480   4.649   2.615   5.924 -0.8493 -0.6738 -0.1810
18355TIP3    H276481   4.583   2.652   5.793  0.4980  0.9071 -0.4567
18356TIP3   OH276482   2.701   1.695  16.572 -0.2729 -0.3209  0.2473
18356TIP3    H176483   2.755   1.712  16.649 -0.0593  0.2505 -0.0241
18356TIP3    H276484   2.644   1.771  16.565 -1.8576 -1.3613  1.1284
18357TIP3   OH276485   5.716   3.086   0.468 -0.3579  0.0670  0.5406
18357TIP3    H176486   5.649   3.067   0.402 -0.6764  0.0535  0.8639
18357TIP3    H276487   5.789   3.122   0.418 -0.3666 -0.5010  0.1062
18358TIP3   OH276488   2.958   6.311   4.239 -0.0482  0.1398  0.3133
18358TIP3    H176489   3.035   6.362   4.264  0.0704 -0.1282  0.5050
18358TIP3    H276490   2.900   6.316   4.315  0.9405 -1.9024  1.2990
18359TIP3   OH276491   0.304   5.079   3.100 -0.5489 -0.1444  0.0609
18359TIP3    H176492   0.383   5.026   3.088 -0.7239 -0.9024  1.9724
18359TIP3    H276493   0.334   5.170   3.094 -0.0062 -0.4038 -1.8302
18360TIP3   OH276494   2.318   5.719   4.310  0.3975 -0.3295  0.0170
18360TIP3    H176495   2.320   5.808   4.345 -0.2789 -0.1254 -0.4357
18360TIP3    H276496   2.229   5.688   4.330  0.9791 -1.3444  1.2148
18361TIP3   OH276497   2.619   1.186   2.982 -0.1576  0.0144 -0.4440
18361TIP3    H176498   2.628   1.172   3.076 -0.0771 -2.3987 -0.7472
18361TIP3    H276499   2.608   1.281   2.972  0.5735  0.3942  1.9099
18362TIP3   OH276500   5.683   3.630   3.570  0.0235  0.2667 -0.4111
18362TIP3    H176501   5.733   3.642   3.650 -0.6757  4.7867 -0.4225
18362TIP3    H276502   5.611   3.572   3.595  0.2485  0.9379  2.0351
18363TIP3   OH276503   4.489   1.762  11.475 -0.1567 -0.3361  0.0907
18363TIP3    H176504   4.573   1.760  11.520 -0.7817 -1.7738  1.2831
18363TIP3    H276505   4.427   1.790  11.543 -0.8647 -0.8729 -0.3211
18364TIP3   OH276506   0.567   6.113  15.132 -0.5488 -0.9335  0.2503
18364TIP3    H176507   0.591   6.038  15.187  2.7058 -0.7846 -0.7538
18364TIP3    H276508   0.528   6.175  15.193 -0.7107 -2.3126  1.6318
18365TIP3   OH276509   0.628   2.820   4.088 -0.0166 -0.4842 -0.5140
18365TIP3    H176510   0.533   2.829   4.087  0.0333  0.9394  1.2838
18365TIP3    H276511   0.661   2.907   4.065  0.8385 -0.8256 -0.6270
18366TIP3   OH276512   1.682   1.446   1.499  0.6235  0.1886  0.1252
18366TIP3    H176513   1.736   1.503   1.445 -0.6453  1.2400 -0.0896
18366TIP3    H276514   1.594   1.457   1.465  0.5147 -3.2968 -1.0920
18367TIP3   OH276515   5.990   0.637   2.060 -0.4340  0.5214 -0.0579
18367TIP3    H176516   6.056   0.655   1.993 -0.9535 -2.0773 -1.3938
18367TIP3    H276517   6.030   0.571   2.117 -0.8376  1.0431  0.8470
18368TIP3   OH276518   2.923   6.211  12.351  0.0561  0.4550 -0.3671
18368TIP3    H176519   2.948   6.303  12.353  0.0121  0.4867 -1.0243
18368TIP3    H276520   3.000   6.165  12.385 -1.0050  0.9071  3.0146
18369TIP3   OH276521   3.584   0.658  11.469 -0.2726 -0.2591 -0.1514
18369TIP3    H176522   3.552   0.748  11.477 -1.7445 -0.7905  0.4078
18369TIP3    H276523   3.679   0.666  11.464 -0.0588  1.1941  3.1989
18370TIP3   OH276524   4.992   5.395   2.232 -0.2844 -0.1548 -0.2874
18370TIP3    H176525   5.053   5.334   2.273 -1.8821 -2.7074 -1.4485
18370TIP3    H276526   4.947   5.436   2.306  1.9192  0.9029  0.5511
18371TIP3   OH276527   0.764   3.398  16.849  0.5914 -0.4425  0.5129
18371TIP3    H176528   0.789   3.326  16.906  1.1642 -1.6487 -1.1942
18371TIP3    H276529   0.724   3.357  16.773 -2.3447  1.2258  1.0140
18372TIP3   OH276530   3.449   2.584   0.449  0.8300 -0.5270  0.6451
18372TIP3    H176531   3.448   2.618   0.359  0.1074  3.0639  1.8310
18372TIP3    H276532   3.533   2.612   0.484  0.7381 -1.1200  1.3622
18373TIP3   OH276533   6.635   6.176  15.064  0.1879 -0.2984  0.2003
18373TIP3    H176534   6.667   6.224  14.988  0.8075  1.2424  1.3884
18373TIP3    H276535   6.574   6.112  15.028  2.3966 -1.4116 -1.8784
18374TIP3   OH276536   6.265   1.532   0.040  0.4131 -0.5456 -0.3847
18374TIP3    H176537   6.287   1.470  -0.030 -1.2369 -1.1695 -0.3935
18374TIP3    H276538   6.213   1.600  -0.004  0.3720 -0.3078  0.0255
18375TIP3   OH276539   3.178   5.208   2.739 -0.1844  0.0221  0.3185
18375TIP3    H176540   3.257   5.260   2.753 -0.6919  0.9200 -0.0657
18375TIP3    H276541   3.129   5.217   2.821  1.4141 -2.9740  1.7598
18376TIP3   OH276542   0.425   1.836   3.439 -0.5425 -0.3946  0.6577
18376TIP3    H176543   0.383   1.903   3.492 -0.5297  1.2698 -1.3410
18376TIP3    H276544   0.453   1.882   3.360  2.7107 -1.9592  0.7476
18377TIP3   OH276545   1.892   3.522   5.135  0.0596  0.1747  0.4102
18377TIP3    H176546   1.835   3.557   5.204 -0.2606  1.3507 -0.4114
18377TIP3    H276547   1.855   3.557   5.054  1.0897 -0.2624 -0.2697
18378TIP3   OH276548   3.549   3.559   2.476 -0.5690 -0.8722 -0.1334
18378TIP3    H176549   3.526   3.473   2.439 -2.0374 -0.7158  0.3547
18378TIP3    H276550   3.495   3.567   2.554 -0.6890  0.6290 -0.3423
18379TIP3   OH276551   5.241   2.194  15.237  0.6560  0.0137  0.0647
18379TIP3    H176552   5.210   2.174  15.149  0.0428  2.1655 -0.2419
18379TIP3    H276553   5.336   2.198  15.229  0.5351  1.5008 -0.8067
18380TIP3   OH276554   5.206   4.667  11.869 -0.5299  0.5123 -0.3087
18380TIP3    H176555   5.267   4.642  11.939 -0.2881  2.2805  0.1577
18380TIP3    H276556   5.211   4.595  11.806 -0.0428 -0.6693  1.0336
18381TIP3   OH276557   2.389   0.216  11.398 -0.7746  0.1531 -0.2691
18381TIP3    H176558   2.445   0.223  11.321  0.2036  0.0678  0.4134
18381TIP3    H276559   2.400   0.301  11.442 -1.8834  0.4716 -0.5863
18382TIP3   OH276560   0.077   0.246  11.667 -0.6340 -0.3632 -0.3716
18382TIP3    H176561   0.155   0.247  11.722 -0.1860 -2.9464 -0.7981
18382TIP3    H276562   0.066   0.336  11.638 -1.5803  1.4603  4.7027
18383TIP3   OH276563   6.450   5.912  13.883  0.0106 -0.3046 -0.1783
18383TIP3    H176564   6.542   5.888  13.889  0.4068  0.0469 -3.1631
18383TIP3    H276565   6.403   5.829  13.887  0.6621 -0.7341 -1.1284
18384TIP3   OH276566   5.598   0.414   4.511 -1.1739 -0.2037  0.6749
18384TIP3    H176567   5.513   0.433   4.550 -0.9339 -0.1510  1.1838
18384TIP3    H276568   5.659   0.415   4.585 -0.7596 -0.4173  0.3416
18385TIP3   OH276569   3.446   3.400  10.964  0.4699 -0.1883  0.2977
18385TIP3    H176570   3.458   3.308  10.986 -1.3963 -0.5584 -0.0824
18385TIP3    H276571   3.425   3.443  11.047 -0.7326 -0.5141  0.1818
18386TIP3   OH276572   0.989   2.080   0.493 -0.2049  0.2771 -0.3108
18386TIP3    H176573   1.060   2.020   0.468  1.1308  1.7518 -0.2555
18386TIP3    H276574   0.910   2.038   0.460  0.5275 -1.9754  0.5898
18387TIP3   OH276575   4.977   3.990  10.993  0.1065 -0.0974  0.1363
18387TIP3    H176576   4.995   4.065  10.938  0.0932 -0.2398 -0.0636
18387TIP3    H276577   4.897   3.952  10.956  0.5032 -0.6190 -0.2011
18388TIP3   OH276578   0.696   4.897   0.811  1.1253  0.5621  0.0140
18388TIP3    H176579   0.785   4.910   0.845  1.2656  0.9975 -0.5097
18388TIP3    H276580   0.702   4.918   0.718  0.2612  1.5476  0.1670
18389TIP3   OH276581   3.746   2.223  14.920 -0.0059  0.3417  0.0017
18389TIP3    H176582   3.777   2.135  14.903 -2.5371  0.0122 -4.5346
18389TIP3    H276583   3.664   2.211  14.968  0.7473  0.4690  1.3782
18390TIP3   OH276584   6.542   4.784   2.785 -0.0024  0.0303 -0.9510
18390TIP3    H176585   6.562   4.734   2.706  1.8968  0.7717 -0.9893
18390TIP3    H276586   6.617   4.768   2.843 -0.3541  1.1700 -0.1404
18391TIP3   OH276587   3.848   3.893   2.098  0.1449 -0.1218  0.2627
18391TIP3    H176588   3.794   3.863   2.171  0.3502 -0.3917  0.3024
18391TIP3    H276589   3.839   3.989   2.099 -1.4225 -0.2191 -0.5652
18392TIP3   OH276590   3.552   4.030   0.647  0.6717  0.7829 -0.2554
18392TIP3    H176591   3.612   3.967   0.607  1.1078  0.5905  0.6705
18392TIP3    H276592   3.492   4.055   0.576  1.4222  0.4644 -1.0181
18393TIP3   OH276593   1.702   0.282  15.846  0.1473  0.1914  0.7912
18393TIP3    H176594   1.627   0.327  15.807  1.7702  1.9975 -0.4964
18393TIP3    H276595   1.746   0.241  15.771  1.2166  0.3848  1.3010
18394TIP3   OH276596   0.680   2.635   3.076  0.0295  0.5522 -0.5236
18394TIP3    H176597   0.664   2.729   3.064  1.2451  0.7505 -0.7611
18394TIP3    H276598   0.595   2.599   3.100 -0.4435  1.7296 -0.3558
18395TIP3   OH276599   6.244   6.743   0.573 -0.5859  0.3003 -1.1304
18395TIP3    H176600   6.216   6.731   0.482  0.9915 -1.9931 -1.3744
18395TIP3    H276601   6.337   6.762   0.567 -0.4935  0.2451  0.0171
18396TIP3   OH276602   5.514   6.673   4.776  0.3622  0.5647  0.0415
18396TIP3    H176603   5.460   6.684   4.698  2.4135  0.0901 -1.5334
18396TIP3    H276604   5.518   6.578   4.788 -1.8767  0.6513  2.2444
18397TIP3   OH276605   6.351   5.360  16.845 -0.5940 -0.0759  0.3228
18397TIP3    H176606   6.275   5.353  16.902 -1.7792 -0.3906 -1.2241
18397TIP3    H276607   6.361   5.454  16.830 -0.9186 -0.0576  0.2195
18398TIP3   OH276608   4.465   6.645   1.270 -0.1864  0.1015  0.1668
18398TIP3    H176609   4.483   6.604   1.186 -2.2014 -1.2449  0.3219
18398TIP3    H276610   4.384   6.695   1.256 -0.1177  0.4937  1.0966
18399TIP3   OH276611   6.813   4.460  15.718  0.3877  0.8196  0.4593
18399TIP3    H176612   6.771   4.504  15.644 -0.5032 -3.5011 -1.9306
18399TIP3    H276613   6.906   4.458  15.695  0.1134 -0.5112 -0.6325
18400TIP3   OH276614   2.289   0.004   4.387  0.0725 -0.0683  0.2592
18400TIP3    H176615   2.312  -0.084   4.418 -0.4584 -0.3351 -0.0821
18400TIP3    H276616   2.322   0.006   4.297  0.1538  0.1085  0.2935
18401TIP3   OH276617   0.373   0.374  15.569  0.2530 -0.1783  0.1509
18401TIP3    H176618   0.434   0.448  15.564 -0.0300 -0.0002 -1.0841
18401TIP3    H276619   0.287   0.413  15.582 -0.0106 -0.2150 -1.3433
18402TIP3   OH276620   1.048   4.575   0.846 -0.2065  0.3048  0.4801
18402TIP3    H176621   1.034   4.516   0.772  0.6268  0.6652  0.0233
18402TIP3    H276622   1.141   4.598   0.841 -0.4440  1.4053  0.8286
18403TIP3   OH276623   2.435   3.861   1.611 -0.1376 -0.3031  0.2972
18403TIP3    H176624   2.487   3.787   1.644 -0.8405  0.2273  2.8130
18403TIP3    H276625   2.350   3.823   1.591 -0.0110 -0.4501  0.0293
18404TIP3   OH276626   2.841   5.679  13.986 -0.6172  0.7072 -0.4219
18404TIP3    H176627   2.875   5.600  14.029  0.5230  2.2038  1.5951
18404TIP3    H276628   2.747   5.677  14.005 -0.4078  0.4305  0.6494
18405TIP3   OH276629   5.941   6.470  10.441 -0.0197 -0.0630  0.5952
18405TIP3    H176630   5.964   6.532  10.372  0.1076 -0.8944 -0.1264
18405TIP3    H276631   6.014   6.408  10.443  0.2427  0.2489  1.8635
18406TIP3   OH276632   3.541   5.118  14.592 -0.2716 -0.1518 -0.5861
18406TIP3    H176633   3.456   5.142  14.629 -0.3674 -1.2186 -0.0978
18406TIP3    H276634   3.598   5.191  14.617 -0.6571 -0.2024  0.5086
18407TIP3   OH276635   3.827   5.166   2.622 -0.3615 -0.6009  0.0097
18407TIP3    H176636   3.890   5.200   2.558 -0.7277 -1.4636 -0.8266
18407TIP3    H276637   3.851   5.210   2.704  0.4876  0.0816 -0.5782
18408TIP3   OH276638   4.818   2.847  12.052  0.0308 -0.5496 -0.6075
18408TIP3    H176639   4.790   2.805  12.134 -1.3631  0.3312 -0.5996
18408TIP3    H276640   4.769   2.801  11.984  1.0579 -1.1655 -0.9507
18409TIP3   OH276641   3.666   4.311   5.839 -0.3065 -0.1340 -0.0218
18409TIP3    H176642   3.679   4.405   5.829  1.1458 -0.5193 -2.3555
18409TIP3    H276643   3.755   4.275   5.841 -0.8324 -1.4618  1.2726
18410TIP3   OH276644   3.820   5.441  15.007  0.0252 -0.0433  0.3213
18410TIP3    H176645   3.732   5.445  15.044 -0.0886  1.4768 -0.0397
18410TIP3    H276646   3.864   5.371  15.055 -1.4114 -0.9167  0.4141
18411TIP3   OH276647   1.860   6.768  13.217 -0.1603 -0.2190 -0.2854
18411TIP3    H176648   1.806   6.704  13.264  1.2243 -1.7779 -0.7260
18411TIP3    H276649   1.940   6.721  13.194  2.1617  2.3792  1.6964
18412TIP3   OH276650   5.868   3.075  10.650 -0.3128  0.2364  0.0967
18412TIP3    H176651   5.887   3.001  10.707 -0.1470  0.2886  0.1099
18412TIP3    H276652   5.953   3.116  10.634 -0.6445  1.7497  1.8855
18413TIP3   OH276653   6.205   3.185   1.345  0.5203 -0.0558  0.0186
18413TIP3    H176654   6.154   3.168   1.266  0.0246 -1.1332  0.5458
18413TIP3    H276655   6.147   3.160   1.417  1.9315 -1.8541  0.6341
18414TIP3   OH276656   2.518   4.564   3.602 -0.3956 -0.3184 -0.0564
18414TIP3    H176657   2.575   4.496   3.565 -0.2735 -0.3651  0.2143
18414TIP3    H276658   2.431   4.543   3.570 -0.1637  0.1377 -1.0285
18415TIP3   OH276659   1.913   3.372  12.921 -0.2057  0.2598  0.4621
18415TIP3    H176660   1.957   3.332  12.996  1.4310  0.5140 -0.3180
18415TIP3    H276661   1.983   3.419  12.875 -1.2089  0.2807 -1.0983
18416TIP3   OH276662   1.493   3.581  14.093  0.1935 -0.1047  0.0891
18416TIP3    H176663   1.417   3.558  14.146  0.8470  1.2263  1.7140
18416TIP3    H276664   1.566   3.535  14.134  0.3982 -0.7601 -0.9820
18417TIP3   OH276665   5.120   1.938   1.625  0.0340 -0.1532 -0.1728
18417TIP3    H176666   5.141   1.889   1.704  0.0372  1.0953  0.6187
18417TIP3    H276667   5.195   1.996   1.611 -1.2756  1.8769  0.7259
18418TIP3   OH276668   1.761   3.696  13.653  0.3251 -0.0587  0.0140
18418TIP3    H176669   1.839   3.661  13.609 -0.5822  0.1742 -1.8779
18418TIP3    H276670   1.739   3.774  13.603 -0.2690  0.7345  1.4695
18419TIP3   OH276671   2.966   0.630   6.180  0.1521 -0.7568 -0.0446
18419TIP3    H176672   2.932   0.658   6.095 -0.0254 -0.7749  0.0213
18419TIP3    H276673   2.972   0.535   6.172 -2.3987 -1.0718  0.8821
18420TIP3   OH276674   0.698   0.489   5.935 -0.6677  0.2241 -0.1609
18420TIP3    H176675   0.730   0.412   5.888  0.1203  0.3078  0.2204
18420TIP3    H276676   0.770   0.513   5.994 -0.5009  1.8133 -0.9344
18421TIP3   OH276677   4.839   3.808   3.830  0.1529 -0.2703 -0.2492
18421TIP3    H176678   4.794   3.788   3.748  1.5447 -3.3338 -0.4284
18421TIP3    H276679   4.818   3.735   3.888 -1.5358  2.2506  2.5895
18422TIP3   OH276680   1.454   0.013   4.102  0.2209 -0.2915  0.3197
18422TIP3    H176681   1.532   0.056   4.136 -0.4951  0.4495  1.0694
18422TIP3    H276682   1.425   0.070   4.030  0.9506 -1.1286 -0.6731
18423TIP3   OH276683   0.699   3.306  11.333 -0.2072  0.0816  0.1938
18423TIP3    H176684   0.691   3.212  11.316  0.7076  0.0441 -0.0903
18423TIP3    H276685   0.655   3.319  11.417 -0.0754 -0.6562  0.3853
18424TIP3   OH276686   0.713   3.717  13.714 -0.4972  0.0684 -0.2190
18424TIP3    H176687   0.701   3.642  13.657  0.3261  1.3481 -2.1947
18424TIP3    H276688   0.743   3.680  13.797 -0.3943 -1.7738 -1.0324
18425TIP3   OH276689   2.503   5.313  12.488 -0.3369 -0.6584  0.6898
18425TIP3    H176690   2.437   5.253  12.522 -2.6565  0.2926 -1.8119
18425TIP3    H276691   2.483   5.397  12.529  0.2669 -0.6665  1.0142
18426TIP3   OH276692   4.982   0.361  12.982 -0.2279  0.4455  0.0709
18426TIP3    H176693   5.058   0.320  13.023 -0.4186  1.4646  1.4977
18426TIP3    H276694   4.912   0.295  12.990  0.0490  0.1804  0.3403
18427TIP3   OH276695   3.294   4.922   6.886  0.3716 -0.5859  0.4901
18427TIP3    H176696   3.307   4.880   6.801  1.7075 -0.5315  0.6474
18427TIP3    H276697   3.349   4.872   6.946 -1.2493 -1.1892  1.5301
18428TIP3   OH276698   2.432   3.662  16.265  0.0602 -0.1931 -0.1332
18428TIP3    H176699   2.454   3.630  16.178 -0.4660  0.9778 -0.7190
18428TIP3    H276700   2.513   3.702  16.297  0.0541  0.0384 -0.4014
18429TIP3   OH276701   1.871   4.347   0.908 -0.2917 -0.0915  0.6972
18429TIP3    H176702   1.952   4.323   0.862 -1.3915 -0.5984 -1.0838
18429TIP3    H276703   1.839   4.424   0.862  0.5683  1.8820  3.1832
18430TIP3   OH276704   6.320   5.510  15.306 -0.0603  0.3889  0.5293
18430TIP3    H176705   6.386   5.511  15.236  0.5835 -2.1078  0.9968
18430TIP3    H276706   6.307   5.417  15.325 -2.2063  0.9032  1.9145
18431TIP3   OH276707   1.518   6.319  11.521  0.6130 -0.4577  0.2418
18431TIP3    H176708   1.473   6.242  11.487  1.2985 -0.7508 -0.0061
18431TIP3    H276709   1.482   6.331  11.609 -0.5343 -0.2121 -0.2282
18432TIP3   OH276710   0.209   0.700  12.178  0.1701 -0.5644  0.3104
18432TIP3    H176711   0.251   0.676  12.261 -0.1635 -0.6042  0.4694
18432TIP3    H276712   0.216   0.795  12.174 -0.9165 -0.4369  0.9905
18433TIP3   OH276713   1.989   4.058   5.181  0.7926 -0.8891 -0.6923
18433TIP3    H176714   1.928   4.131   5.183 -0.2829 -1.7711 -0.6077
18433TIP3    H276715   1.943   3.986   5.224  2.3569 -1.2272  0.5073
18434TIP3   OH276716   0.183   0.730   4.005 -0.1336  0.2885 -0.0744
18434TIP3    H176717   0.235   0.732   4.085  0.3271 -2.0833 -0.2400
18434TIP3    H276718   0.244   0.756   3.936 -1.1608  4.9690  0.4709
18435TIP3   OH276719   0.566   3.056   5.548  0.2908 -0.4466 -0.4947
18435TIP3    H176720   0.502   2.995   5.586  0.4203 -0.1560  0.2129
18435TIP3    H276721   0.646   3.004   5.540  0.3602 -0.4133 -0.0331
18436TIP3   OH276722   4.301   3.012   1.175 -0.3200  0.1369 -0.0658
18436TIP3    H176723   4.334   2.984   1.090 -0.2210  0.8085 -0.2472
18436TIP3    H276724   4.301   3.107   1.172 -0.4736  0.1678  0.6261
18437TIP3   OH276725   0.967   5.649   1.228 -0.0461  0.0163 -0.4808
18437TIP3    H176726   0.872   5.644   1.235 -0.1923  1.7180 -0.8069
18437TIP3    H276727   0.983   5.656   1.134  0.6004 -2.5503 -0.6536
18438TIP3   OH276728   6.106   4.026  13.811 -0.0212  0.0406  0.5211
18438TIP3    H176729   6.013   4.005  13.818  0.0446 -0.1221  0.9802
18438TIP3    H276730   6.110   4.121  13.811 -0.3280  0.0939 -1.6006
18439TIP3   OH276731   0.501   3.684  16.022  0.1525 -0.7286 -0.2034
18439TIP3    H176732   0.472   3.637  15.943 -0.5233  0.4712 -0.6955
18439TIP3    H276733   0.451   3.766  16.021  1.4938  0.1302  0.4901
18440TIP3   OH276734   3.337   1.411   4.804  0.5419 -0.3233 -0.0388
18440TIP3    H176735   3.323   1.506   4.806  0.9120 -0.2012 -1.6279
18440TIP3    H276736   3.263   1.377   4.753 -0.1328 -1.0441  1.3384
18441TIP3   OH276737   3.683   5.596   4.414 -0.3749  0.1070  0.0258
18441TIP3    H176738   3.696   5.573   4.322 -0.3692  1.1205 -0.2463
18441TIP3    H276739   3.628   5.675   4.410 -0.9248 -0.2176  0.9154
18442TIP3   OH276740   3.069   4.361  13.263  0.6450 -0.1775 -0.2760
18442TIP3    H176741   3.044   4.416  13.188  0.1238 -0.7754 -0.5450
18442TIP3    H276742   3.026   4.277  13.247  0.1421 -0.1638  0.9420
18443TIP3   OH276743   6.178   2.672  12.369 -0.3767 -0.4752  0.6423
18443TIP3    H176744   6.239   2.645  12.438 -1.3719  2.4786  2.8836
18443TIP3    H276745   6.235   2.705  12.299  0.6302 -1.7748  0.8059
18444TIP3   OH276746   2.616   0.390  15.519 -0.4359 -0.3617  0.2560
18444TIP3    H176747   2.571   0.306  15.506  0.3191 -0.4312 -2.2743
18444TIP3    H276748   2.708   0.372  15.501 -0.2356  0.9847 -0.1823
18445TIP3   OH276749   0.771   5.689  13.724 -0.4416 -0.2025 -0.8379
18445TIP3    H176750   0.847   5.668  13.778 -0.8997 -1.4295 -0.6456
18445TIP3    H276751   0.700   5.637  13.761 -1.6402  1.6733 -0.3793
18446TIP3   OH276752   0.749   4.777   3.060  0.6791 -0.3373  0.3195
18446TIP3    H176753   0.773   4.701   3.113  1.6193  0.2059  0.6833
18446TIP3    H276754   0.832   4.812   3.027  0.0900 -1.1613 -2.2722
18447TIP3   OH276755   3.047   1.101  12.131  0.3054 -0.5621 -0.2180
18447TIP3    H176756   3.013   1.065  12.050 -0.5208  1.3423 -0.7753
18447TIP3    H276757   3.139   1.075  12.133  0.0688 -1.5008 -1.2323
18448TIP3   OH276758   2.804   5.977   1.829  0.5681  0.4518  0.4794
18448TIP3    H176759   2.725   6.023   1.857  0.7447  0.8640  0.3034
18448TIP3    H276760   2.774   5.918   1.759  0.3699  0.4209  0.5918
18449TIP3   OH276761   3.980   5.170  17.092  0.0118  0.0310 -0.0457
18449TIP3    H176762   3.931   5.195  17.171  0.6591  1.4624 -0.0557
18449TIP3    H276763   3.963   5.242  17.030  0.8886 -0.2132 -0.5871
18450TIP3   OH276764   5.354   2.452  16.466  0.1625 -0.5008 -0.0245
18450TIP3    H176765   5.345   2.459  16.371  0.7894  0.6711 -0.0258
18450TIP3    H276766   5.281   2.397  16.494 -2.0245  1.7458 -0.8594
18451TIP3   OH276767   3.975   5.579  13.541 -0.5840 -0.2638  0.0336
18451TIP3    H176768   3.926   5.550  13.617 -1.2451  0.3621 -0.1382
18451TIP3    H276769   3.915   5.638  13.495  0.3531  0.5917 -0.1402
18452TIP3   OH276770   3.629   4.389   3.058 -0.4895 -0.3791 -0.2719
18452TIP3    H176771   3.649   4.436   3.139  0.5814 -1.8398  0.3649
18452TIP3    H276772   3.535   4.372   3.062 -0.3338 -1.0438  1.0231
18453TIP3   OH276773   6.572   5.913  11.951 -0.0388  0.0282 -0.2792
18453TIP3    H176774   6.522   5.967  12.013  1.1912  0.0788  0.7128
18453TIP3    H276775   6.663   5.922  11.979  0.5925  0.1573 -2.1998
18454TIP3   OH276776   0.500   0.457  13.972  0.1146  0.3562 -0.3946
18454TIP3    H176777   0.549   0.414  13.903  1.0936  0.2632  0.3386
18454TIP3    H276778   0.456   0.530  13.929 -1.0136 -0.9364 -1.5282
18455TIP3   OH276779   3.417   2.106   1.565  0.1429  0.2189 -0.8362
18455TIP3    H176780   3.440   2.143   1.650 -0.3661 -0.1071 -0.5449
18455TIP3    H276781   3.492   2.124   1.509 -0.0577  1.5873 -0.6813
18456TIP3   OH276782   5.062   5.197  15.737 -0.5797  0.1730  0.7013
18456TIP3    H176783   4.985   5.144  15.718 -1.0291  1.3332 -0.9040
18456TIP3    H276784   5.038   5.249  15.814 -1.0996 -0.0222  0.6710
18457TIP3   OH276785   0.159   1.153  14.049 -0.0936 -0.8513  1.0665
18457TIP3    H176786   0.068   1.141  14.076  0.4477 -3.0814  2.0996
18457TIP3    H276787   0.181   1.073  14.002  0.3424  1.1051 -2.4174
18458TIP3   OH276788   4.852   3.190   0.021 -0.3130  0.8126 -0.7883
18458TIP3    H176789   4.874   3.111   0.070  1.2728  1.4836 -0.3873
18458TIP3    H276790   4.809   3.247   0.084 -0.5632  0.6737 -0.8306
18459TIP3   OH276791   4.008   1.075   0.477  0.5507  0.0484  0.8115
18459TIP3    H176792   4.064   0.999   0.485  2.4019  1.1812 -0.6366
18459TIP3    H276793   3.983   1.077   0.385 -0.6432  0.4231  1.1232
18460TIP3   OH276794   4.278   5.592  12.544 -0.0145  0.6354 -0.4315
18460TIP3    H176795   4.245   5.519  12.491 -1.4879  0.6240  0.4553
18460TIP3    H276796   4.201   5.645  12.562  1.1761  3.0916 -1.9839
18461TIP3   OH276797   3.636   1.973  15.275  0.1808 -0.3421 -0.1040
18461TIP3    H176798   3.716   2.025  15.287 -0.4431  0.6544 -0.1429
18461TIP3    H276799   3.584   2.023  15.212 -1.0584 -0.2699  0.9423
18462TIP3   OH276800   3.321   0.974  16.167 -0.4950 -0.0463 -0.1063
18462TIP3    H176801   3.364   1.059  16.162  1.0569 -0.8485 -1.4890
18462TIP3    H276802   3.316   0.955  16.261 -1.5852  1.8800  0.2631
18463TIP3   OH276803   6.140   2.957   5.781  0.0349  0.3464 -0.3097
18463TIP3    H176804   6.156   3.011   5.703 -1.0324 -0.0193 -0.7915
18463TIP3    H276805   6.113   3.019   5.848  0.7198  0.6345 -0.2901
18464TIP3   OH276806   0.310   1.195   0.963 -0.3806 -0.0163 -0.1939
18464TIP3    H176807   0.383   1.234   0.914  1.3177 -3.0613 -0.3014
18464TIP3    H276808   0.275   1.128   0.904  0.7483 -2.7410  2.0047
18465TIP3   OH276809   1.815   1.964   4.229  0.7448 -0.0103 -0.5399
18465TIP3    H176810   1.752   1.976   4.157  0.2525 -1.0828 -0.3160
18465TIP3    H276811   1.760   1.952   4.307  1.2836  2.0724  0.2176
18466TIP3   OH276812   3.853   2.837  16.712 -0.2089 -0.3806  0.0682
18466TIP3    H176813   3.883   2.866  16.799  1.0931 -2.0309  0.2184
18466TIP3    H276814   3.910   2.883  16.651 -0.5010  0.0608  0.1232
18467TIP3   OH276815   1.424   1.759   0.365 -0.1564  0.0651  0.4014
18467TIP3    H176816   1.457   1.735   0.278  0.4923  2.1338  0.0086
18467TIP3    H276817   1.499   1.802   0.407 -0.2659 -1.4586  2.2638
18468TIP3   OH276818   5.196   5.836   3.886 -0.6217 -0.0473  0.0328
18468TIP3    H176819   5.143   5.898   3.936 -1.1622  0.0762 -0.6905
18468TIP3    H276820   5.279   5.832   3.934 -1.1792 -0.0382  1.0143
18469TIP3   OH276821   1.998   6.812   2.232 -0.3149 -0.6253  0.0563
18469TIP3    H176822   2.059   6.861   2.176  0.5929 -3.9309 -2.1319
18469TIP3    H276823   2.053   6.780   2.304 -0.6438  0.5478  0.8425
18470TIP3   OH276824   4.565   3.786   5.912 -0.5708 -0.4419 -0.1983
18470TIP3    H176825   4.616   3.711   5.884 -0.0509  0.2896 -1.2971
18470TIP3    H276826   4.621   3.832   5.974 -0.1272  0.0125 -0.9174
18471TIP3   OH276827   6.747   5.006   3.194 -0.2744  0.1185  0.4335
18471TIP3    H176828   6.668   4.953   3.180 -0.4450  0.6907 -0.9124
18471TIP3    H276829   6.819   4.948   3.167 -0.4076  0.2929 -0.3345
18472TIP3   OH276830   1.110   3.712   1.256  0.3832 -0.1713 -0.5922
18472TIP3    H176831   1.171   3.719   1.183  0.6386  0.8682 -0.3061
18472TIP3    H276832   1.033   3.761   1.228  0.7880  0.9025  0.1173
18473TIP3   OH276833   0.550   0.029   3.985  0.0961 -0.1796  1.0381
18473TIP3    H176834   0.609  -0.046   3.976 -0.9457 -0.9336  0.3097
18473TIP3    H276835   0.500   0.010   4.065 -2.4998 -2.0075 -0.8589
18474TIP3   OH276836   3.686   4.883   3.946  0.0289 -0.1003 -0.4433
18474TIP3    H176837   3.619   4.821   3.976 -0.6486  1.9910  2.8880
18474TIP3    H276838   3.648   4.969   3.960  2.3181  1.1567 -1.3352
18475TIP3   OH276839   2.253   3.417  13.162 -0.0710  0.1815  0.5599
18475TIP3    H176840   2.308   3.427  13.084 -0.8082 -0.9135 -0.1227
18475TIP3    H276841   2.243   3.506  13.195  0.3129  0.6613 -0.5573
18476TIP3   OH276842   0.152   2.419  14.222 -0.3699 -0.2848  0.0914
18476TIP3    H176843   0.197   2.502  14.204 -0.8217 -0.1116 -0.2779
18476TIP3    H276844   0.087   2.412  14.152 -1.1027 -0.3907  0.7653
18477TIP3   OH276845   1.754   4.386  16.321 -0.0064 -0.9145  0.1267
18477TIP3    H176846   1.790   4.337  16.247 -3.5689  0.8602 -3.1246
18477TIP3    H276847   1.671   4.343  16.339 -1.1195  1.1710  0.2216
18478TIP3   OH276848   5.919   3.684   5.675 -0.2067  0.0327  0.2596
18478TIP3    H176849   5.852   3.659   5.611 -1.2630 -0.5950  1.5468
18478TIP3    H276850   5.975   3.606   5.682 -1.5223 -0.8558  1.8053
18479TIP3   OH276851   0.419   4.933   2.783  0.1263  0.1918  1.1237
18479TIP3    H176852   0.493   4.993   2.772 -0.8833  1.1373 -1.2179
18479TIP3    H276853   0.407   4.895   2.695 -2.7067  0.7576  1.1911
18480TIP3   OH276854   5.183   5.434  12.134 -0.1007 -0.4399 -0.5761
18480TIP3    H176855   5.164   5.485  12.213  0.8225  0.1392 -0.7160
18480TIP3    H276856   5.166   5.494  12.061  2.6085  0.2972 -0.7033
18481TIP3   OH276857   0.537   4.508  15.559 -0.0880  0.3140  0.1108
18481TIP3    H176858   0.550   4.566  15.484  0.0105  2.7037  1.8712
18481TIP3    H276859   0.485   4.559  15.620 -1.4264 -2.0971  1.1440
18482TIP3   OH276860   6.160   4.153  12.103  0.5905  0.1581 -0.5387
18482TIP3    H176861   6.159   4.179  12.195  1.0771  0.9727 -0.7543
18482TIP3    H276862   6.091   4.088  12.096 -2.2644  2.9518 -0.4230
18483TIP3   OH276863   4.565   0.019   4.600 -0.1830 -0.0658 -0.0229
18483TIP3    H176864   4.567   0.001   4.506  0.0049  1.9383 -0.4487
18483TIP3    H276865   4.489  -0.030   4.632 -1.5662  0.8994 -1.6287
18484TIP3   OH276866   0.735   1.306   1.069  0.2043 -0.4632  0.4285
18484TIP3    H176867   0.749   1.362   1.145 -1.0667  0.3759  0.0728
18484TIP3    H276868   0.755   1.218   1.101 -1.0859 -0.2439  1.9963
18485TIP3   OH276869   2.512   1.245  16.181 -0.1739 -0.4170  0.6223
18485TIP3    H176870   2.461   1.325  16.193 -0.3278 -0.4563  0.2416
18485TIP3    H276871   2.483   1.211  16.097  1.2574  0.1316 -0.1207
18486TIP3   OH276872   2.375   0.227  15.416 -0.3524  0.4069 -0.4685
18486TIP3    H176873   2.438   0.170  15.373  0.1894 -0.2750  1.1248
18486TIP3    H276874   2.289   0.198  15.383  0.0721  0.3742 -1.5658
18487TIP3   OH276875   1.832   3.207  15.794  0.1429  0.4818  0.6438
18487TIP3    H176876   1.909   3.162  15.828 -1.0127 -0.9969  1.3945
18487TIP3    H276877   1.821   3.282  15.852  1.5058  1.2244 -0.0069
18488TIP3   OH276878   2.240   5.261  16.441 -0.2028  0.6118 -0.1269
18488TIP3    H176879   2.246   5.237  16.349  1.1249  2.7909 -0.6870
18488TIP3    H276880   2.306   5.207  16.484  0.1591  0.5920 -0.6983
18489TIP3   OH276881   3.520   3.864  16.693  0.0185  0.0397 -0.1608
18489TIP3    H176882   3.472   3.897  16.618 -0.2244  0.2099  0.0685
18489TIP3    H276883   3.452   3.836  16.754  0.1662  1.6772  0.8095
18490TIP3   OH276884   0.087   2.657   2.153 -0.3659  0.1295  0.3363
18490TIP3    H176885   0.121   2.676   2.066 -1.9266  0.2218 -0.2832
18490TIP3    H276886   0.118   2.568   2.171  0.6614  0.4149  0.0577
18491TIP3   OH276887   3.049   4.922   5.035 -0.1471 -0.0046 -0.0580
18491TIP3    H176888   3.102   4.845   5.056  0.1676 -0.8207 -3.3445
18491TIP3    H276889   2.959   4.894   5.048  0.0176 -0.5225 -0.0295
18492TIP3   OH276890   6.421   4.423  15.751  0.0478 -0.3950  0.0480
18492TIP3    H176891   6.392   4.388  15.835 -0.4623 -2.1248 -0.7764
18492TIP3    H276892   6.480   4.355  15.717 -0.4428 -0.1509 -1.3517
18493TIP3   OH276893   5.976   5.312   4.434 -0.1403 -0.5952  0.2769
18493TIP3    H176894   5.963   5.317   4.340 -0.3098  0.9946  0.3569
18493TIP3    H276895   5.986   5.219   4.452  1.2386 -0.8449 -1.4867
18494TIP3   OH276896   2.914   6.220  15.990 -0.3326 -0.0918  0.2583
18494TIP3    H176897   2.992   6.180  16.031  0.5100 -0.0188 -1.2103
18494TIP3    H276898   2.941   6.238  15.900 -1.3043  2.1147  0.3525
18495TIP3   OH276899   4.125   2.244   2.755 -0.1294 -0.2765  0.0343
18495TIP3    H176900   4.178   2.171   2.789 -1.9089 -1.3662  0.6304
18495TIP3    H276901   4.163   2.263   2.670  1.6510 -0.5266  0.7316
18496TIP3   OH276902   6.200   3.901   3.486 -0.2784  0.3910 -0.0118
18496TIP3    H176903   6.130   3.966   3.494 -0.7323  0.0222 -0.8625
18496TIP3    H276904   6.193   3.869   3.396 -0.9250 -1.7950  0.7526
18497TIP3   OH276905   2.273   0.726  14.275  0.2579  0.6157  0.0817
18497TIP3    H176906   2.195   0.673  14.260  0.0183  1.3978 -1.6674
18497TIP3    H276907   2.240   0.816  14.281  1.0302  1.0405 -1.3706
18498TIP3   OH276908   1.594   3.267  13.760 -0.1459 -0.0184  0.1492
18498TIP3    H176909   1.519   3.323  13.739 -0.5607 -1.0965 -1.5014
18498TIP3    H276910   1.653   3.277  13.684  2.2227  2.0142  2.0683
18499TIP3   OH276911   6.147   2.989   0.928 -0.5188 -0.0893  0.3498
18499TIP3    H176912   6.149   2.898   0.958 -2.7614 -1.2298 -2.5132
18499TIP3    H276913   6.221   2.997   0.869 -0.5145 -0.1475  0.3475
18500TIP3   OH276914   2.150   3.900   4.545 -0.1705 -0.1149  0.5046
18500TIP3    H176915   2.224   3.917   4.604 -0.0891 -0.5500  0.5335
18500TIP3    H276916   2.095   3.978   4.552  1.0381  0.8858 -0.6683
18501TIP3   OH276917   4.954   0.917  14.143 -0.3793 -0.1303 -0.4846
18501TIP3    H176918   4.988   0.858  14.076  1.1286 -2.7475  2.3629
18501TIP3    H276919   4.862   0.893  14.151  0.1102 -1.9111  0.3170
18502TIP3   OH276920   0.820   0.387  15.860  0.4715  0.2552  1.1573
18502TIP3    H176921   0.779   0.468  15.890 -1.5146 -0.7806  1.4451
18502TIP3    H276922   0.911   0.411  15.842 -0.4747  2.9933 -0.6079
18503TIP3   OH276923   6.695   1.746  17.044  0.5647  0.3464  0.2703
18503TIP3    H176924   6.668   1.827  17.000 -1.8138 -1.1984 -1.3163
18503TIP3    H276925   6.683   1.765  17.137 -1.4158  1.3685 -0.1357
18504TIP3   OH276926   1.782   4.762   2.066 -0.2363  0.2275  0.2432
18504TIP3    H176927   1.772   4.743   2.160 -2.1823 -2.0747 -0.3022
18504TIP3    H276928   1.692   4.773   2.035  0.1570 -1.4335 -1.7176
18505TIP3   OH276929   4.960   6.328   0.510 -0.0708 -0.1792  0.5322
18505TIP3    H176930   5.050   6.296   0.523 -0.1900 -0.1308  1.6517
18505TIP3    H276931   4.906   6.261   0.552 -0.7287 -1.1846 -1.7711
18506TIP3   OH276932   6.025   6.164   4.156  0.5611 -0.0582  0.4477
18506TIP3    H176933   5.935   6.167   4.187  0.2524  2.8343 -0.4298
18506TIP3    H276934   6.077   6.197   4.229  0.2281  3.2976 -0.6763
18507TIP3   OH276935   5.672   1.117  12.253 -0.4429 -0.1158  0.4636
18507TIP3    H176936   5.735   1.059  12.297 -1.9527 -1.7448  0.6161
18507TIP3    H276937   5.606   1.057  12.217 -1.0594  1.4134 -1.0816
18508TIP3   OH276938   0.018   2.432   5.413  0.0457  0.3335 -0.0421
18508TIP3    H176939  -0.075   2.430   5.393  0.4827  3.2940 -3.6300
18508TIP3    H276940   0.036   2.525   5.433  2.2626 -0.1230  0.3914
18509TIP3   OH276941   6.002   4.429  14.802  0.0147 -0.5303  0.1842
18509TIP3    H176942   5.920   4.382  14.787 -1.2297  1.0430  1.6150
18509TIP3    H276943   5.997   4.459  14.893  1.1218  1.5431 -0.3611
18510TIP3   OH276944   2.680   3.130  13.841 -0.0106  0.1702  0.0658
18510TIP3    H176945   2.706   3.038  13.840 -0.4309  0.0345  0.7312
18510TIP3    H276946   2.706   3.161  13.928  0.6000  0.8254 -0.3399
18511TIP3   OH276947   4.084   6.337  12.643  0.2938  0.6753 -0.0837
18511TIP3    H176948   4.178   6.357  12.635  1.3774 -2.4358  2.5849
18511TIP3    H276949   4.061   6.366  12.731 -0.2376 -1.7494  0.6432
18512TIP3   OH276950   4.632   1.940  12.325  0.4616 -0.3415  0.1024
18512TIP3    H176951   4.706   1.976  12.374  0.9604 -1.0487 -0.1167
18512TIP3    H276952   4.653   1.959  12.233  0.3944 -0.5813  0.0359
18513TIP3   OH276953   1.872   6.370  15.346  0.5921  0.4238  0.0883
18513TIP3    H176954   1.855   6.450  15.395 -1.2041 -0.1880  0.5764
18513TIP3    H276955   1.785   6.340  15.319  1.2169 -1.3213 -0.1288
18514TIP3   OH276956   3.877   4.752   5.987 -0.1220  0.3687 -0.0071
18514TIP3    H176957   3.854   4.837   5.950 -0.7265  0.4934  0.6197
18514TIP3    H276958   3.837   4.753   6.074 -1.2118 -1.0544 -0.4717
18515TIP3   OH276959   2.647   6.231  12.866  0.1284 -0.1663 -0.6897
18515TIP3    H176960   2.733   6.253  12.902 -0.4206  1.7770 -0.4281
18515TIP3    H276961   2.612   6.315  12.834 -1.8889 -0.7961 -0.2956
18516TIP3   OH276962   0.170   6.472   1.035 -0.3340 -0.2427 -0.2275
18516TIP3    H176963   0.091   6.433   0.998 -0.5938 -0.1423  0.2034
18516TIP3    H276964   0.143   6.504   1.121  0.2396 -0.4312  0.0303
18517TIP3   OH276965   4.880   4.686   1.840  0.5642 -0.2264 -0.8097
18517TIP3    H176966   4.962   4.652   1.806  0.2935 -0.2065 -1.5025
18517TIP3    H276967   4.824   4.697   1.763 -0.1268 -0.3410 -0.3417
18518TIP3   OH276968   0.682   6.187   1.294  0.6259 -0.2810  0.0481
18518TIP3    H176969   0.661   6.217   1.206  0.9350  1.3948  0.5115
18518TIP3    H276970   0.617   6.119   1.312  0.8024 -0.9315 -1.5920
18519TIP3   OH276971   3.237   6.291  15.014 -0.1866 -0.7811  0.2525
18519TIP3    H176972   3.205   6.234  15.084  0.5646 -0.9938  0.4239
18519TIP3    H276973   3.223   6.380  15.048 -0.3379 -0.8758  0.4421
18520TIP3   OH276974   5.404   1.459  11.308  0.0945 -0.7231  0.1295
18520TIP3    H176975   5.491   1.497  11.317  0.1563 -0.8408  0.0295
18520TIP3    H276976   5.365   1.507  11.235 -0.0962 -0.3488  0.4743
18521TIP3   OH276977   6.132   3.036  13.488  0.3398 -0.5684 -0.8921
18521TIP3    H176978   6.043   3.050  13.518  0.5806 -3.2164  1.4471
18521TIP3    H276979   6.135   2.944  13.461  2.9406 -1.4049  1.7785
18522TIP3   OH276980   3.277   4.910   4.253  0.5138 -0.4626 -0.5976
18522TIP3    H176981   3.284   4.988   4.309 -2.7425  0.2133 -0.9427
18522TIP3    H276982   3.290   4.836   4.313  0.5008  0.2946  0.3669
18523TIP3   OH276983   1.186   0.300  16.910  0.3850 -0.2998  0.9023
18523TIP3    H176984   1.100   0.263  16.892  0.1189  1.4344 -1.9860
18523TIP3    H276985   1.245   0.225  16.913 -0.6145 -1.2499 -1.3811
18524TIP3   OH276986   5.890   6.365  16.261  0.2175 -0.1066 -0.0302
18524TIP3    H176987   5.832   6.410  16.200 -0.1795 -0.9611 -0.3100
18524TIP3    H276988   5.913   6.431  16.326 -0.0414  0.5886 -0.6260
18525TIP3   OH276989   5.574   5.112   2.664  0.4236  0.0357 -0.8965
18525TIP3    H176990   5.574   5.020   2.691 -2.7221  0.1198 -0.2871
18525TIP3    H276991   5.657   5.123   2.618  1.1049 -2.9727 -0.5980
18526TIP3   OH276992   1.713   3.058  15.534  0.6941 -0.1849 -0.1916
18526TIP3    H176993   1.619   3.066  15.551  0.7501 -1.6526  1.0114
18526TIP3    H276994   1.721   2.977  15.483  1.2607  0.2847 -0.8726
18527TIP3   OH276995   3.626   0.670   4.243 -0.0370 -0.7255  0.2378
18527TIP3    H176996   3.648   0.667   4.336  3.1558 -1.1384 -0.4101
18527TIP3    H276997   3.670   0.749   4.211  0.4517 -1.5476 -1.2038
18528TIP3   OH276998   0.843   3.261   6.164 -0.5926  0.6085  0.1658
18528TIP3    H176999   0.937   3.275   6.153 -0.5112  0.4363  0.6501
18528TIP3    H277000   0.829   3.262   6.259 -1.0878  0.6887  0.0956
18529TIP3   OH277001   3.273   2.562  16.455  0.5568  0.3431  0.0467
18529TIP3    H177002   3.233   2.475  16.455 -1.3775  1.1268 -2.0647
18529TIP3    H277003   3.342   2.557  16.521 -1.9269 -1.6514  2.7582
18530TIP3   OH277004   5.794   2.648   5.781  0.1145 -0.6450 -0.0774
18530TIP3    H177005   5.866   2.652   5.843 -0.0273  2.0915  0.0577
18530TIP3    H277006   5.719   2.618   5.833  0.0068  1.5367  1.1990
18531TIP3   OH277007   1.172   0.923   0.589 -0.6136 -0.0751  0.2929
18531TIP3    H177008   1.133   0.854   0.534  1.5321 -1.8276  0.8274
18531TIP3    H277009   1.154   1.004   0.542 -1.9640 -1.1370 -1.1382
18532TIP3   OH277010   4.851   3.183   0.610  0.7162 -0.0866 -0.0727
18532TIP3    H177011   4.858   3.231   0.693  0.2582  1.2242 -0.7593
18532TIP3    H277012   4.841   3.252   0.544 -1.5181 -1.1402 -0.9351
18533TIP3   OH277013   3.521   3.639  15.376 -0.8710 -0.0665 -0.2732
18533TIP3    H177014   3.507   3.587  15.455 -0.9714  0.7883  0.2777
18533TIP3    H277015   3.608   3.612  15.345 -0.4584  0.2087  0.6129
18534TIP3   OH277016   3.319   1.956  11.233 -0.0670  0.5240 -0.0632
18534TIP3    H177017   3.319   2.049  11.208  1.1456  0.5267 -0.0724
18534TIP3    H277018   3.409   1.938  11.260 -0.3848 -0.5591  0.3127
18535TIP3   OH277019   5.117   2.448  14.874  0.0410 -0.5345  0.4726
18535TIP3    H177020   5.170   2.483  14.946  0.1187  1.6977 -0.5785
18535TIP3    H277021   5.076   2.525  14.835  0.5538 -1.5335 -2.3104
18536TIP3   OH277022   0.982   1.209  11.192  0.7288 -0.1975  0.2450
18536TIP3    H177023   0.913   1.275  11.194 -0.5626 -1.4992  0.1953
18536TIP3    H277024   0.951   1.144  11.130  1.5578 -1.2768  0.9364
18537TIP3   OH277025   3.692   6.179  12.165  0.3795  0.2357  0.0528
18537TIP3    H177026   3.620   6.154  12.224  1.2397 -1.4251  0.4389
18537TIP3    H277027   3.735   6.252  12.210  0.4102 -0.3534  1.0047
18538TIP3   OH277028   4.762   1.216  11.517  0.4181  1.0703  0.5403
18538TIP3    H177029   4.711   1.222  11.436 -1.6696 -1.4963  1.5014
18538TIP3    H277030   4.698   1.191  11.583  2.7274 -1.3140  2.0648
18539TIP3   OH277031   6.768   5.579  12.041 -0.0853 -0.3377 -0.2226
18539TIP3    H177032   6.684   5.535  12.028 -0.3354 -0.8361  2.4402
18539TIP3    H277033   6.752   5.639  12.114  1.9908 -0.9239  0.7913
18540TIP3   OH277034   3.953   2.823   5.448 -0.6809 -0.2670  0.0098
18540TIP3    H177035   4.009   2.776   5.386 -0.4482 -0.6069  0.4715
18540TIP3    H277036   3.890   2.758   5.478  0.5935 -0.7534  1.8234
18541TIP3   OH277037   5.261   2.400   4.808 -0.3494  0.2976  0.4631
18541TIP3    H177038   5.323   2.328   4.813 -1.7205 -1.2850 -2.4839
18541TIP3    H277039   5.239   2.419   4.900 -0.0507 -3.1774  1.4015
18542TIP3   OH277040   2.834   0.548  15.145 -0.1463 -0.1508  0.3024
18542TIP3    H177041   2.825   0.453  15.141 -0.4305 -0.1325  0.4675
18542TIP3    H277042   2.796   0.579  15.063 -3.7293  0.0658  1.8688
18543TIP3   OH277043   0.787   5.050   3.244 -0.6223 -0.4576  0.6997
18543TIP3    H177044   0.784   5.143   3.266 -0.9643 -0.1421 -0.5449
18543TIP3    H277045   0.710   5.012   3.287 -0.8359 -0.0323  0.6921
18544TIP3   OH277046   0.300   6.190  12.397 -0.2919 -0.2945  0.4585
18544TIP3    H177047   0.306   6.174  12.492 -1.7205 -2.2481  0.2667
18544TIP3    H277048   0.278   6.283  12.391 -0.2252 -0.1346  2.0358
18545TIP3   OH277049   1.126   3.607   5.676 -0.3044 -0.6385  0.3113
18545TIP3    H177050   1.063   3.559   5.730 -1.1489 -0.0735 -0.1540
18545TIP3    H277051   1.204   3.550   5.674 -0.8489 -1.4224  0.7644
18546TIP3   OH277052   5.221   1.703  15.490 -0.6853 -0.0506 -0.0710
18546TIP3    H177053   5.258   1.788  15.516 -1.1544 -0.0605  0.6585
18546TIP3    H277054   5.295   1.642  15.494 -0.6036  0.0874  0.5873
18547TIP3   OH277055   0.090   1.308  11.181  0.0649  0.4014  0.5895
18547TIP3    H177056   0.123   1.388  11.220  1.3659 -1.1467  2.8819
18547TIP3    H277057   0.046   1.262  11.252 -1.4893 -0.5225 -0.8949
18548TIP3   OH277058   2.171   4.940   2.583 -0.0399  0.0519 -0.7278
18548TIP3    H177059   2.196   5.024   2.622  1.3465 -1.5697  2.2957
18548TIP3    H277060   2.079   4.928   2.609  0.3913 -0.2613  0.7854
18549TIP3   OH277061   0.254   1.840   2.832  0.4175  0.2828 -0.0141
18549TIP3    H177062   0.299   1.850   2.748  0.5924 -0.6411 -0.0354
18549TIP3    H277063   0.225   1.749   2.834  0.2739  0.3338  0.8613
18550TIP3   OH277064   2.759   4.695  12.658  0.2159 -0.4100 -0.1310
18550TIP3    H177065   2.705   4.674  12.734 -0.4245  2.2967  0.2807
18550TIP3    H277066   2.716   4.772  12.619  1.2698 -0.9102 -2.4801
18551TIP3   OH277067   3.414   5.399  15.338  0.1345  0.7247 -0.1249
18551TIP3    H177068   3.477   5.331  15.314  0.2233  0.1037  1.7059
18551TIP3    H277069   3.461   5.455  15.399 -0.6897  0.9928  0.2820
18552TIP3   OH277070   1.905   2.155  15.056  0.0991 -0.0950 -0.2306
18552TIP3    H177071   1.843   2.088  15.085 -0.2054 -0.1033 -0.8707
18552TIP3    H277072   1.946   2.117  14.978 -2.2820  1.5961 -2.4877
18553TIP3   OH277073   0.849   3.736   2.603 -0.6144 -0.1759 -0.5742
18553TIP3    H177074   0.843   3.726   2.508 -0.4896 -1.1360 -0.4867
18553TIP3    H277075   0.759   3.747   2.633 -0.7922 -1.3586 -0.6518
18554TIP3   OH277076   2.231   2.879  16.711  0.0156  0.2413 -0.3987
18554TIP3    H177077   2.293   2.851  16.644 -0.7730  0.6524 -1.3274
18554TIP3    H277078   2.253   2.826  16.787 -0.1898 -1.5184 -1.5039
18555TIP3   OH277079   0.115   0.315   3.251  0.0731  0.4575  0.3974
18555TIP3    H177080   0.137   0.250   3.184 -3.5610 -0.3083 -0.2243
18555TIP3    H277081   0.093   0.263   3.328  1.1582  1.2186  1.2542
18556TIP3   OH277082   1.336   3.859  16.624  0.0280 -0.0808  0.3265
18556TIP3    H177083   1.266   3.888  16.565  0.5757  0.6361  0.0170
18556TIP3    H277084   1.385   3.795  16.572  0.2118  0.1781  0.1793
18557TIP3   OH277085   4.672   5.818   2.660  0.1033 -0.1644  0.0290
18557TIP3    H177086   4.607   5.874   2.618 -0.1480 -0.2518  0.3018
18557TIP3    H277087   4.756   5.850   2.627 -0.1533 -1.1878 -1.7308
18558TIP3   OH277088   6.779   3.803   4.442  0.3235 -0.6897  0.2551
18558TIP3    H177089   6.686   3.823   4.431  0.2247 -2.2094 -2.5662
18558TIP3    H277090   6.825   3.879   4.404  0.2807 -0.0158  1.4980
18559TIP3   OH277091   3.701   2.299   4.535  0.0042 -0.5332  0.2421
18559TIP3    H177092   3.761   2.227   4.554 -0.6744 -0.8137  1.4378
18559TIP3    H277093   3.716   2.362   4.604  1.2420  0.9527 -1.2978
18560TIP3   OH277094   0.148   3.605   1.675  0.3058 -0.0419 -0.2480
18560TIP3    H177095   0.062   3.602   1.634 -0.1296  0.6840  0.5844
18560TIP3    H277096   0.139   3.554   1.756  0.6407  0.0918 -0.1220
18561TIP3   OH277097   0.583   0.251  11.606 -0.3860 -0.1054 -0.5618
18561TIP3    H177098   0.510   0.189  11.605 -0.6475  0.2016 -0.7904
18561TIP3    H277099   0.630   0.235  11.524 -0.4054 -0.0606 -0.5821
18562TIP3   OH277100   5.240   4.991   0.879 -0.3255 -0.1281  0.7134
18562TIP3    H177101   5.220   4.924   0.814  4.4182 -1.5237  0.2940
18562TIP3    H277102   5.246   5.072   0.829  3.0053 -1.1370 -0.7866
18563TIP3   OH277103   1.481   6.222   3.811 -0.6841  0.4569  0.2891
18563TIP3    H177104   1.504   6.304   3.768  0.1313 -0.5333 -1.2654
18563TIP3    H277105   1.454   6.164   3.740 -1.3968 -0.5959  1.3640
18564TIP3   OH277106   5.344   0.831  12.363  0.2610  0.5569 -0.7126
18564TIP3    H177107   5.279   0.859  12.299  0.3359  0.7843 -0.6921
18564TIP3    H277108   5.341   0.899  12.431 -0.2731 -0.0049 -0.1533
18565TIP3   OH277109   0.627   3.271  14.193  0.4344 -0.8409 -0.0762
18565TIP3    H177110   0.597   3.319  14.116  0.9611  1.5793  1.1086
18565TIP3    H277111   0.709   3.230  14.167  0.7162  0.1327 -0.7828
18566TIP3   OH277112   0.337   4.921  16.739  0.1916  0.4720  0.1694
18566TIP3    H177113   0.267   4.984  16.756 -1.8264 -1.9258  1.3780
18566TIP3    H277114   0.292   4.842  16.712  2.4458 -1.1310  0.8466
18567TIP3   OH277115   6.476   4.561   0.519 -0.6345  0.5690 -0.4665
18567TIP3    H177116   6.438   4.497   0.458  3.3798 -2.8037  0.0918
18567TIP3    H277117   6.429   4.545   0.602  0.0817 -1.6369 -0.4072
18568TIP3   OH277118   5.255   1.611  13.857 -0.2852 -0.2648  0.0894
18568TIP3    H177119   5.318   1.605  13.930 -0.3201 -2.9646 -0.0051
18568TIP3    H277120   5.305   1.653  13.787  0.5291  0.1749  0.9039
18569TIP3   OH277121   0.651   2.426   2.037 -0.5691 -1.2533  0.1737
18569TIP3    H177122   0.690   2.391   2.117  0.2378  1.2001  0.9141
18569TIP3    H277123   0.716   2.486   2.002 -0.8089 -2.3868 -2.5155
18570TIP3   OH277124   0.059   3.806   3.129 -0.0718  0.6036  0.3203
18570TIP3    H177125   0.009   3.770   3.055  1.0788  0.4191 -0.3944
18570TIP3    H277126   0.090   3.891   3.097 -2.4187  2.1573  1.8364
18571TIP3   OH277127   3.013   5.118  13.552  0.6575 -0.3202 -0.2252
18571TIP3    H177128   2.987   5.140  13.642  0.7612  0.7254 -0.4306
18571TIP3    H277129   3.107   5.099  13.558  0.4739 -1.1725  0.0338
18572TIP3   OH277130   5.828   5.903   2.729 -0.2344  0.0215 -0.8740
18572TIP3    H177131   5.870   5.968   2.672 -2.4145  1.3072 -1.1289
18572TIP3    H277132   5.765   5.953   2.781  0.1325 -1.4686  1.1232
18573TIP3   OH277133   1.367   0.665  12.232 -0.1552  0.0135 -0.6394
18573TIP3    H177134   1.315   0.636  12.307  0.7446  0.6718  0.2668
18573TIP3    H277135   1.342   0.756  12.219  0.4208  0.1957 -0.4969
18574TIP3   OH277136   5.586   3.695  15.822  0.0197 -0.2976 -0.1916
18574TIP3    H177137   5.530   3.767  15.792 -0.1586  0.9421  2.7648
18574TIP3    H277138   5.533   3.616  15.807 -0.7214  0.3889 -1.3915
18575TIP3   OH277139   3.585   2.759  14.513  0.5557  0.2175 -0.1608
18575TIP3    H177140   3.549   2.816  14.580 -0.3100 -1.0337  0.4832
18575TIP3    H277141   3.661   2.718  14.554  0.0367 -0.5343  0.0824
18576TIP3   OH277142   4.387   5.136  15.413  0.5485  0.2316  0.1190
18576TIP3    H177143   4.338   5.218  15.403  0.6043  0.1567 -0.8778
18576TIP3    H277144   4.429   5.122  15.328  3.3450  0.9241  1.2738
18577TIP3   OH277145   5.581   0.217  10.051 -0.9015 -0.0499  0.0397
18577TIP3    H177146   5.670   0.198  10.082 -1.3210  1.6658  2.6034
18577TIP3    H277147   5.541   0.130  10.041 -0.0310 -0.8366  2.5036
18578TIP3   OH277148   1.086   1.765  16.166 -0.5654  0.0378 -0.2359
18578TIP3    H177149   1.177   1.786  16.189 -0.7973  1.9205 -0.9256
18578TIP3    H277150   1.063   1.693  16.225  1.0282  0.2012  0.6515
18579TIP3   OH277151   3.504   1.709   4.455  0.2326  0.5724  0.2607
18579TIP3    H177152   3.521   1.801   4.433  0.8240  0.6202  0.8716
18579TIP3    H277153   3.568   1.689   4.524 -0.0808 -0.2146  0.3315
18580TIP3   OH277154   2.760   3.759  15.176  0.6867  0.5597  0.4143
18580TIP3    H177155   2.744   3.853  15.167  1.1811  0.7883  1.6740
18580TIP3    H277156   2.681   3.724  15.217 -0.2793  0.0724 -1.7746
18581TIP3   OH277157   3.268   5.141  13.664 -0.2368  0.1383 -0.2875
18581TIP3    H177158   3.260   5.233  13.689 -1.5365  0.0314 -0.2744
18581TIP3    H277159   3.351   5.113  13.703  1.0946  1.7602 -1.7786
18582TIP3   OH277160   5.735   5.987  17.034  0.6162 -0.5378  0.3056
18582TIP3    H177161   5.788   5.920  17.078  0.7168 -0.6039  0.0897
18582TIP3    H277162   5.790   6.016  16.961 -0.2861 -1.7775 -0.9123
18583TIP3   OH277163   1.217   6.178  11.420 -1.0039 -0.1358 -0.5004
18583TIP3    H177164   1.194   6.266  11.449 -2.5893 -0.9296  0.8615
18583TIP3    H277165   1.166   6.166  11.340 -0.4347  0.3311 -0.9392
18584TIP3   OH277166   2.111   2.130   4.531  0.0362 -0.0165 -0.3319
18584TIP3    H177167   2.100   2.204   4.591  0.7103 -0.6791  0.6421
18584TIP3    H277168   2.089   2.165   4.445  0.4108  1.3367  0.1024
18585TIP3   OH277169   0.218   6.036  17.110 -0.0330  0.0155  0.2559
18585TIP3    H177170   0.177   6.114  17.073 -1.1177  0.0792  1.4864
18585TIP3    H277171   0.147   5.970  17.111  0.3409 -0.3967  0.9100
18586TIP3   OH277172   3.645   1.736  16.558 -0.3594  0.3301  0.1737
18586TIP3    H177173   3.729   1.782  16.544  0.2216 -0.8393 -0.3451
18586TIP3    H277174   3.659   1.650  16.518 -0.9776 -0.7799  2.2529
18587TIP3   OH277175   6.110   1.680  10.776  0.3623  0.1396  0.0387
18587TIP3    H177176   6.019   1.708  10.783  0.1551  0.1490 -2.0252
18587TIP3    H277177   6.159   1.761  10.764  0.5719  0.0886  0.5428
18588TIP3   OH277178   5.200   4.097  11.825  0.1967 -0.2291 -0.1970
18588TIP3    H177179   5.259   4.087  11.749 -0.6466 -1.6688 -0.6914
18588TIP3    H277180   5.124   4.142  11.790  0.7294  1.1303  0.3244
18589TIP3   OH277181   2.198   6.322  11.215 -0.5630  0.2776 -0.9533
18589TIP3    H177182   2.209   6.409  11.179  2.1353 -0.9626 -3.5400
18589TIP3    H277183   2.111   6.295  11.188 -2.6270  2.9798  2.2146
18590TIP3   OH277184   5.913   5.173   1.388  0.0200 -0.0300 -0.4339
18590TIP3    H177185   5.948   5.224   1.315  0.4179 -1.6925 -1.4395
18590TIP3    H277186   5.967   5.200   1.463 -0.6480  1.9839 -0.5991
18591TIP3   OH277187   3.543   5.469  11.888  0.0667 -0.6217  0.3033
18591TIP3    H177188   3.509   5.523  11.817  0.9467  0.0159  0.3558
18591TIP3    H277189   3.480   5.479  11.959  0.0060  0.0059  0.1657
18592TIP3   OH277190   6.622   6.703   3.600  0.2381 -0.2275 -0.7369
18592TIP3    H177191   6.586   6.752   3.526  0.5601 -0.5446 -1.1054
18592TIP3    H277192   6.571   6.621   3.601  1.3806 -0.9885 -1.6896
18593TIP3   OH277193   2.669   4.678  15.133  0.2916  0.1427  0.1177
18593TIP3    H177194   2.672   4.701  15.226 -0.1946 -2.2079  0.7838
18593TIP3    H277195   2.719   4.597  15.127  1.1912  0.7915 -1.8964
18594TIP3   OH277196   3.838   3.020   3.033  0.7209 -0.5179 -0.0216
18594TIP3    H177197   3.855   2.970   3.113 -1.4555 -1.1054  0.1420
18594TIP3    H277198   3.761   3.073   3.054  2.3391  2.2221 -0.5462
18595TIP3   OH277199   4.219   5.697  14.713 -0.0587  0.0328  0.1574
18595TIP3    H177200   4.285   5.633  14.740 -0.3256 -0.5908 -0.6373
18595TIP3    H277201   4.252   5.731  14.630 -0.3943  0.2373  0.1098
18596TIP3   OH277202   1.706   0.135  15.444  0.0675  0.5230 -0.0334
18596TIP3    H177203   1.770   0.166  15.380  1.1416  0.5379  1.0281
18596TIP3    H277204   1.644   0.207  15.452  0.3253  0.8060 -0.5116
18597TIP3   OH277205   1.416   2.897  11.660 -0.4979  0.6436  1.1986
18597TIP3    H177206   1.495   2.944  11.632  0.0013 -0.5009  0.5970
18597TIP3    H277207   1.447   2.837  11.728 -0.1396 -2.1009 -1.2214
18598TIP3   OH277208   5.518   0.115   5.622  0.2627  0.0439 -0.3620
18598TIP3    H177209   5.572   0.133   5.699 -1.2661  0.5362  0.6434
18598TIP3    H277210   5.483   0.027   5.636 -1.3667  0.7702  0.3892
18599TIP3   OH277211   3.290   1.765  12.513 -0.4427 -0.5798 -0.2291
18599TIP3    H177212   3.249   1.821  12.447 -1.4216 -0.1502  0.7089
18599TIP3    H277213   3.360   1.819  12.550  0.5144 -1.0382 -1.2977
18600TIP3   OH277214   2.505   4.787  15.744 -0.6286 -0.1707 -0.5155
18600TIP3    H177215   2.442   4.734  15.792  0.2017 -1.4602 -0.7989
18600TIP3    H277216   2.590   4.764  15.781 -0.2832  1.5696 -0.1042
18601TIP3   OH277217   1.900   0.468  14.662 -0.0255 -0.1978  0.3784
18601TIP3    H177218   1.860   0.530  14.601  0.0076 -0.9141 -0.3905
18601TIP3    H277219   1.880   0.503  14.749  2.0224  2.2012  0.0029
18602TIP3   OH277220   3.715   6.002  15.968 -0.2196  0.3892  0.2018
18602TIP3    H177221   3.776   5.929  15.953 -1.3682 -0.5029 -0.3438
18602TIP3    H277222   3.704   6.042  15.881 -0.8479  0.1626  0.1683
18603TIP3   OH277223   3.409   0.838   1.297 -0.0587 -0.5731  0.1552
18603TIP3    H177224   3.330   0.827   1.351 -0.0135 -2.0029 -0.0393
18603TIP3    H277225   3.405   0.929   1.268 -2.9935 -1.2083 -1.9194
18604TIP3   OH277226   5.838   5.351  13.280 -0.0225 -0.0590 -0.2064
18604TIP3    H177227   5.768   5.292  13.309  0.7124 -0.4727  0.7899
18604TIP3    H277228   5.817   5.435  13.321  0.4572 -0.3782  0.7130
18605TIP3   OH277229   5.349   3.677   5.391 -0.1818  0.1048  0.0227
18605TIP3    H177230   5.395   3.598   5.420  0.9362  1.0067  0.7981
18605TIP3    H277231   5.276   3.685   5.452 -0.8627 -0.8249 -0.6383
18606TIP3   OH277232   0.151   5.841   2.866 -0.6400  0.3646 -0.2844
18606TIP3    H177233   0.062   5.827   2.897 -1.3000  1.4429 -1.5911
18606TIP3    H277234   0.141   5.892   2.785  1.1491  0.3686 -0.5506
18607TIP3   OH277235   3.305   3.514  13.659 -0.2736  0.3531 -0.3513
18607TIP3    H177236   3.347   3.430  13.643  0.1241  0.6736 -1.0116
18607TIP3    H277237   3.230   3.516  13.599 -0.2129  0.5196 -0.4224
18608TIP3   OH277238   5.098   0.583   1.430 -0.0744  0.1406 -0.2568
18608TIP3    H177239   5.063   0.616   1.513 -0.1798 -0.1562 -0.1844
18608TIP3    H277240   5.124   0.493   1.448  0.5783  0.3063 -0.3547
18609TIP3   OH277241   3.995   3.076  16.652 -0.9717 -0.0020  0.0360
18609TIP3    H177242   4.086   3.065  16.679 -1.1690  1.5135  1.4223
18609TIP3    H277243   3.993   3.161  16.609 -2.1848  1.2496  2.3710
18610TIP3   OH277244   1.432   4.687  14.223  0.2742  0.2378 -0.0391
18610TIP3    H177245   1.441   4.714  14.132  1.3146 -0.9695 -0.3133
18610TIP3    H277246   1.337   4.678  14.236  0.1611 -0.4300 -1.2519
18611TIP3   OH277247   1.248   3.880  11.362  0.2198 -0.7752  0.8353
18611TIP3    H177248   1.212   3.912  11.279  0.3577 -1.0938  0.6534
18611TIP3    H277249   1.194   3.923  11.429  0.6027  0.1033  0.6031
18612TIP3   OH277250   1.088   3.317  14.259  0.5182 -0.1400  0.0319
18612TIP3    H177251   1.139   3.251  14.307  1.5936  0.8349  0.2780
18612TIP3    H277252   1.049   3.268  14.187  2.5587 -0.7842 -0.7222
18613TIP3   OH277253   1.477   3.514   2.767  0.4001 -0.2349  0.1045
18613TIP3    H177254   1.494   3.463   2.687  0.9229  0.3376 -0.1592
18613TIP3    H277255   1.409   3.577   2.742 -1.1381 -1.5689  0.7646
18614TIP3   OH277256   1.178   1.809  14.901 -0.3782 -0.4508  0.3696
18614TIP3    H177257   1.183   1.837  14.992 -1.9853 -0.5566  0.5218
18614TIP3    H277258   1.203   1.717  14.902 -1.1761 -0.6706  0.8425
18615TIP3   OH277259   2.071   5.834  16.722 -0.6399 -0.2953  0.0613
18615TIP3    H177260   2.122   5.845  16.642  1.0287 -2.1155  0.7836
18615TIP3    H277261   1.986   5.803  16.692 -1.2291  2.2909 -1.1507
18616TIP3   OH277262   5.472   2.229   0.357 -0.1870  0.2680  0.5182
18616TIP3    H177263   5.543   2.165   0.353  0.1037  0.6513 -0.9278
18616TIP3    H277264   5.398   2.185   0.314  0.1830  1.0867 -1.0061
18617TIP3   OH277265   1.004   4.882  16.337  0.4583  0.5669  0.4295
18617TIP3    H177266   0.914   4.904  16.362  0.0409 -1.3285  0.7411
18617TIP3    H277267   1.003   4.881  16.242  0.4510  1.6356  0.4036
18618TIP3   OH277268   0.228   0.204  16.136  0.6749  0.1727  0.1364
18618TIP3    H177269   0.306   0.166  16.176  0.4102  0.2786  0.7694
18618TIP3    H277270   0.235   0.182  16.043  0.5188 -1.4563  0.4801
18619TIP3   OH277271   4.257   1.586  16.053  0.0213 -0.2187  0.0852
18619TIP3    H177272   4.340   1.634  16.062  0.6300 -1.2325  0.1375
18619TIP3    H277273   4.222   1.582  16.142 -0.1380  0.3000  0.0480
18620TIP3   OH277274   4.366   1.990   5.863  0.1924 -0.6626 -0.3743
18620TIP3    H177275   4.354   1.916   5.922  0.9053  0.9087  1.9012
18620TIP3    H277276   4.458   2.012   5.871  0.4572 -0.7770 -2.6365
18621TIP3   OH277277   0.266   2.722  13.985 -0.1735  0.0202  0.6120
18621TIP3    H177278   0.360   2.732  13.995  0.1436 -2.0230  0.1156
18621TIP3    H277279   0.234   2.707  14.074 -0.1208  1.1643  0.8391
18622TIP3   OH277280   1.303   5.149   1.405  0.9586 -0.3888 -0.5120
18622TIP3    H177281   1.313   5.188   1.492 -0.3543 -1.7439  0.3154
18622TIP3    H277282   1.382   5.174   1.358  1.5636  0.6568  0.9608
18623TIP3   OH277283   5.481   4.326   6.464  0.1350 -0.1440  0.4392
18623TIP3    H177284   5.557   4.372   6.430 -0.2643 -0.2093 -0.5891
18623TIP3    H277285   5.495   4.321   6.559  0.9633  0.6356  0.3640
18624TIP3   OH277286   1.599   3.379   6.269 -0.1173  0.3091  0.1562
18624TIP3    H177287   1.669   3.374   6.204  1.0808 -2.3649  1.5110
18624TIP3    H277288   1.643   3.380   6.353 -1.6766  2.0652  1.0248
18625TIP3   OH277289   0.066   2.684   5.764  0.0557 -0.0813 -0.7757
18625TIP3    H177290   0.131   2.673   5.695  0.7244 -2.8149  0.1875
18625TIP3    H277291  -0.007   2.628   5.738 -0.1139 -0.3538  0.2404
18626TIP3   OH277292   3.681   6.090   6.057  0.0242 -0.0652  0.1889
18626TIP3    H177293   3.713   6.147   5.986 -1.9108  2.1854  0.9951
18626TIP3    H277294   3.721   6.005   6.038  2.2065  1.2337 -1.7261
18627TIP3   OH277295   0.396   0.192  12.469  0.0692 -0.3010  0.2396
18627TIP3    H177296   0.479   0.196  12.421  0.0402 -3.2419 -0.2277
18627TIP3    H277297   0.330   0.218  12.404  0.4558  0.6017  0.1888
18628TIP3   OH277298   4.982   1.006  14.402 -0.3437 -0.1222 -0.5304
18628TIP3    H177299   5.017   1.094  14.394 -2.6582  0.8999 -0.3579
18628TIP3    H277300   4.986   0.969  14.314 -0.2191  0.5087 -0.7885
18629TIP3   OH277301   3.807   5.191  15.185  0.1869 -0.4546  0.3525
18629TIP3    H177302   3.788   5.147  15.102  0.4717  2.9416 -1.6923
18629TIP3    H277303   3.724   5.229  15.213  0.5970  0.5271  0.2631
18630TIP3   OH277304   2.887   1.322  16.306  0.7187  0.6335 -0.4937
18630TIP3    H177305   2.839   1.406  16.303  0.2293  0.3863  0.2325
18630TIP3    H277306   2.825   1.261  16.347  0.5086 -0.4607 -2.3212
18631TIP3   OH277307   5.982   1.722  16.116 -0.1715  0.9091  0.0686
18631TIP3    H177308   6.036   1.725  16.195  0.7692  0.6796 -0.5495
18631TIP3    H277309   6.044   1.704  16.045 -1.3015 -1.2717 -0.4352
18632TIP3   OH277310   0.311   5.761   3.540  0.7070  0.2210  0.1244
18632TIP3    H177311   0.333   5.837   3.594 -0.7000 -0.0548  1.1381
18632TIP3    H277312   0.219   5.744   3.558  0.7111 -1.0878 -0.9013
18633TIP3   OH277313   0.523   4.675   5.079  0.0724  0.4236  0.7099
18633TIP3    H177314   0.618   4.670   5.065  0.2233  0.1743  1.7494
18633TIP3    H277315   0.509   4.628   5.161 -1.2690 -1.8298 -0.7210
18634TIP3   OH277316   4.360   1.332   0.396  0.1758  0.2181 -0.5714
18634TIP3    H177317   4.439   1.353   0.346 -0.8655  2.1506 -1.4972
18634TIP3    H277318   4.326   1.252   0.355  0.8732  0.1733 -1.0854
18635TIP3   OH277319   1.884   4.734   5.952 -0.2678  0.0369 -0.1311
18635TIP3    H177320   1.871   4.676   6.027  1.3503  0.0452  0.1922
18635TIP3    H277321   1.829   4.810   5.971 -1.2480 -0.7168  0.1620
18636TIP3   OH277322   1.463   6.810   5.570  0.7454 -0.5051  0.2656
18636TIP3    H177323   1.501   6.758   5.500  3.1666  0.2726  0.9211
18636TIP3    H277324   1.536   6.861   5.606 -0.2272 -1.2224  3.6993
18637TIP3   OH277325   0.920   3.478   5.810 -0.5363 -0.4434 -0.5940
18637TIP3    H177326   0.938   3.469   5.903 -0.8685  1.5355 -0.3013
18637TIP3    H277327   0.843   3.534   5.805  1.9145  3.1808 -2.0267
18638TIP3   OH277328   3.602   2.658   3.907 -0.5786 -0.0833  0.4567
18638TIP3    H177329   3.607   2.594   3.978  0.4619 -2.4526 -1.5906
18638TIP3    H277330   3.508   2.665   3.889 -0.7119 -1.5184  0.4019
18639TIP3   OH277331   6.588   4.791  14.890  0.5498 -0.0125 -0.5946
18639TIP3    H177332   6.521   4.824  14.830 -1.4116 -0.5922  1.1380
18639TIP3    H277333   6.657   4.857  14.887  0.3747  0.1656 -3.1381
18640TIP3   OH277334   5.372   2.259  13.989  0.1615 -0.4982  0.8007
18640TIP3    H177335   5.383   2.168  13.960 -0.0019 -1.3871  3.2466
18640TIP3    H277336   5.277   2.274  13.987  0.1889 -0.3697  0.3919
18641TIP3   OH277337   3.013   5.806   1.717  0.0542  0.0399 -0.1117
18641TIP3    H177338   3.070   5.759   1.778 -0.6910 -1.8914 -0.8293
18641TIP3    H277339   2.969   5.871   1.772  0.1573 -0.9615  1.2278
18642TIP3   OH277340   5.106   0.634   0.142 -0.0378  0.0882  0.2860
18642TIP3    H177341   5.174   0.611   0.204 -0.6788  0.4539  1.1500
18642TIP3    H277342   5.073   0.550   0.109  1.2703 -0.0842 -0.6728
18643TIP3   OH277343   0.866   0.863  14.598 -0.2658  0.4103  0.1783
18643TIP3    H177344   0.791   0.919  14.577 -0.3995  0.7456  1.4553
18643TIP3    H277345   0.839   0.815  14.676  0.8540  0.5590  0.6815
18644TIP3   OH277346   2.599   3.152   4.151 -0.2915 -0.6397  0.2534
18644TIP3    H177347   2.508   3.182   4.146 -0.2231 -0.5019 -0.2117
18644TIP3    H277348   2.625   3.138   4.060  0.4749  0.3179  0.3036
18645TIP3   OH277349   0.097   1.496  14.692 -0.0921 -0.4476 -0.1206
18645TIP3    H177350   0.176   1.480  14.640  0.6172 -0.2063  0.8458
18645TIP3    H277351   0.096   1.591  14.706 -0.8434 -0.3834 -0.5591
18646TIP3   OH277352   1.237   5.272  13.261 -0.0411  0.0490  0.4700
18646TIP3    H177353   1.305   5.248  13.325  0.1060  0.0181  0.3021
18646TIP3    H277354   1.280   5.264  13.176  0.5465  2.5629  0.4566
18647TIP3   OH277355   0.125   4.389  16.551 -0.1125 -0.0507 -0.9044
18647TIP3    H177356   0.137   4.317  16.614  0.6303  1.2354  0.4757
18647TIP3    H277357   0.123   4.468  16.605  0.7980  1.1356 -2.5379
18648TIP3   OH277358   6.218   5.126  12.060  0.0458 -0.1282  0.4922
18648TIP3    H177359   6.266   5.111  12.141  0.5188  0.7454  0.3911
18648TIP3    H277360   6.178   5.213  12.071 -0.7687 -0.4578  0.2149
18649TIP3   OH277361   3.543   5.461   5.719 -0.4933  0.0336 -0.1553
18649TIP3    H177362   3.456   5.495   5.739 -0.3811  0.5085 -0.4640
18649TIP3    H277363   3.590   5.466   5.803 -0.1265  1.7233 -0.4277
18650TIP3   OH277364   5.422   6.506   5.114  0.3138 -0.3228  0.2168
18650TIP3    H177365   5.365   6.568   5.069  0.9542  0.5944  0.6304
18650TIP3    H277366   5.506   6.551   5.119  1.0182 -1.5751 -0.2089
18651TIP3   OH277367   5.796   6.117   5.043  0.0499  0.5589  0.0842
18651TIP3    H177368   5.721   6.170   5.017 -0.2627  0.7894  1.3913
18651TIP3    H277369   5.871   6.157   4.999 -0.5897  0.2409 -1.3523
18652TIP3   OH277370   1.831   3.865   0.943 -0.0430  0.7619  0.3319
18652TIP3    H177371   1.876   3.936   0.988 -1.3661  1.6508  0.2671
18652TIP3    H277372   1.740   3.892   0.937 -0.2763 -0.2078 -1.1468
18653TIP3   OH277373   1.351   6.120  10.269 -0.4790 -0.4569 -0.4546
18653TIP3    H177374   1.412   6.069  10.322  0.6146  0.2472 -1.0131
18653TIP3    H277375   1.392   6.206  10.259 -1.1539 -0.2288 -1.5416
18654TIP3   OH277376   6.535   5.540   6.127 -0.4410 -0.3955  0.1603
18654TIP3    H177377   6.496   5.539   6.040  2.3116  1.7663 -1.2686
18654TIP3    H277378   6.540   5.448   6.153 -1.8762 -1.0507 -1.6738
18655TIP3   OH277379   4.264   3.270   6.637 -0.3925  0.0113  0.1642
18655TIP3    H177380   4.229   3.209   6.572 -0.2643  0.1519 -0.0381
18655TIP3    H277381   4.194   3.335   6.649  0.6263  1.6382 -1.9743
18656TIP3   OH277382   6.203   2.240  17.003  0.3421 -0.0124  0.0673
18656TIP3    H177383   6.229   2.283  17.084  2.0049 -1.0635  0.1319
18656TIP3    H277384   6.113   2.209  17.020  1.0069 -1.1080  1.9055
18657TIP3   OH277385   2.472   2.955   3.316 -0.5450 -0.1660  0.5368
18657TIP3    H177386   2.460   3.048   3.331 -0.1656 -0.5003  3.5868
18657TIP3    H277387   2.383   2.921   3.302 -0.5932  0.7245 -1.6494
18658TIP3   OH277388   0.432   2.153  15.095  0.6399  0.3084 -0.1268
18658TIP3    H177389   0.434   2.248  15.087  2.7635  0.2441 -0.9074
18658TIP3    H277390   0.469   2.121  15.013 -1.1972 -1.2529 -0.4067
18659TIP3   OH277391   3.178   5.986   6.656  0.2797 -0.3146  0.3093
18659TIP3    H177392   3.228   5.909   6.682 -0.1811 -0.2911  1.2905
18659TIP3    H277393   3.238   6.035   6.600  0.5548 -1.4114 -0.3898
18660TIP3   OH277394   6.126   3.843   2.588  0.6631  0.2448  0.5709
18660TIP3    H177395   6.156   3.796   2.510 -1.5109 -0.2537 -0.0151
18660TIP3    H277396   6.112   3.775   2.654  1.7684  0.5875  1.1925
18661TIP3   OH277397   3.070   5.343  16.139 -0.1417 -0.5448 -0.3998
18661TIP3    H177398   3.067   5.254  16.176 -0.3612 -0.5917 -0.5285
18661TIP3    H277399   3.108   5.331  16.052  0.8993 -0.3602  0.0193
18662TIP3   OH277400   0.719   5.890  14.585 -0.0039 -0.1346  0.0732
18662TIP3    H177401   0.689   5.804  14.556  0.1536  1.2169 -5.0768
18662TIP3    H277402   0.652   5.951  14.553  1.0899  1.8834  1.4040
18663TIP3   OH277403   6.196   3.725   3.230 -0.1740  0.2804 -0.8614
18663TIP3    H177404   6.158   3.673   3.161 -0.2162 -1.2455  0.2654
18663TIP3    H277405   6.271   3.674   3.261  0.9561  1.7777 -0.9725
18664TIP3   OH277406   0.474   4.630   1.655  0.0274 -0.8002  0.5457
18664TIP3    H177407   0.393   4.679   1.674 -0.1372 -0.9247  0.1751
18664TIP3    H277408   0.543   4.697   1.656 -0.0926 -0.6780  0.7710
18665TIP3   OH277409   6.649   4.048  12.054  0.3021 -0.3470  0.1396
18665TIP3    H177410   6.574   4.018  12.003  0.4657  0.1220 -0.3756
18665TIP3    H277411   6.614   4.115  12.112  0.3886  0.1265 -0.3518
18666TIP3   OH277412   2.253   6.584  11.103  0.1437 -0.7771 -0.6644
18666TIP3    H177413   2.271   6.577  11.009  1.0710 -1.7271 -0.4258
18666TIP3    H277414   2.273   6.676  11.124 -0.3185 -0.4877 -1.4362
18667TIP3   OH277415   3.096   1.180   2.476  0.6114  0.7608 -0.2584
18667TIP3    H177416   3.166   1.132   2.430 -0.2555 -1.6042  0.6919
18667TIP3    H277417   3.016   1.154   2.431  0.0419  0.7672  0.7242
18668TIP3   OH277418   6.384   5.415  11.656  0.2465 -0.0416 -0.0998
18668TIP3    H177419   6.444   5.361  11.604  0.2622  0.1427 -0.2753
18668TIP3    H277420   6.310   5.358  11.675  0.3298 -0.1695 -0.1621
18669TIP3   OH277421   1.951   4.527   3.612  1.1099 -0.6860 -0.5104
18669TIP3    H177422   1.860   4.521   3.582  0.7407 -0.1851  0.4269
18669TIP3    H277423   1.980   4.437   3.619 -0.7874 -1.2165  3.3225
18670TIP3   OH277424   0.938   1.008  16.628 -0.1963  0.6369  0.6438
18670TIP3    H177425   0.929   1.009  16.532  0.3257 -1.1007  0.5403
18670TIP3    H277426   1.020   1.055  16.645  0.3943 -0.1687  0.1171
18671TIP3   OH277427   6.028   6.668   3.828 -0.4333 -0.3227 -0.1897
18671TIP3    H177428   6.047   6.599   3.892  1.4769 -1.4185 -1.8167
18671TIP3    H277429   5.995   6.740   3.880  0.6425 -1.3012  2.0040
18672TIP3   OH277430   5.776   2.140   0.547  0.1656  0.1002  0.0984
18672TIP3    H177431   5.750   2.049   0.531 -1.3819  0.1443  2.0077
18672TIP3    H277432   5.798   2.142   0.640  0.9534  1.5207 -0.0949
18673TIP3   OH277433   4.107   1.386  11.084  0.3097  0.0041  0.6913
18673TIP3    H177434   4.049   1.389  11.159  1.1166 -1.5112  1.4267
18673TIP3    H277435   4.053   1.414  11.010 -0.5745  1.2362  1.7589
18674TIP3   OH277436   2.182   3.840   3.085  0.2577 -0.2983  0.1236
18674TIP3    H177437   2.110   3.903   3.098  1.3280  0.8034  0.9376
18674TIP3    H277438   2.145   3.756   3.113 -0.9881  0.0797 -0.3270
18675TIP3   OH277439   2.905   3.358   0.183  0.7989  0.0013  0.0894
18675TIP3    H177440   2.972   3.424   0.168  1.1799 -0.0541  1.3678
18675TIP3    H277441   2.874   3.334   0.096  0.5865  1.9161 -0.4030
18676TIP3   OH277442   2.861   0.565  13.072  0.2979  0.4109  0.1509
18676TIP3    H177443   2.913   0.643  13.051  0.0853 -0.2075 -3.0793
18676TIP3    H277444   2.866   0.559  13.168  3.1781  2.3996  0.2689
18677TIP3   OH277445   4.267   3.798   0.536  0.2177  0.3801 -0.1333
18677TIP3    H177446   4.349   3.844   0.520  0.0327  0.5504 -0.6118
18677TIP3    H277447   4.288   3.735   0.606  0.3958  1.3884  0.7477
18678TIP3   OH277448   2.847   6.358   3.000 -0.2835 -0.3736  0.4055
18678TIP3    H177449   2.845   6.367   3.095  0.3595 -0.7796  0.4621
18678TIP3    H277450   2.756   6.371   2.972 -0.6596 -1.2744  1.1702
18679TIP3   OH277451   6.695   2.717  11.993  0.0199 -0.4468  0.5826
18679TIP3    H177452   6.688   2.741  11.900  3.2849  0.1284  0.3791
18679TIP3    H277453   6.659   2.629  11.997  1.7131 -1.3485 -1.7300
18680TIP3   OH277454   2.162   0.321  15.123 -0.3866  0.0056  0.4987
18680TIP3    H177455   2.180   0.281  15.038 -1.0489  0.6466  0.0390
18680TIP3    H277456   2.127   0.408  15.101 -0.3554  0.2608  1.4323
18681TIP3   OH277457   0.490   4.165   3.049  0.3014  0.2953 -0.7729
18681TIP3    H177458   0.558   4.142   2.985 -0.9633 -0.6722 -1.8269
18681TIP3    H277459   0.441   4.083   3.062  0.5576  0.4228  1.5382
18682TIP3   OH277460   5.222   3.721   5.159 -0.2320  0.1739 -0.2768
18682TIP3    H177461   5.249   3.813   5.154 -1.0861  0.4421 -0.2149
18682TIP3    H277462   5.255   3.691   5.244 -1.6627  1.0264  0.6284
18683TIP3   OH277463   2.391   3.437   1.347  0.0507  0.3915 -0.3765
18683TIP3    H177464   2.299   3.414   1.355  0.7748 -2.4281  1.1477
18683TIP3    H277465   2.415   3.470   1.433  0.6042  0.6083 -0.6078
18684TIP3   OH277466   6.700   5.920   4.191  0.1922  0.0266  0.1641
18684TIP3    H177467   6.775   5.941   4.135  1.3797 -0.7231  1.4092
18684TIP3    H277468   6.711   5.976   4.267  0.5819 -1.4245  1.2186
18685TIP3   OH277469   4.316   6.041   3.635 -0.2810  0.4217 -0.1988
18685TIP3    H177470   4.309   5.954   3.674 -2.1991  0.1913 -0.9902
18685TIP3    H277471   4.356   6.026   3.550 -0.8921  0.2652 -0.4618
18686TIP3   OH277472   2.100   1.999  11.955 -0.7205  0.1644  0.2952
18686TIP3    H177473   2.027   2.005  12.017 -0.6391 -1.7213  0.6548
18686TIP3    H277474   2.168   1.950  12.002 -0.7634 -1.5892 -1.3109
18687TIP3   OH277475   5.994   2.461  11.035  0.3877  0.6376 -0.6913
18687TIP3    H177476   5.942   2.448  11.115  0.3807  1.2640 -0.5932
18687TIP3    H277477   6.058   2.390  11.037  0.0771  0.3628 -0.3778
18688TIP3   OH277478   0.431   6.523  16.239 -0.0046 -0.4916  0.4128
18688TIP3    H177479   0.476   6.557  16.316  0.1935 -1.1478  0.5929
18688TIP3    H277480   0.395   6.601  16.196  0.7652 -0.0191  0.6087
18689TIP3   OH277481   3.615   0.125   1.584  0.2187  0.0162 -0.0478
18689TIP3    H177482   3.686   0.145   1.524  0.0003 -1.0514 -0.6802
18689TIP3    H277483   3.573   0.210   1.600  1.2616  0.5567 -0.1280
18690TIP3   OH277484   5.745   2.979  17.001  0.8171 -0.0664  0.4304
18690TIP3    H177485   5.736   2.914  16.931  0.1276 -1.2427  1.5666
18690TIP3    H277486   5.773   2.928  17.077  0.3086  0.9807  1.3412
18691TIP3   OH277487   2.829   5.022  12.364 -0.6782 -0.8779 -0.2060
18691TIP3    H177488   2.897   5.035  12.431 -0.0597  0.0759 -0.9857
18691TIP3    H277489   2.787   5.107  12.356 -2.4925 -1.6320  0.7715
18692TIP3   OH277490   1.517   6.583  11.366  0.4081 -0.2533  0.2420
18692TIP3    H177491   1.540   6.499  11.406 -2.3447 -0.6955  1.1152
18692TIP3    H277492   1.445   6.563  11.307  0.1518  1.3788 -0.0626
18693TIP3   OH277493   5.964   1.595   3.424  0.1912  0.5196 -0.1758
18693TIP3    H177494   6.015   1.661   3.377 -1.5032  1.4836 -0.7469
18693TIP3    H277495   5.889   1.579   3.367 -0.3232 -0.6051  0.7921
18694TIP3   OH277496   5.857   1.469   2.641  0.1030 -0.1490  0.2432
18694TIP3    H177497   5.814   1.413   2.576  0.3395  0.4255 -0.4124
18694TIP3    H277498   5.946   1.480   2.608 -0.3122  1.7034 -0.3406
18695TIP3   OH277499   1.917   6.811   1.242  0.1923 -0.2357 -0.2467
18695TIP3    H177500   1.832   6.767   1.237  0.7918 -1.3918 -0.8963
18695TIP3    H277501   1.896   6.904   1.243 -1.0685 -0.4817 -0.9190
18696TIP3   OH277502   1.725   2.866  13.502  0.4476 -0.0407 -0.4240
18696TIP3    H177503   1.707   2.899  13.414  1.0111  3.3885  0.6136
18696TIP3    H277504   1.648   2.891  13.553  1.0457 -0.0490  0.5045
18697TIP3   OH277505   6.716   1.726   4.848 -0.5672  0.0924  0.6945
18697TIP3    H177506   6.782   1.759   4.908  0.3948 -0.7685  0.1579
18697TIP3    H277507   6.762   1.718   4.764 -1.6362  0.4254  0.0574
18698TIP3   OH277508   1.454   1.873   0.761 -0.1099  0.2299  0.0014
18698TIP3    H177509   1.471   1.963   0.788  1.2958 -0.0576  0.1296
18698TIP3    H277510   1.540   1.838   0.738 -0.6068 -1.1692  0.1978
18699TIP3   OH277511   0.137   3.449  15.079 -0.0740 -0.0655  0.3631
18699TIP3    H177512   0.194   3.523  15.100  0.1340  0.6292 -2.1939
18699TIP3    H277513   0.194   3.386  15.035 -0.9257  0.0011 -0.9184
18700TIP3   OH277514   5.494   2.439   5.866  0.4239 -0.2350 -0.4489
18700TIP3    H177515   5.508   2.525   5.905 -1.5793 -0.4417  0.9037
18700TIP3    H277516   5.511   2.451   5.773 -2.0809  2.2833 -0.7145
18701TIP3   OH277517   0.204   5.564  15.525 -0.0922  0.5835 -1.0125
18701TIP3    H177518   0.208   5.473  15.495 -0.9650  0.5335 -1.0198
18701TIP3    H277519   0.170   5.612  15.449  2.4921  1.3237 -1.8000
18702TIP3   OH277520   6.002   3.852  12.542  0.3206 -0.1887  0.1125
18702TIP3    H177521   5.944   3.815  12.608  2.4180  0.2700  2.3393
18702TIP3    H277522   5.944   3.905  12.487 -1.5935 -1.0226  1.2278
18703TIP3   OH277523   4.606   0.873  15.482 -0.4353  0.1127 -0.2820
18703TIP3    H177524   4.668   0.930  15.528 -0.2195 -0.3950  0.0666
18703TIP3    H277525   4.525   0.922  15.481 -0.2396  0.4477 -0.0196
18704TIP3   OH277526   0.342   0.848   3.784 -0.3831  0.4303 -0.6300
18704TIP3    H177527   0.255   0.882   3.764 -1.9535 -0.9284  2.9431
18704TIP3    H277528   0.379   0.911   3.845 -0.1148 -0.4150  0.1023
18705TIP3   OH277529   1.351   6.384   1.684 -0.4188  0.1482  0.2625
18705TIP3    H177530   1.314   6.443   1.618  0.0598 -2.4275 -2.5469
18705TIP3    H277531   1.276   6.332   1.713 -0.3356  0.1680  0.5093
18706TIP3   OH277532   6.774   5.824   1.452  0.3873  0.3848  0.0529
18706TIP3    H177533   6.866   5.804   1.434  0.2292 -1.1343  0.7108
18706TIP3    H277534   6.725   5.776   1.386  0.0532  0.9202 -0.0939
18707TIP3   OH277535   5.507   6.368   3.633 -0.2004  0.0117 -0.1905
18707TIP3    H177536   5.589   6.393   3.675 -0.0826  1.5682 -1.2575
18707TIP3    H277537   5.447   6.441   3.653 -0.4516  0.2830 -1.7727
18708TIP3   OH277538   0.854   1.277  16.161  0.2607  0.1268 -0.3195
18708TIP3    H177539   0.904   1.216  16.216  0.9012  0.6313 -0.3414
18708TIP3    H277540   0.770   1.232  16.146 -0.0927  0.1317  1.3966
18709TIP3   OH277541   1.938   4.613   4.867 -0.0663  0.4057 -0.7143
18709TIP3    H177542   2.003   4.555   4.828  0.1375  0.4792 -0.4848
18709TIP3    H277543   1.930   4.584   4.958  0.2634  0.9285 -0.5123
18710TIP3   OH277544   3.740   0.607   1.722  0.1006 -0.0502 -0.4399
18710TIP3    H177545   3.779   0.682   1.768  0.5091  0.4510 -1.5819
18710TIP3    H277546   3.710   0.549   1.793 -0.8377  1.4811  0.4661
18711TIP3   OH277547   0.481   0.643   2.305  0.1449 -0.3361  0.1208
18711TIP3    H177548   0.436   0.565   2.272 -1.3698 -0.0549  1.4114
18711TIP3    H277549   0.471   0.637   2.400  0.0176  1.4145  0.2341
18712TIP3   OH277550   3.628   2.355  12.599 -0.3061  0.4638  0.4002
18712TIP3    H177551   3.685   2.393  12.532 -0.9918 -0.1006 -0.5247
18712TIP3    H277552   3.688   2.320  12.665  0.4723 -1.0255 -1.0459
18713TIP3   OH277553   1.484   4.561  11.193  0.6467  0.2851 -0.0096
18713TIP3    H177554   1.501   4.655  11.204 -1.7344  0.9757 -1.4086
18713TIP3    H277555   1.401   4.547  11.239  1.9121 -1.6338  1.8780
18714TIP3   OH277556   5.072   2.231  14.705  0.1526  0.3387 -0.0490
18714TIP3    H177557   5.068   2.202  14.797  0.4460 -0.4977 -0.2921
18714TIP3    H277558   5.112   2.317  14.709 -0.1747  0.4692  0.6472
18715TIP3   OH277559   2.157   5.972  14.973 -0.1118 -0.4745 -0.0379
18715TIP3    H177560   2.111   6.030  15.034  2.6569  1.3177  0.5270
18715TIP3    H277561   2.229   6.025  14.940  1.2257 -2.9121 -1.3018
18716TIP3   OH277562   0.512   4.276   4.202  0.6461  0.3551 -0.7329
18716TIP3    H177563   0.543   4.353   4.153 -0.2844  0.0271 -1.8709
18716TIP3    H277564   0.592   4.240   4.241  1.1027  1.8872 -0.1648
18717TIP3   OH277565   0.906   0.752  15.372 -0.6917 -0.0648 -0.2873
18717TIP3    H177566   0.886   0.807  15.448  0.0613  0.8426 -0.7175
18717TIP3    H277567   0.943   0.813  15.308  1.1287 -1.2375 -0.4176
18718TIP3   OH277568   6.470   6.602  15.201 -0.2170  0.1018  0.3459
18718TIP3    H177569   6.512   6.617  15.286  0.6936 -1.7669  0.2746
18718TIP3    H277570   6.530   6.640  15.137 -0.3045  0.4212  0.4510
18719TIP3   OH277571   6.410   3.678  13.459  0.5412 -0.3372 -0.0790
18719TIP3    H177572   6.373   3.593  13.483  1.2363 -0.7845 -0.5540
18719TIP3    H277573   6.461   3.704  13.535  0.0498 -0.1702  0.2024
18720TIP3   OH277574   1.529   2.762   3.937 -0.4938  0.2168 -0.3981
18720TIP3    H177575   1.497   2.786   4.024 -1.9094 -0.3724 -0.7330
18720TIP3    H277576   1.557   2.671   3.946  2.9963  1.2289  0.3646
18721TIP3   OH277577   0.166   2.559   2.829 -0.7412 -0.3452 -0.0588
18721TIP3    H177578   0.257   2.554   2.857 -0.5020  0.3372 -0.6872
18721TIP3    H277579   0.118   2.505   2.892  0.0338 -0.3188  0.5621
18722TIP3   OH277580   5.873   1.410  11.014 -0.2166  0.1676 -0.1184
18722TIP3    H177581   5.789   1.456  11.011 -0.4958 -0.3732 -1.2109
18722TIP3    H277582   5.852   1.327  11.058 -0.4015 -0.2233 -0.9228
18723TIP3   OH277583   4.118   3.463  11.607 -0.5038  0.3696  0.4396
18723TIP3    H177584   4.159   3.463  11.520 -3.0328 -0.5240 -0.8513
18723TIP3    H277585   4.132   3.552  11.640  1.0525  0.5464 -0.5716
18724TIP3   OH277586   2.302   1.957  14.244  0.5546 -0.7129 -1.0318
18724TIP3    H177587   2.347   2.036  14.216  0.0202 -0.1155 -0.2212
18724TIP3    H277588   2.356   1.885  14.210 -0.1717 -0.0536 -3.7853
18725TIP3   OH277589   1.289   1.186   0.753 -0.2610 -0.1924 -0.2369
18725TIP3    H177590   1.232   1.120   0.716 -1.4342 -0.3352  1.6673
18725TIP3    H277591   1.323   1.147   0.834  2.1032  0.1163 -0.9893
18726TIP3   OH277592   3.586   4.908   5.889 -0.2650  0.6870 -0.1584
18726TIP3    H177593   3.597   4.979   5.953  1.3867  1.6873 -1.4741
18726TIP3    H277594   3.565   4.953   5.807  0.1601 -0.3862 -0.8838
18727TIP3   OH277595   4.723   6.693   1.355 -0.3161  0.4420 -0.2295
18727TIP3    H177596   4.785   6.663   1.289 -0.2864 -1.7038  0.7131
18727TIP3    H277597   4.638   6.695   1.310 -0.0586  0.4794 -0.7149
18728TIP3   OH277598   4.121   3.067  15.192  0.1083  0.0872 -0.3764
18728TIP3    H177599   4.069   2.997  15.232  1.6554 -0.2938  1.0652
18728TIP3    H277600   4.065   3.101  15.122 -2.7882  0.8592  2.1216
18729TIP3   OH277601   1.579   1.220   3.054 -0.0508  0.4029  0.4016
18729TIP3    H177602   1.552   1.221   2.962  0.6793  1.5481  0.1740
18729TIP3    H277603   1.614   1.307   3.069 -0.3616  0.2921  1.8446
18730TIP3   OH277604   5.940   3.854  16.538 -0.3814  0.4513 -0.0594
18730TIP3    H177605   5.857   3.898  16.521  0.4453  2.5003  0.9192
18730TIP3    H277606   5.979   3.902  16.611  2.4777  0.7125 -1.5836
18731TIP3   OH277607   0.971   0.942   0.050 -0.1018  0.2615 -0.1860
18731TIP3    H177608   0.928   0.860   0.075 -2.6729  1.8289  0.9899
18731TIP3    H277609   0.945   0.956  -0.041  2.5858 -1.4422 -1.3433
18732TIP3   OH277610   2.512   0.815  16.654  0.2290  0.0187 -0.3619
18732TIP3    H177611   2.475   0.898  16.685 -0.2363 -0.6313  0.8887
18732TIP3    H277612   2.498   0.754  16.726  0.1794 -1.2746 -1.4296
18733TIP3   OH277613   0.528   6.616  14.972 -0.1989 -0.0182 -0.3811
18733TIP3    H177614   0.439   6.592  14.997  0.2203  0.1283  1.3510
18733TIP3    H277615   0.584   6.577  15.039  1.0518 -0.0565 -1.4023
18734TIP3   OH277616   2.383   6.263  15.750  0.1442 -0.4835 -0.4189
18734TIP3    H177617   2.363   6.299  15.836  0.4050 -2.0708  0.3400
18734TIP3    H277618   2.302   6.218  15.724  1.1373 -3.0469  0.6368
18735TIP3   OH277619   0.485   6.585  13.256  0.2506 -0.2314 -0.0380
18735TIP3    H177620   0.437   6.623  13.329 -0.2413  1.7093 -1.3115
18735TIP3    H277621   0.445   6.498  13.244  0.6587 -0.7976  2.2246
18736TIP3   OH277622   3.227   3.767  15.757 -0.0568  0.4573 -0.0547
18736TIP3    H177623   3.315   3.770  15.793  0.5233 -1.4714 -1.1944
18736TIP3    H277624   3.214   3.676  15.731 -1.8137  1.0147 -1.3340
18737TIP3   OH277625   2.205   1.311   4.892 -0.0475 -0.1348 -0.0800
18737TIP3    H177626   2.179   1.343   4.979 -0.3028  0.0897 -0.2375
18737TIP3    H277627   2.124   1.314   4.841  0.2837  0.5649 -0.5757
18738TIP3   OH277628   1.521   2.150   3.270  0.2805  0.5544 -0.3310
18738TIP3    H177629   1.524   2.227   3.214  0.3107  1.3357  0.7348
18738TIP3    H277630   1.605   2.106   3.253  1.2869  1.9708  0.7199
18739TIP3   OH277631   4.396   0.139  14.824 -0.5517  0.1165  0.2266
18739TIP3    H177632   4.432   0.142  14.913  0.6410  0.4659 -0.2580
18739TIP3    H277633   4.456   0.083  14.775 -0.0566  1.5366 -0.8497
18740TIP3   OH277634   6.060   1.832   3.297 -0.0810 -0.2149 -0.1611
18740TIP3    H177635   6.125   1.900   3.317 -0.5339 -0.1826  1.3483
18740TIP3    H277636   5.980   1.881   3.276 -0.1607 -0.2707  0.0107
18741TIP3   OH277637   6.450   4.689  12.849 -0.7031  0.5452  0.1018
18741TIP3    H177638   6.462   4.594  12.846  0.1975  0.6023  1.1419
18741TIP3    H277639   6.452   4.710  12.943 -1.9950  1.4658 -0.0589
18742TIP3   OH277640   3.874   0.535   4.024  0.7415  0.1384  0.1018
18742TIP3    H177641   3.830   0.553   3.941  3.1326  3.0428 -0.7149
18742TIP3    H277642   3.940   0.469   4.001  0.4033 -0.1924  0.0708
18743TIP3   OH277643   5.232   0.601   4.780 -0.0750  0.3101 -0.3633
18743TIP3    H177644   5.236   0.684   4.732  1.9407  1.0693  0.9844
18743TIP3    H277645   5.225   0.627   4.872 -2.9547 -1.0978 -0.0827
18744TIP3   OH277646   3.231   3.266   1.872 -0.2772  0.8873 -0.2689
18744TIP3    H177647   3.302   3.260   1.936 -1.2547 -1.5699  0.7289
18744TIP3    H277648   3.195   3.353   1.884  0.2944  0.8948  1.7792
18745TIP3   OH277649   2.811   4.019   4.422  0.0235 -0.2851  0.4668
18745TIP3    H177650   2.771   4.103   4.402  1.5324  0.8825  2.0992
18745TIP3    H277651   2.764   3.988   4.500 -0.8172 -1.2280 -0.3674
18746TIP3   OH277652   3.434   6.249   3.294  0.0897 -0.4404 -0.0615
18746TIP3    H177653   3.378   6.304   3.348 -1.9317 -1.7539 -0.7030
18746TIP3    H277654   3.459   6.176   3.351  0.7685 -0.0947  0.0864
18747TIP3   OH277655   6.166   2.247  13.047  0.1608 -0.1296  0.0574
18747TIP3    H177656   6.116   2.175  13.008  2.5576 -1.5780 -0.6442
18747TIP3    H277657   6.142   2.324  12.996 -1.9090 -0.5462  0.3170
18748TIP3   OH277658   3.383   3.464  11.225  0.2790 -0.0369  0.1089
18748TIP3    H177659   3.367   3.375  11.255  0.3122  0.1732  0.7722
18748TIP3    H277660   3.298   3.508  11.236  0.5779  0.3475  1.0190
18749TIP3   OH277661   1.530   1.744  13.614  0.4374 -0.1593 -0.2007
18749TIP3    H177662   1.514   1.704  13.529  0.6373 -0.5219 -0.0710
18749TIP3    H277663   1.459   1.713  13.670  0.6910 -0.4821 -0.0528
18750TIP3   OH277664   5.061   4.762  14.269  0.2144 -0.4178 -0.5041
18750TIP3    H177665   5.122   4.828  14.301  0.7154 -2.3118  2.8370
18750TIP3    H277666   4.975   4.802  14.278  0.4797 -0.2484  1.8388
18751TIP3   OH277667   0.223   0.486  17.081  0.3553  0.3568 -0.6952
18751TIP3    H177668   0.179   0.571  17.094  0.2345 -0.0163  1.9450
18751TIP3    H277669   0.250   0.487  16.989 -0.3548  2.9118 -0.9675
18752TIP3   OH277670   1.217   5.439   2.226 -0.3604 -0.1567  0.2276
18752TIP3    H177671   1.186   5.383   2.298  0.7123 -1.4018 -0.2316
18752TIP3    H277672   1.138   5.474   2.187 -1.0624 -1.1500  0.7050
18753TIP3   OH277673   0.997   1.187  14.882  0.3374  0.4627  0.0831
18753TIP3    H177674   1.072   1.168  14.826 -0.6395 -1.0476 -0.7648
18753TIP3    H277675   0.984   1.108  14.934 -1.3079  0.2735 -0.5545
18754TIP3   OH277676   5.911   1.882  14.424 -0.3240  0.2619  0.6788
18754TIP3    H177677   5.889   1.937  14.499 -0.1351 -0.8339  1.5722
18754TIP3    H277678   5.872   1.797  14.445 -0.1146 -0.1058 -0.3915
18755TIP3   OH277679   0.332   0.049  11.756  0.6093 -0.1240  0.0116
18755TIP3    H177680   0.331   0.027  11.663 -1.0741 -0.6586  0.1255
18755TIP3    H277681   0.411   0.007  11.789 -0.2172 -2.3759 -0.6622
18756TIP3   OH277682   0.444   2.374   1.517 -0.2292 -0.2542  0.7166
18756TIP3    H177683   0.517   2.411   1.468 -0.2315 -0.9630  0.1451
18756TIP3    H277684   0.466   2.387   1.609 -1.0827  2.7847  0.5860
18757TIP3   OH277685   4.542   4.786   3.260 -0.4495 -0.1163 -0.5094
18757TIP3    H177686   4.563   4.879   3.271  1.0987 -0.4849 -0.1250
18757TIP3    H277687   4.450   4.779   3.285 -0.0472  0.9868  1.5174
18758TIP3   OH277688   6.441   3.759  11.398  0.0061  0.7336  0.5307
18758TIP3    H177689   6.412   3.760  11.489  1.8599  0.7212  1.1566
18758TIP3    H277690   6.404   3.679  11.362 -0.3545  0.4994  1.3868
18759TIP3   OH277691   4.696   5.563  16.056 -0.1212  0.7134  0.3121
18759TIP3    H177692   4.686   5.502  16.129  1.4590  1.6174  1.3287
18759TIP3    H277693   4.671   5.512  15.979  1.1166 -1.2235  1.1278
18760TIP3   OH277694   4.222   6.307   2.941 -0.4648  0.5720 -0.0287
18760TIP3    H177695   4.162   6.235   2.959 -0.7848  1.1464  1.2791
18760TIP3    H277696   4.201   6.334   2.851 -0.6393 -0.6565 -0.3724
18761TIP3   OH277697   3.073   2.306   6.330 -0.4520 -0.2828 -0.6196
18761TIP3    H177698   3.040   2.241   6.268 -1.4520 -0.6134  0.2281
18761TIP3    H277699   3.060   2.266   6.416 -2.2575  1.4851  0.0208
18762TIP3   OH277700   4.999   4.524  11.291 -0.0571 -0.5999 -0.1443
18762TIP3    H177701   5.034   4.442  11.256 -0.1490 -0.2685 -1.0242
18762TIP3    H277702   4.981   4.577  11.214 -1.3183 -0.2808  0.3596
18763TIP3   OH277703   1.727   1.050   5.705  0.2770 -0.4775  0.1535
18763TIP3    H177704   1.659   1.075   5.768 -0.5041 -0.6216 -0.6121
18763TIP3    H277705   1.679   1.033   5.624  1.5617  3.2327 -1.5638
18764TIP3   OH277706   5.040   6.591   3.454 -0.4248  0.0007 -0.2294
18764TIP3    H177707   5.121   6.543   3.435 -1.5078 -1.9477 -0.2101
18764TIP3    H277708   5.056   6.633   3.538  1.4402  1.7902 -1.3941
18765TIP3   OH277709   4.820   1.854  11.771  0.0620  0.8450  0.1202
18765TIP3    H177710   4.912   1.850  11.798 -0.4780  1.8366  2.3020
18765TIP3    H277711   4.801   1.947  11.763 -0.7966  0.6563 -0.2108
18766TIP3   OH277712   1.640   0.418   6.419  0.1162 -0.1295 -0.2442
18766TIP3    H177713   1.664   0.501   6.461 -1.1530 -0.4044  1.1185
18766TIP3    H277714   1.581   0.376   6.482 -0.9877 -1.0838 -1.8540
18767TIP3   OH277715   2.007   1.893  15.213 -0.3341  0.6541  0.4660
18767TIP3    H177716   1.950   1.840  15.157  0.0064 -0.4625  1.1564
18767TIP3    H277717   2.019   1.841  15.292  1.9748  0.6416  0.1862
18768TIP3   OH277718   2.756   0.082  14.940 -0.5510  0.0666 -0.1625
18768TIP3    H177719   2.721  -0.006  14.930  0.4960 -0.4504  0.5000
18768TIP3    H277720   2.725   0.130  14.863  0.5286 -1.4474 -1.6115
18769TIP3   OH277721   0.918   1.833   5.890  0.3703 -0.2573 -0.4519
18769TIP3    H177722   0.896   1.741   5.877 -0.6847 -0.2765  1.2079
18769TIP3    H277723   0.964   1.836   5.973 -1.4639  0.9239  0.5995
18770TIP3   OH277724   1.126   0.186  11.352 -0.0509 -0.9358 -0.9214
18770TIP3    H177725   1.137   0.268  11.400 -1.8056 -2.4108  2.2571
18770TIP3    H277726   1.205   0.135  11.372 -0.2217 -1.0808 -0.6173
18771TIP3   OH277727   2.353   5.152   0.859 -0.2862  0.0710  0.2110
18771TIP3    H177728   2.411   5.084   0.894  0.0693  1.1368  1.7503
18771TIP3    H277729   2.266   5.127   0.891 -0.4467 -0.5761 -0.6706
18772TIP3   OH277730   4.552   0.180  16.016  0.2206 -0.2509 -0.6044
18772TIP3    H177731   4.556   0.268  15.978  0.8627 -0.0751 -0.1484
18772TIP3    H277732   4.560   0.195  16.111 -1.5678 -0.6595 -0.3660
18773TIP3   OH277733   2.621   5.584   2.888 -0.3849 -0.7326  0.0275
18773TIP3    H177734   2.543   5.626   2.853 -1.4686 -3.1399 -0.7248
18773TIP3    H277735   2.589   5.499   2.920  1.4420 -0.6029  2.4611
18774TIP3   OH277736   3.452   5.026   5.085  0.7679 -0.2865 -0.6484
18774TIP3    H177737   3.473   5.098   5.144  1.3137  0.4424 -1.7024
18774TIP3    H277738   3.411   5.068   5.010 -0.3434 -1.2419 -0.6071
18775TIP3   OH277739   1.251   3.293  15.089 -0.5997 -0.1376 -0.4468
18775TIP3    H177740   1.252   3.360  15.157 -3.4275 -1.1996  0.8262
18775TIP3    H277741   1.260   3.341  15.007 -0.8759  1.6022  0.4924
18776TIP3   OH277742   5.592   5.543   1.243 -0.6438  0.3479  1.2505
18776TIP3    H177743   5.676   5.573   1.278  0.8145 -0.8145 -0.9760
18776TIP3    H277744   5.589   5.450   1.265  1.4028 -1.0313 -3.1722
18777TIP3   OH277745   0.997   2.763   5.099  0.1996  0.4701 -0.3315
18777TIP3    H177746   0.981   2.716   5.181  0.3239  0.4929 -0.2951
18777TIP3    H277747   0.916   2.749   5.048 -0.1171  0.9563  0.0309
18778TIP3   OH277748   0.953   1.740   3.782 -0.0969  0.0415 -0.1072
18778TIP3    H177749   1.044   1.766   3.798  0.1551  0.6443 -2.1788
18778TIP3    H277750   0.947   1.733   3.687 -1.2396 -3.7144  0.0755
18779TIP3   OH277751   5.179   3.520  16.873 -0.0481  0.8462  0.5548
18779TIP3    H177752   5.133   3.447  16.914  1.9089  0.4898  2.2544
18779TIP3    H277753   5.110   3.570  16.828 -1.3596 -2.5313 -1.5978
18780TIP3   OH277754   4.553   0.305  15.093 -0.4398 -0.0365 -0.4329
18780TIP3    H177755   4.508   0.224  15.119 -0.3999  0.2347  0.5060
18780TIP3    H277756   4.483   0.359  15.054 -0.5467 -0.3577 -0.6919
18781TIP3   OH277757   0.528   4.903  13.221  0.0224 -0.3551  0.1823
18781TIP3    H177758   0.583   4.866  13.289  0.5275 -0.0530 -0.0562
18781TIP3    H277759   0.568   4.988  13.202  0.5407 -0.8932 -1.2527
18782TIP3   OH277760   0.603   0.220  12.303  0.6284  0.3900 -0.3866
18782TIP3    H177761   0.686   0.268  12.295  0.6923  0.1174 -1.5595
18782TIP3    H277762   0.544   0.264  12.241  0.9622 -1.5724 -2.2005
18783TIP3   OH277763   2.612   3.287   0.788  0.5422  0.2349 -0.1278
18783TIP3    H177764   2.674   3.357   0.766  0.9946  0.9721  3.0393
18783TIP3    H277765   2.643   3.211   0.740  2.2729  1.2770 -0.7522
18784TIP3   OH277766   4.677   2.256  10.712 -0.7239  0.0087  0.2802
18784TIP3    H177767   4.757   2.206  10.699  0.0310  1.3451 -0.3335
18784TIP3    H277768   4.616   2.193  10.751  1.2381 -0.5288  2.7683
18785TIP3   OH277769   6.408   6.722  12.580 -0.0150  0.7478 -0.7267
18785TIP3    H177770   6.486   6.668  12.598 -1.2329 -0.1406  2.6685
18785TIP3    H277771   6.427   6.806  12.620 -1.1183  0.1843  1.0925
18786TIP3   OH277772   2.658   1.407  14.187 -0.7020 -0.7241 -0.1968
18786TIP3    H177773   2.674   1.355  14.266 -0.0027  0.1179  0.2446
18786TIP3    H277774   2.744   1.445  14.167 -1.0282 -0.3830 -0.9670
18787TIP3   OH277775   4.384   0.654  13.350  0.6877  0.7020  0.2991
18787TIP3    H177776   4.405   0.575  13.400 -1.2368 -2.1068 -2.8496
18787TIP3    H277777   4.293   0.674  13.375  1.0970  1.8424  0.9240
18788TIP3   OH277778   4.780   1.756   3.766  0.3659 -0.0887  0.2916
18788TIP3    H177779   4.792   1.833   3.821  0.7715  0.3472 -0.3834
18788TIP3    H277780   4.811   1.784   3.679  0.1148 -0.8761 -0.0608
18789TIP3   OH277781   6.376   2.046  12.663 -0.2443 -0.1713 -0.2243
18789TIP3    H177782   6.403   2.118  12.721 -0.5057 -1.1709  1.2057
18789TIP3    H277783   6.439   2.047  12.592  1.7846 -0.5442  1.4628
18790TIP3   OH277784   5.379   0.035  11.597 -0.1504 -0.1455  0.1368
18790TIP3    H177785   5.472   0.019  11.611 -0.2599 -1.1399 -0.1766
18790TIP3    H277786   5.356  -0.020  11.522 -0.9921  0.0750  0.2191
18791TIP3   OH277787   3.963   2.277  13.691 -0.1720  0.3711  0.7785
18791TIP3    H177788   4.004   2.209  13.638  0.0136  0.9383  0.1777
18791TIP3    H277789   3.954   2.238  13.778 -0.0124 -0.3932  0.4602
18792TIP3   OH277790   2.917   0.448   3.872  0.2098 -0.4519  0.8280
18792TIP3    H177791   2.999   0.495   3.891  0.4389 -0.0673 -0.9623
18792TIP3    H277792   2.861   0.514   3.831  0.4106 -1.5977 -1.4233
18793TIP3   OH277793   5.899   4.901   2.201 -0.6573  0.0233  0.8402
18793TIP3    H177794   5.861   4.910   2.288  0.0874  1.2675  1.0610
18793TIP3    H277795   5.946   4.817   2.205 -1.8105 -0.6328  1.1478
18794TIP3   OH277796   6.481   6.234  12.448 -0.2791 -0.9207  0.0321
18794TIP3    H177797   6.507   6.165  12.509 -0.5178 -1.1415 -0.1159
18794TIP3    H277798   6.410   6.196  12.397 -2.4546  0.3760  1.9059
18795TIP3   OH277799   1.837   1.720  15.581 -0.5051  0.2607  0.7017
18795TIP3    H177800   1.882   1.753  15.659 -0.8075  0.5424  0.7631
18795TIP3    H277801   1.754   1.768  15.579 -1.0924 -0.7105  0.9520
18796TIP3   OH277802   4.301   3.639   3.631 -0.4245  0.5011  0.0684
18796TIP3    H177803   4.206   3.634   3.632 -0.3499 -1.6817  0.9386
18796TIP3    H277804   4.325   3.622   3.540 -0.8270 -2.2145  0.3822
18797TIP3   OH277805   1.800   6.031  12.257 -0.0773  0.4304  0.4050
18797TIP3    H177806   1.825   6.100  12.318 -0.8933  1.5713 -0.4944
18797TIP3    H277807   1.872   6.030  12.193  0.9317 -0.9777  1.5053
18798TIP3   OH277808   2.275   0.382  14.054  0.0041 -0.3756 -0.2695
18798TIP3    H177809   2.220   0.437  14.108  0.0938 -1.2648  0.7504
18798TIP3    H277810   2.357   0.374  14.103  2.1580  2.9884 -2.8487
18799TIP3   OH277811   1.951   0.099   4.130  0.2304  0.3307  0.1041
18799TIP3    H177812   1.968   0.037   4.201  1.9644  1.2201  0.5398
18799TIP3    H277813   1.991   0.057   4.053 -0.0442  0.1803  0.0424
18800TIP3   OH277814   4.054   4.182  11.721 -0.0112 -0.1145 -0.9765
18800TIP3    H177815   3.973   4.176  11.773 -0.3613 -1.7728 -1.6493
18800TIP3    H277816   4.107   4.108  11.752  0.2756 -0.4073 -2.1291
18801TIP3   OH277817   5.129   3.524  13.253  0.3728 -1.0820  0.1261
18801TIP3    H177818   5.159   3.557  13.169 -3.4443 -1.3053 -1.5168
18801TIP3    H277819   5.070   3.591  13.286 -0.0130 -2.0504  1.5039
18802TIP3   OH277820   1.789   6.617  12.968 -0.5955  0.2171  0.0231
18802TIP3    H177821   1.822   6.555  13.032 -0.2956 -0.5145 -0.8228
18802TIP3    H277822   1.759   6.692  13.020  0.8808  0.2165  0.9220
18803TIP3   OH277823   1.016   5.664   1.717 -0.5188 -0.6810 -0.3855
18803TIP3    H177824   1.088   5.706   1.763 -1.9773  0.4943  0.8817
18803TIP3    H277825   1.030   5.687   1.625  0.8006 -0.6118 -0.1804
18804TIP3   OH277826   0.761   0.191   1.453 -0.4255 -0.0226  0.2484
18804TIP3    H177827   0.685   0.234   1.412  0.5504  2.3417  0.7432
18804TIP3    H277828   0.743   0.196   1.547  0.5029  0.9575  0.3911
18805TIP3   OH277829   0.635   3.543   0.478 -0.2727  0.1164 -0.2445
18805TIP3    H177830   0.699   3.495   0.532 -0.2854 -0.7653 -0.9893
18805TIP3    H277831   0.561   3.557   0.537  0.7605  1.5612  0.7708
18806TIP3   OH277832   5.035   2.993  15.984  0.2432  0.1914 -0.6818
18806TIP3    H177833   5.126   3.018  15.997 -0.1438  1.7277 -0.7012
18806TIP3    H277834   5.022   2.999  15.889  0.4297 -1.2779 -0.8302
18807TIP3   OH277835   1.017   1.804   4.042 -0.5583 -0.3184 -0.5915
18807TIP3    H177836   0.975   1.792   3.956 -2.0114  0.4735 -0.0341
18807TIP3    H277837   0.986   1.890   4.071 -0.4358 -0.7640  0.9180
18808TIP3   OH277838   6.388   2.715  12.179  0.1709  0.4365 -0.3369
18808TIP3    H177839   6.362   2.741  12.090  1.2581 -0.0618 -0.8239
18808TIP3    H277840   6.407   2.621  12.171 -1.0684  0.0640  0.7565
18809TIP3   OH277841   0.413   3.284   5.652  0.2925  0.2836 -0.0217
18809TIP3    H177842   0.452   3.371   5.642  1.3956 -0.1914  0.0472
18809TIP3    H277843   0.481   3.223   5.624  0.2274 -0.6518  1.7031
18810TIP3   OH277844   4.190   0.097   2.620  0.2774 -0.4678  0.0697
18810TIP3    H177845   4.283   0.099   2.598  0.7641 -0.4476  1.9711
18810TIP3    H277846   4.187   0.061   2.708 -1.4805  0.0421  0.2523
18811TIP3   OH277847   3.315   5.173   0.340  0.6589  0.2061 -0.0477
18811TIP3    H177848   3.342   5.089   0.376  0.2656  0.6984  1.4589
18811TIP3    H277849   3.237   5.152   0.289  1.9162 -0.6939 -1.7011
18812TIP3   OH277850   4.497   5.592  13.975  0.0533 -0.1821 -0.3803
18812TIP3    H177851   4.451   5.587  13.891  0.8670 -0.6344 -0.8097
18812TIP3    H277852   4.527   5.503  13.992 -0.1208 -0.0972  0.4066
18813TIP3   OH277853   0.837   4.575   5.210 -0.1159  0.4344 -0.1819
18813TIP3    H177854   0.910   4.559   5.270 -0.2036  0.8958  0.0492
18813TIP3    H277855   0.812   4.666   5.225  1.1242  1.2033 -2.2883
18814TIP3   OH277856   6.098   1.498  16.932 -0.3801  0.3047 -0.2151
18814TIP3    H177857   6.013   1.459  16.956  0.6598 -1.2874  1.0913
18814TIP3    H277858   6.075   1.573  16.878 -2.5855 -1.1380 -1.4703
18815TIP3   OH277859   2.781   1.806   2.985 -0.2783 -0.0760 -0.0989
18815TIP3    H177860   2.809   1.721   2.950  1.0247 -0.8553  2.5503
18815TIP3    H277861   2.860   1.843   3.024 -1.2023  1.6034  0.2772
18816TIP3   OH277862   6.382   1.292  13.680 -0.0844 -0.5243 -0.2849
18816TIP3    H177863   6.475   1.290  13.702 -0.0230 -0.6364 -0.5570
18816TIP3    H277864   6.338   1.278  13.764  0.1459 -0.7057 -0.1923
18817TIP3   OH277865   4.949   4.125   0.791 -0.2332 -0.3967 -0.0615
18817TIP3    H177866   4.943   4.036   0.826  0.2180  0.5052  2.5315
18817TIP3    H277867   4.977   4.113   0.701 -0.3955 -2.8901  0.1422
18818TIP3   OH277868   6.212   3.827   5.236 -0.5332 -0.3251  0.2574
18818TIP3    H177869   6.183   3.761   5.300  1.6063  0.3283  2.0216
18818TIP3    H277870   6.256   3.893   5.289  0.2756  0.8752 -1.8205
18819TIP3   OH277871   1.766   4.678   6.432  0.3657 -0.8840  0.4341
18819TIP3    H177872   1.851   4.660   6.472  0.1601 -1.8838  0.4504
18819TIP3    H277873   1.704   4.624   6.481 -0.0220 -1.4396 -0.6179
18820TIP3   OH277874   4.526   4.544   6.406  0.3848 -0.0230  0.0727
18820TIP3    H177875   4.524   4.448   6.402  0.9492 -0.0009 -2.6456
18820TIP3    H277876   4.589   4.569   6.338  1.7621  2.2511  2.0444
18821TIP3   OH277877   1.508   6.072   0.005  0.2321  0.5038 -0.5098
18821TIP3    H177878   1.457   6.094  -0.073  0.8699  1.3767 -0.6975
18821TIP3    H277879   1.590   6.037  -0.030  0.3587  0.5152 -0.2235
18822TIP3   OH277880   3.064   1.907   2.440 -0.6287  0.4800 -0.4834
18822TIP3    H177881   3.061   1.813   2.422  0.7189  0.2449  0.4425
18822TIP3    H277882   3.138   1.940   2.389 -0.1548  0.7643  0.3745
18823TIP3   OH277883   0.855   1.117   2.208 -0.5300 -0.2240 -0.3131
18823TIP3    H177884   0.821   1.034   2.239 -1.0473  0.2860  0.5080
18823TIP3    H277885   0.817   1.183   2.266 -1.4513  0.7564 -1.9609
18824TIP3   OH277886   6.037   5.546  15.285 -0.2193  0.0631 -0.3437
18824TIP3    H177887   5.992   5.463  15.270 -1.0856  0.3065  0.7062
18824TIP3    H277888   6.127   5.530  15.259 -0.0454 -1.6480  1.0667
18825TIP3   OH277889   1.055   3.808  14.891  0.3055 -0.4675  0.0583
18825TIP3    H177890   1.085   3.718  14.881  0.3360 -0.3760 -0.6756
18825TIP3    H277891   0.970   3.811  14.847 -0.1073 -0.3467  0.8279
18826TIP3   OH277892   6.746   4.280  14.426 -0.4881  0.1008  0.7536
18826TIP3    H177893   6.831   4.273  14.470 -0.3016 -0.1960  0.3540
18826TIP3    H277894   6.694   4.209  14.464  0.6880 -2.2713 -1.7009
18827TIP3   OH277895   2.284   0.633  12.704  0.1008  0.2758 -0.0593
18827TIP3    H177896   2.190   0.648  12.711 -0.3506 -2.3746  0.4818
18827TIP3    H277897   2.323   0.698  12.763 -1.3945  0.9991  0.1781
18828TIP3   OH277898   1.484   0.972   2.003 -0.4071 -0.4877  0.0196
18828TIP3    H177899   1.391   0.980   2.025 -0.5139  0.0472 -0.6009
18828TIP3    H277900   1.529   1.010   2.079 -0.6334 -1.8759  0.8918
18829TIP3   OH277901   3.012   6.377  13.913 -0.2926 -0.9274  0.3558
18829TIP3    H177902   3.063   6.430  13.973 -0.1126 -0.4070 -0.2489
18829TIP3    H277903   2.986   6.301  13.965 -0.5561 -0.2610  1.2357
18830TIP3   OH277904   0.484   4.391  16.789  0.4964  0.1684 -0.1378
18830TIP3    H177905   0.577   4.389  16.764  1.4345  0.3731  2.9317
18830TIP3    H277906   0.452   4.475  16.756  1.3332  0.0448 -1.3429
18831TIP3   OH277907   1.383   1.480   1.527 -0.3348  0.1903 -0.2257
18831TIP3    H177908   1.334   1.405   1.493  1.2713 -1.0595  0.0740
18831TIP3    H277909   1.408   1.453   1.615 -0.7485  1.6033  0.3390
18832TIP3   OH277910   3.106   3.643  13.815  0.6191  0.4124  0.0388
18832TIP3    H177911   3.157   3.590  13.754 -1.3520 -1.6190  0.0513
18832TIP3    H277912   3.146   3.730  13.810  2.3856 -0.4314 -1.8776
18833TIP3   OH277913   6.339   0.661  12.881  0.7713  0.5753  0.4690
18833TIP3    H177914   6.411   0.600  12.861  1.4434  1.3126  0.6166
18833TIP3    H277915   6.306   0.686  12.795  2.1970  1.9966  0.2868
18834TIP3   OH277916   0.884   5.018   3.965  0.3249 -0.0132 -0.0460
18834TIP3    H177917   0.853   5.093   4.017 -0.0373 -0.1700 -0.0350
18834TIP3    H277918   0.969   5.046   3.932  0.2436  0.3620  0.0538
18835TIP3   OH277919   6.600   2.086  13.480  0.0466 -0.0843 -0.0527
18835TIP3    H177920   6.569   2.103  13.391  0.7866  1.6054 -0.0199
18835TIP3    H277921   6.520   2.067  13.529 -0.4535 -0.2364 -0.8984
18836TIP3   OH277922   3.407   6.089  15.936 -0.6078  0.4664  0.0219
18836TIP3    H177923   3.452   6.014  15.975 -3.0283 -1.7176 -1.0975
18836TIP3    H277924   3.472   6.129  15.879  0.6203 -1.1372  0.2139
18837TIP3   OH277925   0.962   5.288   2.164 -0.5331  0.0214  0.1976
18837TIP3    H177926   0.987   5.361   2.108  1.7219 -0.2778  0.7092
18837TIP3    H277927   1.027   5.288   2.234  0.0792 -2.9293 -0.2280
18838TIP3   OH277928   6.764   3.989   0.064 -0.2253 -0.1515  0.4377
18838TIP3    H177929   6.745   3.999  -0.029 -0.7620 -0.4194  0.5124
18838TIP3    H277930   6.845   4.038   0.078 -0.7432  0.8381  0.0541
18839TIP3   OH277931   1.210   5.068  11.002  0.3001  0.3012  0.4458
18839TIP3    H177932   1.224   5.045  11.094  0.4345 -2.3287 -0.1589
18839TIP3    H277933   1.267   5.144  10.988 -1.0270  1.9040  2.9197
18840TIP3   OH277934   2.603   1.333   6.623  0.0217  0.4392 -0.0661
18840TIP3    H177935   2.523   1.295   6.585 -1.2532  2.6540  0.2308
18840TIP3    H277936   2.584   1.340   6.716  0.7818  0.5358  0.0865
18841TIP3   OH277937   1.597   0.100  11.998  0.1644 -0.2478 -0.1714
18841TIP3    H177938   1.687   0.126  12.015  0.2999 -0.1535 -0.9791
18841TIP3    H277939   1.598   0.070  11.907 -0.6873  0.0697 -0.2899
18842TIP3   OH277940   6.089   4.304  10.989 -0.0452 -0.0586 -0.2330
18842TIP3    H177941   6.105   4.390  10.948  0.1816  0.2601  0.5006
18842TIP3    H277942   5.995   4.289  10.977 -0.8938  2.0001  2.7462
18843TIP3   OH277943   5.462   5.325   4.213 -0.3484 -0.0170  0.5647
18843TIP3    H177944   5.468   5.371   4.297 -0.0901 -1.2674  1.2641
18843TIP3    H277945   5.545   5.278   4.206 -1.5136 -2.3467  1.1219
18844TIP3   OH277946   2.795   3.662   4.656  0.2068 -0.3744  0.0564
18844TIP3    H177947   2.763   3.602   4.723  0.6672 -1.7512 -0.9001
18844TIP3    H277948   2.743   3.641   4.578 -0.5275  1.3980  0.0212
18845TIP3   OH277949   5.726   4.781   0.791  0.1877  0.6461 -0.1067
18845TIP3    H177950   5.750   4.737   0.872 -0.8152 -3.1698 -1.6441
18845TIP3    H277951   5.809   4.812   0.754  1.1951 -1.3141  0.4199
18846TIP3   OH277952   4.079   1.927   0.569  0.4919 -0.4323 -0.3184
18846TIP3    H177953   4.115   1.879   0.643  1.1908  0.3243 -0.1567
18846TIP3    H277954   3.984   1.913   0.575  0.6982 -2.2264 -0.6001
18847TIP3   OH277955   3.965   0.576  12.288  0.4395 -0.2591  0.4368
18847TIP3    H177956   3.882   0.548  12.325  0.2701 -0.8579 -0.3867
18847TIP3    H277957   4.028   0.566  12.360 -0.1249 -0.1375  0.9557
18848TIP3   OH277958   1.378   0.487   0.610 -0.0970  0.0436  0.0049
18848TIP3    H177959   1.301   0.437   0.639 -1.0001  0.5060 -1.4910
18848TIP3    H277960   1.342   0.561   0.561  1.3023 -0.1292 -1.3684
18849TIP3   OH277961   3.318   5.718   1.667  0.2625  0.2744 -0.1398
18849TIP3    H177962   3.305   5.812   1.680 -0.7787  0.0802  0.3388
18849TIP3    H277963   3.386   5.694   1.730  1.7838  0.9906 -1.4283
18850TIP3   OH277964   3.520   2.095  13.093 -0.5573  0.0888  0.2930
18850TIP3    H177965   3.611   2.123  13.076 -1.5383  2.5996 -1.5443
18850TIP3    H277966   3.529   2.008  13.132  2.6142 -0.1083 -0.5366
18851TIP3   OH277967   6.132   1.897  12.023  0.2426 -0.4640  0.5995
18851TIP3    H177968   6.186   1.925  11.949 -0.8777 -3.1138 -1.4318
18851TIP3    H277969   6.044   1.925  12.000 -0.3815 -2.6897  0.0057
18852TIP3   OH277970   0.816   0.730  12.109 -0.5398 -0.1528  0.1663
18852TIP3    H177971   0.885   0.664  12.111  0.2414  0.6655  1.8647
18852TIP3    H277972   0.862   0.812  12.088 -1.2807  0.1035 -0.5107
18853TIP3   OH277973   5.638   4.580   0.112  0.2440 -0.2863 -0.0783
18853TIP3    H177974   5.656   4.487   0.124  0.0637 -0.2521  0.4739
18853TIP3    H277975   5.701   4.608   0.045  1.4952 -0.4212  1.0103
18854TIP3   OH277976   4.871   0.810  12.100  0.5015  0.1358 -0.1125
18854TIP3    H177977   4.793   0.819  12.045  1.1835  0.3144 -1.0840
18854TIP3    H277978   4.840   0.765  12.179 -0.6927  0.7293 -0.2185
18855TIP3   OH277979   4.325   1.997   3.407 -0.7552  0.4253 -0.6459
18855TIP3    H177980   4.334   2.048   3.487 -1.4705 -1.4550  0.6818
18855TIP3    H277981   4.403   1.941   3.405 -1.9090 -1.2437  0.0328
18856TIP3   OH277982   2.971   3.256  12.263 -0.0453  0.5512  0.3151
18856TIP3    H177983   3.059   3.227  12.288 -0.4434  1.2226  2.7850
18856TIP3    H277984   2.946   3.197  12.191  1.9667 -0.3701  0.2904
18857TIP3   OH277985   0.617   6.177   5.376 -0.5659 -0.7419 -0.3507
18857TIP3    H177986   0.579   6.113   5.437  1.1443 -0.9668  0.5474
18857TIP3    H277987   0.636   6.253   5.431  1.9454 -1.3180 -0.2929
18858TIP3   OH277988   5.938   2.364  11.929 -0.1733 -0.3437  0.1525
18858TIP3    H177989   5.889   2.446  11.930  1.1009  0.4491  0.0709
18858TIP3    H277990   5.875   2.298  11.901 -0.9151  0.8124 -0.9691
18859TIP3   OH277991   3.715   2.465  16.187 -0.5113 -0.5259  0.1511
18859TIP3    H177992   3.682   2.497  16.271 -0.3542  1.5883 -0.5202
18859TIP3    H277993   3.789   2.522  16.167 -0.8235 -0.6748 -1.6206
18860TIP3   OH277994   2.650   3.643   5.323 -0.5590  0.2030  0.5114
18860TIP3    H177995   2.683   3.553   5.331  1.5197  0.9263  0.7086
18860TIP3    H277996   2.650   3.660   5.229 -1.7518 -0.2655  0.4188
18861TIP3   OH277997   0.980   4.352   0.670  0.4005 -0.8140 -0.6676
18861TIP3    H177998   0.969   4.295   0.746 -1.0856 -0.8088 -0.8544
18861TIP3    H277999   0.891   4.373   0.642  0.9110  0.6172 -1.3455
18862TIP3   OH278000   1.297   1.684   1.379  0.2706 -0.3898 -0.8129
18862TIP3    H178001   1.367   1.677   1.315  1.0479 -1.3896  0.1243
18862TIP3    H278002   1.323   1.627   1.451  0.6369  2.4840  1.5414
18863TIP3   OH278003   5.790   2.936   0.198 -0.1547 -0.0453 -0.0426
18863TIP3    H178004   5.715   2.992   0.177 -0.9320 -1.3645 -0.9085
18863TIP3    H278005   5.769   2.900   0.285 -0.2888 -0.0186 -0.0632
18864TIP3   OH278006   2.083   2.306   5.402  0.2150 -0.0365 -0.2752
18864TIP3    H178007   2.113   2.235   5.458  1.9958  0.5109 -0.4512
18864TIP3    H278008   2.046   2.263   5.325 -0.2736 -0.7675  0.3621
18865TIP3   OH278009   3.247   3.834  12.056 -0.3866  0.2638 -0.2696
18865TIP3    H178010   3.309   3.814  11.985 -0.2742  0.2965 -0.1822
18865TIP3    H278011   3.161   3.812  12.021 -0.3549  0.5006 -0.5036
18866TIP3   OH278012   3.272   5.752  16.106 -0.3060 -0.2689 -0.5946
18866TIP3    H178013   3.350   5.777  16.057  0.6131 -1.7063  0.0584
18866TIP3    H278014   3.305   5.693  16.175 -1.7786  0.2702  0.6209
18867TIP3   OH278015   6.715   2.013  14.399  0.1948 -0.0469 -0.3167
18867TIP3    H178016   6.746   1.947  14.460  1.2822 -0.8067 -1.6326
18867TIP3    H278017   6.788   2.075  14.392 -0.5115  0.8746  0.3066
18868TIP3   OH278018   0.610   6.049   0.704  0.1587  0.1113  0.5045
18868TIP3    H178019   0.532   6.047   0.648  1.1083 -1.0158 -0.8466
18868TIP3    H278020   0.578   6.025   0.791 -1.2713  1.4270  0.3778
18869TIP3   OH278021   3.111   5.290  11.682 -0.2729 -0.6054 -0.1576
18869TIP3    H178022   3.172   5.231  11.728 -1.2661 -2.1502 -0.7226
18869TIP3    H278023   3.162   5.327  11.610  1.1926  1.5409  1.8492
18870TIP3   OH278024   3.039   0.120   5.782  0.3329 -0.3291 -0.1914
18870TIP3    H178025   3.104   0.095   5.848  1.1059  0.1750 -0.7415
18870TIP3    H278026   2.959   0.073   5.807  0.9098 -0.9603  0.4934
18871TIP3   OH278027   6.336   3.829  14.541  0.3357 -0.8144  0.3082
18871TIP3    H178028   6.336   3.815  14.636  0.0325  1.3603  0.6839
18871TIP3    H278029   6.269   3.768  14.508  0.4368 -1.5944  1.4678
18872TIP3   OH278030   6.066   3.486   3.588 -0.3363  0.3202  0.4621
18872TIP3    H178031   6.084   3.574   3.621  0.0956  0.9837 -1.4585
18872TIP3    H278032   6.027   3.440   3.663 -0.1499  1.9935  1.6277
18873TIP3   OH278033   2.492   3.499  16.010 -0.3744 -0.3933  0.0298
18873TIP3    H178034   2.578   3.542  16.012 -0.7253  0.3207  1.8448
18873TIP3    H278035   2.438   3.556  15.955  0.1446 -0.5559 -0.6723
18874TIP3   OH278036   0.419   6.075  14.645  0.1066 -0.0735 -0.8864
18874TIP3    H178037   0.324   6.064  14.640  0.2125 -1.2516 -0.6352
18874TIP3    H278038   0.438   6.078  14.739  0.4975 -1.8278 -0.8817
18875TIP3   OH278039   6.056   4.089  12.770 -0.1930  0.0954 -0.2788
18875TIP3    H178040   6.107   4.067  12.692  0.1372 -1.0538  0.2371
18875TIP3    H278041   6.098   4.168  12.805  0.8090 -0.4309 -0.2563
18876TIP3   OH278042   1.461   5.838   2.092  0.0789 -0.4932  0.7036
18876TIP3    H178043   1.391   5.788   2.135 -1.2010 -0.6930 -1.4477
18876TIP3    H278044   1.492   5.781   2.022  1.3832  0.2064  0.6807
18877TIP3   OH278045   6.178   2.398   3.844 -0.6663 -0.6111 -0.4464
18877TIP3    H178046   6.238   2.471   3.857 -1.8540  0.8444 -2.5774
18877TIP3    H278047   6.229   2.331   3.800 -0.2623  0.1109 -1.0956
18878TIP3   OH278048   4.562   5.674   3.030  0.0040 -0.0729 -0.0004
18878TIP3    H178049   4.598   5.586   3.047  0.2948  0.3141  1.5086
18878TIP3    H278050   4.479   5.657   2.986  0.5699 -1.0692 -0.7498
18879TIP3   OH278051   5.216   2.364  17.068 -0.2717 -0.1395 -0.5789
18879TIP3    H178052   5.308   2.380  17.089 -0.2066 -0.7052 -0.4054
18879TIP3    H278053   5.215   2.344  16.975  0.3131 -3.6094  0.0132
18880TIP3   OH278054   2.587   4.751   4.890  0.1795 -0.2327 -0.2771
18880TIP3    H178055   2.583   4.691   4.815  0.0284  0.8432 -1.1620
18880TIP3    H278056   2.555   4.834   4.855 -1.6050 -0.1331  1.4272
18881TIP3   OH278057   5.307   4.993  11.362  0.0727 -0.1140 -0.5231
18881TIP3    H178058   5.292   5.008  11.268  0.8124  1.2887 -0.4500
18881TIP3    H278059   5.402   4.999  11.372 -0.1262  2.2952  0.6674
18882TIP3   OH278060   3.282   2.172   3.305 -0.2513 -0.9734 -0.0845
18882TIP3    H178061   3.221   2.164   3.378  0.3492  0.4687  0.6239
18882TIP3    H278062   3.228   2.195   3.230 -0.5424  1.4733  0.7768
18883TIP3   OH278063   2.046   5.882  15.600 -0.1654 -0.1874  0.4671
18883TIP3    H178064   2.118   5.940  15.627 -0.5396 -0.0166  1.1063
18883TIP3    H278065   2.087   5.796  15.593  0.1562 -0.0480  0.5814
18884TIP3   OH278066   6.094   5.407   0.090 -0.0503  0.2543  0.6542
18884TIP3    H178067   6.016   5.353   0.098  1.7653 -2.4890  1.4284
18884TIP3    H278068   6.092   5.465   0.166  0.5103 -2.5146  2.9406
18885TIP3   OH278069   3.228   4.675   4.410  0.0754 -0.3491  0.0629
18885TIP3    H178070   3.136   4.699   4.424 -0.5685 -1.2438 -2.1666
18885TIP3    H278071   3.277   4.735   4.466 -1.7346  2.0190 -0.7007
18886TIP3   OH278072   6.672   2.844  12.737 -0.3660 -0.0559  0.2784
18886TIP3    H178073   6.706   2.930  12.711  2.3781 -1.2405 -0.4370
18886TIP3    H278074   6.644   2.855  12.828  0.4607  1.4463  0.3828
18887TIP3   OH278075   1.325   5.537  12.942  0.0621  0.4023  0.4656
18887TIP3    H178076   1.287   5.449  12.950  0.3531 -0.0022 -1.9753
18887TIP3    H278077   1.416   5.526  12.968  1.0738 -0.9120 -3.0897
18888TIP3   OH278078   5.051   1.355  13.492 -1.2178 -0.3655  0.7266
18888TIP3    H178079   5.037   1.404  13.573  0.1535 -1.3800  1.6242
18888TIP3    H278080   5.100   1.416  13.436 -0.5996 -0.2730  1.3545
18889TIP3   OH278081   3.665   5.684  15.703  0.1644  1.0155  0.4253
18889TIP3    H178082   3.629   5.619  15.643  0.9189  2.0409 -1.2145
18889TIP3    H278083   3.664   5.642  15.789 -0.7434 -0.5840 -0.3407
18890TIP3   OH278084   0.207   0.503   5.511 -0.5203 -0.0846 -0.2591
18890TIP3    H178085   0.134   0.452   5.544 -2.3094  1.9038 -0.9465
18890TIP3    H278086   0.231   0.561   5.583  0.8334 -1.1242  0.1706
18891TIP3   OH278087   2.114   2.830   6.049 -0.1800  0.4584 -0.2675
18891TIP3    H178088   2.108   2.849   6.142 -0.1012 -0.0528 -0.1547
18891TIP3    H278089   2.068   2.747   6.038 -1.3166  1.1449 -0.9007
18892TIP3   OH278090   4.036   2.107   3.449 -0.4736 -0.0718 -0.0283
18892TIP3    H178091   4.107   2.043   3.458 -1.0994 -0.5238  2.2941
18892TIP3    H278092   4.001   2.091   3.361 -0.4617 -2.7968  0.3757
18893TIP3   OH278093   5.674   1.836  14.960  0.3042 -0.1421 -0.4092
18893TIP3    H178094   5.583   1.855  14.982 -0.5451 -3.7145 -0.1958
18893TIP3    H278095   5.669   1.789  14.877  1.8656 -0.9865 -0.0593
18894TIP3   OH278096   0.641   3.271   3.175 -0.2083 -0.6615 -0.2582
18894TIP3    H178097   0.587   3.245   3.250 -0.1136  2.0637  0.8525
18894TIP3    H278098   0.729   3.241   3.197  0.2490  1.9271  1.8288
18895TIP3   OH278099   1.922   5.862  13.148  0.1080 -0.3953  0.3445
18895TIP3    H178100   2.004   5.815  13.164 -1.1196 -2.1903  1.8025
18895TIP3    H278101   1.870   5.802  13.095 -0.2844  0.7371 -0.5966
18896TIP3   OH278102   2.227   6.380  11.484 -0.5754 -0.2857  0.2674
18896TIP3    H178103   2.157   6.333  11.529  0.4913 -2.1875  0.0552
18896TIP3    H278104   2.220   6.352  11.393  0.2819 -0.2708  0.1907
18897TIP3   OH278105   1.290   1.956  16.213 -0.0763  0.0192  0.1442
18897TIP3    H178106   1.336   2.016  16.154  1.4544 -0.3609  0.9233
18897TIP3    H278107   1.232   2.013  16.265  0.8794  0.7540  0.4252
18898TIP3   OH278108   2.897   4.007  16.864 -0.1039  0.4715 -0.5059
18898TIP3    H178109   2.900   4.042  16.953 -2.8329 -0.8251  0.2006
18898TIP3    H278110   2.919   4.082  16.808  0.0545  1.7415  1.1816
18899TIP3   OH278111   4.701   2.047   4.541  0.0318 -0.0982 -0.4250
18899TIP3    H178112   4.663   2.032   4.627  2.2725  0.4097  0.7359
18899TIP3    H278113   4.744   2.132   4.548  1.2995 -0.5895 -1.6232
18900TIP3   OH278114   4.225   3.823   1.007  0.2276  1.0557  0.4440
18900TIP3    H178115   4.241   3.861   0.921 -2.7198 -0.0230 -0.6881
18900TIP3    H278116   4.156   3.877   1.045  1.0069  1.0899  1.8908
18901TIP3   OH278117   1.241   0.994   2.632  0.0760  0.5787 -0.0476
18901TIP3    H178118   1.245   1.087   2.655  0.1262  0.6736 -0.4369
18901TIP3    H278119   1.333   0.968   2.624  0.0698  0.4194  0.3484
18902TIP3   OH278120   1.706   3.430  14.748 -0.1994 -0.2558  0.3576
18902TIP3    H178121   1.788   3.479  14.737  0.1692 -1.2507 -1.7383
18902TIP3    H278122   1.685   3.440  14.841  1.1845  1.7517  0.5216
18903TIP3   OH278123   6.531   3.175  16.031  0.6796  0.2578 -0.1617
18903TIP3    H178124   6.554   3.144  15.944  0.2367  1.1366 -0.6060
18903TIP3    H278125   6.589   3.127  16.090  2.8306  1.4841 -1.1351
18904TIP3   OH278126   2.351   1.425   5.484  0.3700 -0.1262  0.7397
18904TIP3    H178127   2.442   1.397   5.489  0.2380 -0.7062  0.0786
18904TIP3    H278128   2.319   1.422   5.574  1.0276  0.1897  0.9929
18905TIP3   OH278129   2.122   1.334   5.312  0.5724 -0.1810 -0.2584
18905TIP3    H178130   2.213   1.347   5.339  0.5302 -0.7930  0.1956
18905TIP3    H278131   2.093   1.421   5.285  1.1868  0.0882 -0.0799
18906TIP3   OH278132   5.346   0.721   1.776 -0.4769  0.4904 -1.0428
18906TIP3    H178133   5.255   0.695   1.763 -0.1525 -1.9102  0.6791
18906TIP3    H278134   5.345   0.773   1.857 -0.2835  0.0004 -0.7180
18907TIP3   OH278135   1.667   6.055   4.538  0.3956 -0.3035 -0.1228
18907TIP3    H178136   1.677   5.974   4.589 -0.1965 -0.5229 -0.3415
18907TIP3    H278137   1.573   6.074   4.544  0.5123  0.2950 -0.1885
18908TIP3   OH278138   6.043   2.754  11.030 -0.2605  0.2820 -0.1711
18908TIP3    H178139   6.027   2.661  11.046 -0.0590  0.2671 -0.0545
18908TIP3    H278140   5.979   2.799  11.085 -1.0100  0.2052 -0.9499
18909TIP3   OH278141   2.328   1.873  12.078  0.1976  0.2747  0.2630
18909TIP3    H178142   2.390   1.849  12.009 -0.3552  0.9714 -0.4910
18909TIP3    H278143   2.293   1.789  12.109  2.4068 -0.2502  1.6008
18910TIP3   OH278144   1.815   3.400   0.651  0.0068  0.1317 -0.0124
18910TIP3    H178145   1.818   3.357   0.736 -3.1032  2.9478  1.7953
18910TIP3    H278146   1.816   3.328   0.588 -1.7707 -2.4249  2.5791
18911TIP3   OH278147   6.099   0.438  11.800  0.4170  0.6898 -0.3598
18911TIP3    H178148   6.010   0.403  11.790  1.2148 -1.0940 -1.5558
18911TIP3    H278149   6.107   0.453  11.894 -1.0397  0.5902 -0.1893
18912TIP3   OH278150   6.340   1.553   0.510  0.7242  0.7741  0.0902
18912TIP3    H178151   6.251   1.543   0.478  0.2997  0.3666  1.3270
18912TIP3    H278152   6.331   1.610   0.587  1.4159  0.1529  0.6535
18913TIP3   OH278153   4.447   4.819   1.530 -0.0930  0.3417  0.2114
18913TIP3    H178154   4.509   4.860   1.591  0.1377 -1.3051  1.1480
18913TIP3    H278155   4.408   4.748   1.580  0.8812 -1.7796 -1.8707
18914TIP3   OH278156   1.612   4.257  14.415 -0.1882  0.5795 -0.7491
18914TIP3    H178157   1.637   4.320  14.483 -0.4673 -1.8752  1.8322
18914TIP3    H278158   1.519   4.273  14.401 -0.1337  1.1106 -0.5493
18915TIP3   OH278159   4.203   0.859  10.358  0.2526 -0.0621  0.1491
18915TIP3    H178160   4.138   0.907  10.306  0.7517  0.6165  0.1234
18915TIP3    H278161   4.166   0.855  10.446  0.8424  1.7110  0.5158
18916TIP3   OH278162   3.473   5.550  16.240 -0.5859 -0.8174  0.5779
18916TIP3    H178163   3.560   5.589  16.248 -1.5427  1.1416  2.3362
18916TIP3    H278164   3.488   5.467  16.194  1.8869  0.4440 -1.1095
18917TIP3   OH278165   1.357   5.423  15.564  0.0894  0.6706 -0.2139
18917TIP3    H178166   1.348   5.508  15.521 -2.7657  0.3590 -0.4172
18917TIP3    H278167   1.419   5.375  15.510 -0.3933  1.6647 -1.7117
18918TIP3   OH278168   5.250   3.618   0.178 -0.0437  0.1216 -0.2911
18918TIP3    H178169   5.257   3.599   0.085  0.2605  1.7476 -0.6254
18918TIP3    H278170   5.172   3.571   0.206  1.1664 -2.3619 -0.8011
18919TIP3   OH278171   3.003   2.446   4.315  0.0663  0.3847  0.0354
18919TIP3    H178172   2.911   2.421   4.319  0.0627 -0.9901 -3.9238
18919TIP3    H278173   3.003   2.541   4.323 -1.7597  0.4552 -0.4494
18920TIP3   OH278174   4.792   4.903  12.398 -0.1873  0.2794 -0.5307
18920TIP3    H178175   4.833   4.838  12.340 -0.3122 -1.1629  0.9189
18920TIP3    H278176   4.842   4.897  12.479 -1.6948  0.2991  0.4335
18921TIP3   OH278177   6.273   4.152  15.633  0.5677 -0.4054 -0.0343
18921TIP3    H178178   6.246   4.233  15.589  1.1101  0.0835  0.5184
18921TIP3    H278179   6.301   4.095  15.562  1.1828  0.2785 -0.3606
18922TIP3   OH278180   0.473   0.499   1.930  0.4608  0.1437  0.1795
18922TIP3    H178181   0.427   0.472   2.010  0.1332  0.2023  0.0084
18922TIP3    H278182   0.555   0.448   1.933  0.1024 -0.4445  0.1554
18923TIP3   OH278183   4.185   4.158  11.443 -0.0252  0.2766  0.0740
18923TIP3    H178184   4.260   4.187  11.390  1.1822 -1.3685  0.7873
18923TIP3    H278185   4.225   4.113  11.518 -1.7210 -1.4793 -0.0093
18924TIP3   OH278186   2.894   1.484   3.493 -0.2445  0.2228  0.1597
18924TIP3    H178187   2.945   1.557   3.528 -0.5695  0.6502 -0.2506
18924TIP3    H278188   2.812   1.486   3.542  0.3155 -0.8019  1.2087
18925TIP3   OH278189   6.133   1.429   2.544 -0.1895 -0.1731  0.1183
18925TIP3    H178190   6.158   1.339   2.565 -1.0071 -0.4453 -0.0517
18925TIP3    H278191   6.215   1.478   2.549  0.1849 -0.8355  0.6872
18926TIP3   OH278192   5.482   4.125  11.312  0.0121  0.1899  0.1892
18926TIP3    H178193   5.540   4.073  11.368 -1.1343  0.2540  1.4878
18926TIP3    H278194   5.527   4.129  11.228  1.1000 -1.1489  0.6732
18927TIP3   OH278195   3.125   2.467  16.177 -0.1314  0.3437 -0.4420
18927TIP3    H178196   3.219   2.483  16.185 -0.2984  0.7730  0.8680
18927TIP3    H278197   3.099   2.515  16.098  0.5102  1.3247 -0.0742
18928TIP3   OH278198   1.197   4.771  17.021  0.2640 -0.0091 -0.0916
18928TIP3    H178199   1.118   4.798  16.973 -0.3876  1.6429  1.7630
18928TIP3    H278200   1.183   4.678  17.039 -1.0070  0.1152 -0.3071
18929TIP3   OH278201   2.697   1.360   0.100  0.5693  0.4530  0.5018
18929TIP3    H178202   2.666   1.449   0.083 -1.4970 -0.1222  1.0340
18929TIP3    H278203   2.622   1.315   0.137  1.2898 -1.7866 -0.5815
18930TIP3   OH278204   4.234   2.874  13.554 -0.1175 -0.1425  0.3524
18930TIP3    H178205   4.168   2.829  13.607 -1.1244  1.7956  0.8534
18930TIP3    H278206   4.281   2.929  13.616  0.4381  0.2130 -0.3712
18931TIP3   OH278207   4.996   3.295  14.640 -0.0864  0.5366 -0.4292
18931TIP3    H178208   4.930   3.312  14.708 -2.0261 -0.0657 -2.0646
18931TIP3    H278209   5.049   3.374  14.638 -1.9534  1.8484 -0.3321
18932TIP3   OH278210   1.005   2.805  12.241 -0.0793  0.2578  0.2886
18932TIP3    H178211   1.039   2.879  12.291  1.5565 -1.2796  1.6342
18932TIP3    H278212   1.034   2.820  12.151 -1.7376  2.3141  0.0337
18933TIP3   OH278213   1.483   1.088  14.397  0.3618 -0.0184  0.0448
18933TIP3    H178214   1.427   1.020  14.434  2.9483 -1.0722  2.4044
18933TIP3    H278215   1.511   1.139  14.473  0.9637  1.7635 -1.3104
18934TIP3   OH278216   2.251   1.408   4.466 -0.3020 -0.2734  0.2397
18934TIP3    H178217   2.311   1.413   4.392 -1.5892 -1.4265 -0.9240
18934TIP3    H278218   2.308   1.389   4.541  1.3727  3.3255  0.1365
18935TIP3   OH278219   3.548   0.804   5.256 -0.5648 -0.2375 -0.4384
18935TIP3    H178220   3.575   0.864   5.325 -1.4299 -1.3770  0.9375
18935TIP3    H278221   3.619   0.809   5.191  0.1223  1.0694  0.3686
18936TIP3   OH278222   6.522   1.139   5.329 -0.7067  0.3434  0.7301
18936TIP3    H178223   6.540   1.173   5.241  0.3710  0.7929  1.0956
18936TIP3    H278224   6.532   1.215   5.386 -0.4400 -0.1330  1.3333
18937TIP3   OH278225   4.257   4.014  13.891 -0.6314  0.1771  0.5262
18937TIP3    H178226   4.265   4.104  13.862  3.9690 -0.6261 -1.5829
18937TIP3    H278227   4.286   4.016  13.982  1.2979  0.7010 -0.0498
18938TIP3   OH278228   4.400   3.152   0.918  0.2630 -0.0431 -0.9507
18938TIP3    H178229   4.413   3.239   0.954 -0.0893  0.2140 -1.4369
18938TIP3    H278230   4.466   3.144   0.848  1.6378 -0.9219  0.3669
18939TIP3   OH278231   5.762   0.966  10.896  0.3764  0.4815 -0.2456
18939TIP3    H178232   5.762   0.942  10.804  1.3064  2.3946 -0.8028
18939TIP3    H278233   5.839   0.924  10.933  0.0614 -0.1975 -0.3449
18940TIP3   OH278234   2.142   3.482   4.090 -0.4096 -0.1761  0.3451
18940TIP3    H178235   2.120   3.547   4.023 -1.0657 -0.6490  0.0944
18940TIP3    H278236   2.059   3.439   4.111 -0.1472 -0.2673  1.2171
18941TIP3   OH278237   1.253   0.612  13.269  0.0695  0.1070  1.1430
18941TIP3    H178238   1.315   0.565  13.211  0.3997  1.2224  0.5656
18941TIP3    H278239   1.308   0.672  13.319 -0.4663  0.6578  1.0846
18942TIP3   OH278240   2.534   2.561  12.929 -0.2378 -0.0660  0.1282
18942TIP3    H178241   2.439   2.558  12.917 -0.1804  1.3119 -0.9001
18942TIP3    H278242   2.569   2.581  12.843  1.0906 -1.5129  0.2788
18943TIP3   OH278243   1.501   0.294  16.392 -0.5995 -0.4727 -0.3032
18943TIP3    H178244   1.427   0.243  16.424 -1.8544  0.5320 -1.4670
18943TIP3    H278245   1.513   0.265  16.302 -0.8092  0.6542 -0.7142
18944TIP3   OH278246   4.849   1.942  14.947 -0.2194  0.0633  0.4934
18944TIP3    H178247   4.838   1.847  14.941  3.2669 -0.3770 -2.0447
18944TIP3    H278248   4.844   1.961  15.041 -1.0262 -2.5917  1.0674
18945TIP3   OH278249   2.291   0.072  12.164  0.5001 -0.2281 -0.3511
18945TIP3    H178250   2.197   0.078  12.147 -0.1192 -0.5654  2.5324
18945TIP3    H278251   2.306  -0.021  12.183  0.8955  0.2046  1.6463
18946TIP3   OH278252   4.807   0.052   0.678 -0.3365 -0.1979  0.3072
18946TIP3    H178253   4.780   0.082   0.591  0.1122  0.5964  0.4274
18946TIP3    H278254   4.877   0.112   0.703  1.5375 -2.1609  0.0216
18947TIP3   OH278255   4.739   3.580   3.661  0.2851 -0.4102  1.3444
18947TIP3    H178256   4.832   3.573   3.638 -0.0940 -0.2220 -0.4104
18947TIP3    H278257   4.698   3.614   3.582 -1.3075 -0.5947  2.0627
18948TIP3   OH278258   4.480   1.790  11.766 -0.3868  0.0206  0.2598
18948TIP3    H178259   4.546   1.787  11.836  0.4294 -0.8641 -0.5084
18948TIP3    H278260   4.480   1.881  11.737  1.6261 -0.2320 -0.7335
18949TIP3   OH278261   0.361   2.253  11.642 -0.1811  0.2055  0.0295
18949TIP3    H178262   0.310   2.237  11.562  0.2813  0.2084 -0.2718
18949TIP3    H278263   0.356   2.348  11.654 -0.7025  0.1471  0.3140
18950TIP3   OH278264   4.137   6.673  11.851 -0.2378  0.0727 -0.5397
18950TIP3    H178265   4.211   6.622  11.818 -0.8208 -1.0280 -0.2038
18950TIP3    H278266   4.093   6.704  11.772  1.1560  1.6285 -0.7395
18951TIP3   OH278267   2.484   0.955   0.872 -0.3388 -0.1379 -0.2921
18951TIP3    H178268   2.559   0.907   0.908 -0.9059 -1.0791 -0.3408
18951TIP3    H278269   2.409   0.899   0.889 -1.0824  0.9185 -0.0122
18952TIP3   OH278270   6.473   0.389   2.873 -0.5333 -0.4410 -0.0618
18952TIP3    H178271   6.564   0.393   2.844 -0.3061 -0.8106  0.5735
18952TIP3    H278272   6.474   0.328   2.947 -0.6126  2.2756  2.3568
18953TIP3   OH278273   5.280   3.463   3.507  0.2394  0.0189  0.3275
18953TIP3    H178274   5.263   3.453   3.601  0.0297 -0.4147  0.2471
18953TIP3    H278275   5.337   3.539   3.501 -0.5879  0.6794  0.7144
18954TIP3   OH278276   5.478   4.125  13.651 -0.9005  0.1220 -0.2359
18954TIP3    H178277   5.532   4.082  13.585 -0.1036 -0.1468  0.5704
18954TIP3    H278278   5.390   4.124  13.615 -1.1141 -2.9945  0.1034
18955TIP3   OH278279   6.387   1.429  11.089  0.6735 -0.1057  0.1145
18955TIP3    H178280   6.440   1.389  11.159  0.8164  1.4575  0.9424
18955TIP3    H278281   6.353   1.510  11.128  2.2235  1.7756 -2.1942
18956TIP3   OH278282   6.776   0.419   2.923  0.1046  0.3458 -0.6828
18956TIP3    H178283   6.827   0.452   2.849  0.3084  0.6026 -0.4243
18956TIP3    H278284   6.823   0.448   3.001  0.0590 -0.1980 -0.4511
18957TIP3   OH278285   0.476   2.818   1.384  0.0710 -0.3461 -0.4585
18957TIP3    H178286   0.559   2.850   1.350  0.5905 -0.2200  0.8872
18957TIP3    H278287   0.487   2.723   1.388 -0.5568 -0.5287 -2.0376
18958TIP3   OH278288   4.062   2.579  14.250  0.2380  0.4667 -1.1595
18958TIP3    H178289   4.003   2.621  14.187 -0.4745  1.1635 -0.0642
18958TIP3    H278290   4.021   2.593  14.335  1.3421 -0.1655 -0.4900
18959TIP3   OH278291   2.522   6.602  15.173 -0.2600  0.6973  0.0559
18959TIP3    H178292   2.548   6.574  15.261 -2.6824  2.0922  1.3077
18959TIP3    H278293   2.427   6.612  15.177 -0.4871  0.6483 -2.8104
18960TIP3   OH278294   6.278   0.174  16.581 -0.4058 -0.0725  0.3518
18960TIP3    H178295   6.260   0.265  16.602  0.3501 -0.0308  0.8519
18960TIP3    H278296   6.255   0.166  16.488 -0.0781  0.7351  0.1941
18961TIP3   OH278297   6.406   2.267  14.915 -1.1152 -0.4333  0.1105
18961TIP3    H178298   6.400   2.347  14.862 -1.4686 -1.3734 -1.3377
18961TIP3    H278299   6.484   2.222  14.881 -0.8801 -0.6731  0.9525
18962TIP3   OH278300   6.432   0.372   1.438 -0.2331 -0.1838 -0.5101
18962TIP3    H178301   6.479   0.337   1.361  1.8945  0.1076  0.5769
18962TIP3    H278302   6.488   0.350   1.512 -2.1532 -0.2929  0.9775
18963TIP3   OH278303   4.690   3.608  11.737 -0.6376 -0.1834  0.3506
18963TIP3    H178304   4.741   3.609  11.818  1.9075  1.9510 -1.1136
18963TIP3    H278305   4.599   3.601  11.766  0.1475  0.7162  3.4007
18964TIP3   OH278306   4.932   0.443   4.583 -0.0755  0.5063 -0.0052
18964TIP3    H178307   4.896   0.493   4.509  1.9449  1.0459 -0.7032
18964TIP3    H278308   4.855   0.412   4.630 -1.4542  2.7231 -0.5984
18965TIP3   OH278309   2.945   5.864  12.068 -0.5719  0.0474 -0.3292
18965TIP3    H178310   2.926   5.856  11.974 -0.9695  0.1726 -0.2640
18965TIP3    H278311   2.894   5.793  12.108  1.7015 -1.7558 -0.4491
18966TIP3   OH278312   4.033   6.379  11.727 -0.6756 -0.3471 -0.4185
18966TIP3    H178313   3.949   6.425  11.726 -0.1163  0.6964 -0.6880
18966TIP3    H278314   4.076   6.409  11.807 -0.8158 -1.3512  0.0348
18967TIP3   OH278315   6.734   1.356  13.714 -0.4164  0.5052  0.1853
18967TIP3    H178316   6.753   1.273  13.670 -2.0631 -0.2825  0.8951
18967TIP3    H278317   6.800   1.417  13.679 -0.2234 -0.6525 -1.6052
18968TIP3   OH278318   5.254   5.836  13.083 -0.0545 -0.0098  0.0030
18968TIP3    H178319   5.327   5.793  13.128 -0.3177 -0.5001 -0.0299
18968TIP3    H278320   5.177   5.812  13.133 -0.5817 -1.9643 -1.6239
18969TIP3   OH278321   6.246   4.457   3.281 -0.4969 -0.2569  0.0370
18969TIP3    H178322   6.298   4.461   3.201  0.1416 -1.1301  0.3972
18969TIP3    H278323   6.225   4.365   3.292 -1.5377  0.0014  0.2803
18970TIP3   OH278324   4.046   5.923  16.010 -0.3024 -0.0139 -0.5718
18970TIP3    H178325   4.044   5.951  16.101 -0.3047 -2.7473  0.3596
18970TIP3    H278326   4.087   5.837  16.012 -0.5549 -0.2847 -3.1408
18971TIP3   OH278327   1.626   0.876   2.916 -0.2787  0.0018  0.4932
18971TIP3    H178328   1.711   0.903   2.950 -0.0834 -0.8395  0.7174
18971TIP3    H278329   1.621   0.782   2.937 -0.9486 -0.1202 -0.1613
18972TIP3   OH278330   4.140   0.509  14.376  0.7355  1.0292  0.0445
18972TIP3    H178331   4.220   0.524  14.325  0.7827 -0.5283 -0.3769
18972TIP3    H278332   4.170   0.464  14.455  0.1341 -1.2783 -0.9563
18973TIP3   OH278333   0.860   4.565   4.919  0.1340  0.3156 -0.6177
18973TIP3    H178334   0.944   4.560   4.874  0.3003  1.0466 -0.3994
18973TIP3    H278335   0.882   4.563   5.012  0.0758  2.4047 -0.5156
18974TIP3   OH278336   0.744   0.072  14.975 -0.0889  1.0021 -0.1190
18974TIP3    H178337   0.759   0.056  15.068 -1.3143  0.4005 -0.0111
18974TIP3    H278338   0.654   0.104  14.970  0.1315  1.5120 -1.0559
18975TIP3   OH278339   5.507   1.577  15.956 -0.3882 -0.1686 -0.7546
18975TIP3    H178340   5.441   1.515  15.988 -1.2540 -0.3125 -2.6420
18975TIP3    H278341   5.518   1.640  16.027 -1.1513 -1.2305  0.3381
18976TIP3   OH278342   3.002   3.536   2.788  0.1861 -0.1407  0.0546
18976TIP3    H178343   2.916   3.500   2.766  0.5389 -1.6682  1.0240
18976TIP3    H278344   3.062   3.496   2.724  0.2675  0.4724 -0.2580
18977TIP3   OH278345   3.798   6.683  11.983  0.5224  0.0376  0.0726
18977TIP3    H178346   3.771   6.752  11.923  1.0828  1.0136  0.9206
18977TIP3    H278347   3.815   6.728  12.066  0.3817 -1.1867  0.8002
18978TIP3   OH278348   3.675   4.725   3.003  0.0117 -0.4471  0.1789
18978TIP3    H178349   3.664   4.811   2.963 -0.2304  0.0183  1.2240
18978TIP3    H278350   3.770   4.714   3.009  0.0435 -0.2403  0.0795
18979TIP3   OH278351   6.348   5.776   0.496  0.1754  0.5324  0.1255
18979TIP3    H178352   6.423   5.716   0.493  1.1319  1.7236 -0.7124
18979TIP3    H278353   6.273   5.721   0.472  0.4954 -1.0041  2.3314
18980TIP3   OH278354   0.135   3.937  16.349  0.1009  0.1009 -0.5615
18980TIP3    H178355   0.210   3.885  16.376 -0.0680 -0.0870 -0.4577
18980TIP3    H278356   0.173   4.009  16.298  0.4152  0.4127  0.0998
18981TIP3   OH278357   1.871   6.697  16.911 -0.4472  0.3135 -0.0318
18981TIP3    H178358   1.966   6.692  16.897 -0.4156  0.9104 -0.0492
18981TIP3    H278359   1.859   6.769  16.973 -0.9670  1.0745 -0.9709
18982TIP3   OH278360   3.618   6.579   5.561  0.4715  0.6165 -0.5994
18982TIP3    H178361   3.631   6.634   5.639  1.9728  0.6588 -0.8515
18982TIP3    H278362   3.601   6.492   5.596  1.1273  0.6379 -0.2108
18983TIP3   OH278363   6.443   5.327  16.237 -0.1931 -0.5489  0.1875
18983TIP3    H178364   6.441   5.421  16.255  1.2791 -0.1398 -1.4961
18983TIP3    H278365   6.382   5.315  16.165 -1.3257 -1.1317  1.2054
18984TIP3   OH278366   6.726   6.670   0.918  0.0742 -0.7289 -0.1773
18984TIP3    H178367   6.750   6.583   0.886 -0.1396 -0.7708 -0.2250
18984TIP3    H278368   6.809   6.710   0.944  0.4283 -0.2356 -1.9147
18985TIP3   OH278369   3.058   0.983  14.014  0.6674 -0.6638  0.0213
18985TIP3    H178370   3.133   0.988  14.073 -0.1443 -0.3519  1.0510
18985TIP3    H278371   3.025   1.073  14.009  1.7877 -0.3124 -2.3643
18986TIP3   OH278372   3.204   6.011  11.931  0.7921  0.2706 -0.1250
18986TIP3    H178373   3.173   5.921  11.947  0.8972  0.3859  0.8227
18986TIP3    H278374   3.153   6.041  11.856 -2.4548  0.8931  2.1190
18987TIP3   OH278375   4.456   4.545  13.915 -0.2599  0.2240 -0.3536
18987TIP3    H178376   4.546   4.568  13.939 -0.8236  0.8821  1.1915
18987TIP3    H278377   4.408   4.627  13.917 -0.8034 -0.0178 -1.8064
18988TIP3   OH278378   3.994   6.007   4.514  0.1768 -0.1409 -0.3817
18988TIP3    H178379   4.010   5.923   4.470  1.5054  0.0884 -0.3868
18988TIP3    H278380   4.071   6.060   4.493  0.2872  0.3928  1.2463
18989TIP3   OH278381   4.705   2.838   4.890  0.2884 -0.9132 -0.3459
18989TIP3    H178382   4.751   2.766   4.934 -0.4638 -1.5056 -0.4988
18989TIP3    H278383   4.673   2.799   4.809 -0.7408 -0.5987 -0.0995
18990TIP3   OH278384   5.069   2.032  12.068  0.3809 -0.2656 -0.4345
18990TIP3    H178385   5.142   2.081  12.029  2.2532 -2.2394  0.3811
18990TIP3    H278386   5.110   1.981  12.138 -1.9283 -0.9984  0.4540
18991TIP3   OH278387   1.416   5.797   2.560 -0.0478 -0.4974 -0.0644
18991TIP3    H178388   1.473   5.871   2.538 -1.4663  0.7095  0.0971
18991TIP3    H278389   1.462   5.752   2.631  0.5629  0.6263  0.2919
18992TIP3   OH278390   1.061   3.438  13.962 -0.5384 -0.2774  0.4067
18992TIP3    H178391   1.000   3.390  13.906 -1.4005  0.6143  0.5481
18992TIP3    H278392   1.006   3.482  14.027  0.2541  0.4400  0.6243
18993TIP3   OH278393   5.160   4.303   0.916 -0.5031 -0.0147  0.5190
18993TIP3    H178394   5.073   4.339   0.898 -1.0444 -1.0356  1.0017
18993TIP3    H278395   5.176   4.241   0.844 -0.4688 -0.3119  0.7779
18994TIP3   OH278396   6.173   3.698   3.747  0.7055 -0.1582  0.3098
18994TIP3    H178397   6.233   3.744   3.688  0.1269  0.6404  0.3279
18994TIP3    H278398   6.121   3.768   3.788 -2.0331 -0.9075 -1.6256
18995TIP3   OH278399   3.848   1.487  14.583  0.0349  0.0216 -0.1366
18995TIP3    H178400   3.823   1.400  14.550 -1.9351  0.0858  1.0337
18995TIP3    H278401   3.816   1.548  14.517 -2.8278  0.0736  1.1369
18996TIP3   OH278402   2.991   5.249  15.254 -0.1848  0.8007 -0.2295
18996TIP3    H178403   2.896   5.250  15.266 -0.3827 -0.9294 -1.2970
18996TIP3    H278404   3.023   5.324  15.305 -2.0292  0.9329  0.7976
18997TIP3   OH278405   1.419   4.244  11.501 -0.4195 -0.0828  0.7902
18997TIP3    H178406   1.464   4.194  11.433 -0.7588 -0.4139  0.8059
18997TIP3    H278407   1.358   4.300  11.453  1.4433  1.9542  0.5862
18998TIP3   OH278408   3.887   6.641   5.473  0.5650 -0.0904  0.0066
18998TIP3    H178409   3.818   6.576   5.487  2.0738 -1.3607  2.1501
18998TIP3    H278410   3.846   6.725   5.495 -0.7948 -0.5551 -0.6131
18999TIP3   OH278411   2.433   3.758   3.880 -0.0368 -0.4120  0.0090
18999TIP3    H178412   2.376   3.714   3.817 -1.1915  1.1223 -0.0839
18999TIP3    H278413   2.517   3.765   3.836 -0.1463 -1.4946 -0.4004
19000TIP3   OH278414   2.117   6.444  13.497 -0.2113 -0.0595 -0.0401
19000TIP3    H178415   2.107   6.379  13.428  0.7720 -0.0339 -0.2314
19000TIP3    H278416   2.200   6.488  13.476 -0.4686  0.7143  0.5258
19001TIP3   OH278417   5.642   4.588   4.984  0.1827  0.3798 -0.1467
19001TIP3    H178418   5.629   4.536   4.905  0.0698  0.1881 -0.0015
19001TIP3    H278419   5.623   4.528   5.056  1.9834  0.0227  0.0842
19002TIP3   OH278420   1.479   2.375  17.061 -0.1494 -0.1827  0.2065
19002TIP3    H178421   1.385   2.359  17.051 -0.0277 -1.2580  0.7002
19002TIP3    H278422   1.513   2.371  16.972 -0.2820 -1.8155  0.2005
19003TIP3   OH278423   0.210   3.798  14.051  0.8054  0.0295  0.0348
19003TIP3    H178424   0.118   3.827  14.052  0.8924  0.4582 -1.6091
19003TIP3    H278425   0.242   3.819  14.139 -0.9475 -1.1396  1.0292
19004TIP3   OH278426   4.582   0.519  11.424 -0.3328 -0.5199 -0.6705
19004TIP3    H178427   4.495   0.544  11.394 -0.1674  0.2965 -0.4985
19004TIP3    H278428   4.569   0.489  11.514 -0.2197  1.1710 -0.0636
19005TIP3   OH278429   1.910   4.102  13.123  0.0600 -0.4863 -0.4967
19005TIP3    H178430   1.917   4.179  13.180 -1.5627 -0.8733  0.3031
19005TIP3    H278431   1.952   4.127  13.042 -0.4951  1.2804 -0.2692
19006TIP3   OH278432   5.220   6.102  10.976  0.4770  0.2141 -0.2679
19006TIP3    H178433   5.262   6.097  10.890  0.4593  1.0389 -0.3298
19006TIP3    H278434   5.286   6.071  11.037  0.3021 -0.9261 -0.6281
19007TIP3   OH278435   6.749   4.112   0.748  0.3005 -0.1819 -0.1853
19007TIP3    H178436   6.777   4.145   0.663 -0.9142  0.9297 -0.1908
19007TIP3    H278437   6.653   4.118   0.745  0.2847  1.6741  1.9432
19008TIP3   OH278438   2.535   1.756   3.105  0.0215 -0.0742 -0.0670
19008TIP3    H178439   2.580   1.742   3.188  0.7075  0.2007 -0.3819
19008TIP3    H278440   2.606   1.774   3.043 -0.3130 -2.0657 -1.1035
19009TIP3   OH278441   0.675   2.306  13.982 -0.6673 -0.4611 -0.7237
19009TIP3    H178442   0.679   2.220  13.942 -0.0895 -0.5235 -0.5411
19009TIP3    H278443   0.744   2.357  13.938  0.1465 -0.6069  0.3314
19010TIP3   OH278444   5.991   3.560  15.430  0.0649  0.3829  0.4561
19010TIP3    H178445   5.951   3.588  15.513  0.1828 -0.4170  0.7978
19010TIP3    H278446   6.078   3.600  15.431  0.2542 -0.0233  0.9589
19011TIP3   OH278447   5.168   1.418   6.191 -1.0281 -0.3647  0.3134
19011TIP3    H178448   5.110   1.409   6.267  1.0973 -1.0647  1.9598
19011TIP3    H278449   5.241   1.358   6.209  0.1970  0.4136 -1.6769
19012TIP3   OH278450   3.302   5.056   5.760  0.0354  0.9246 -0.2130
19012TIP3    H178451   3.225   5.053   5.703  0.2220 -1.6979 -0.4776
19012TIP3    H278452   3.268   5.030   5.846  0.5087  0.2161 -0.2293
19013TIP3   OH278453   0.742   4.872  11.273 -0.1251 -0.0084 -1.0235
19013TIP3    H178454   0.715   4.960  11.245 -0.4837  0.1727 -0.1351
19013TIP3    H278455   0.665   4.837  11.318 -0.1283 -0.9495 -1.7334
19014TIP3   OH278456   1.899   6.123  16.721 -0.3440 -0.0186  0.3706
19014TIP3    H178457   1.885   6.113  16.815  0.7976 -2.2644  0.3702
19014TIP3    H278458   1.994   6.122  16.711 -0.4163  1.2067 -0.7598
19015TIP3   OH278459   3.865   2.469  11.389 -0.1542 -0.1816 -0.3624
19015TIP3    H178460   3.929   2.441  11.325 -1.1750 -0.5818 -1.2424
19015TIP3    H278461   3.881   2.563  11.401  0.5666 -0.2778 -0.5818
19016TIP3   OH278462   4.122   4.890  11.672 -0.4057  0.3273  0.2296
19016TIP3    H178463   4.189   4.957  11.680 -1.5261  1.4988  0.2358
19016TIP3    H278464   4.170   4.808  11.666  1.0455  1.1913 -0.5887
19017TIP3   OH278465   5.735   1.622   1.443 -0.1371  0.6048  0.1026
19017TIP3    H178466   5.821   1.664   1.442 -0.2067  0.8311  1.4631
19017TIP3    H278467   5.746   1.545   1.499  0.1462 -1.6609 -2.8103
19018TIP3   OH278468   1.489   3.020   3.824 -0.4049 -0.1577 -0.6478
19018TIP3    H178469   1.510   2.931   3.852  3.5818  0.9672  0.6594
19018TIP3    H278470   1.479   3.069   3.906 -1.5449  0.8348 -1.3453
19019TIP3   OH278471   2.120   4.207  14.645  0.2272 -0.9061 -0.1604
19019TIP3    H178472   2.141   4.229  14.736  1.3995 -0.3938 -0.5326
19019TIP3    H278473   2.192   4.244  14.595 -0.3009 -1.3714 -1.2863
19020TIP3   OH278474   3.543   5.287   2.325  0.0673  0.1433  0.2332
19020TIP3    H178475   3.463   5.278   2.377  0.5031 -2.1064  0.6010
19020TIP3    H278476   3.569   5.379   2.338 -1.4243  0.4292  1.6059
19021TIP3   OH278477   5.063   1.176  17.057 -0.2168 -0.7446 -0.3882
19021TIP3    H178478   5.045   1.179  17.151  0.0992 -1.6953 -0.2830
19021TIP3    H278479   5.045   1.264  17.026  1.3083  0.0406  0.8536
19022TIP3   OH278480   0.474   1.990  11.716  0.0957  0.1319 -0.5353
19022TIP3    H178481   0.569   2.001  11.705  0.4270 -0.7311  1.1135
19022TIP3    H278482   0.454   1.909  11.668  0.9320 -1.7914  2.1295
19023TIP3   OH278483   0.356   5.611  14.022  0.4964  0.5619  0.3250
19023TIP3    H178484   0.302   5.622  14.100 -1.1980  1.1741 -0.8750
19023TIP3    H278485   0.403   5.530  14.037 -0.9079 -0.1076  1.3578
19024TIP3   OH278486   6.337   4.366   2.068 -0.1747  0.1245 -0.2289
19024TIP3    H178487   6.345   4.369   1.973  1.7324  2.1673 -0.1062
19024TIP3    H278488   6.283   4.442   2.090  0.7211  0.6118  0.3674
19025TIP3   OH278489   3.927   2.862  15.355 -0.5508  0.2275  0.2754
19025TIP3    H178490   3.861   2.797  15.377 -0.4911  0.9634  2.9161
19025TIP3    H278491   4.009   2.824  15.385 -0.3098  0.8909  0.4764
19026TIP3   OH278492   6.207   4.658  15.957  0.2919  0.6361 -0.0102
19026TIP3    H178493   6.130   4.661  16.014 -0.2356  1.2006 -0.7224
19026TIP3    H278494   6.281   4.674  16.014 -0.2562  1.5286  0.4642
19027TIP3   OH278495   2.148   2.994   5.112 -0.0462  0.0688  0.3167
19027TIP3    H178496   2.156   2.951   5.027 -1.9675 -1.5831  0.8761
19027TIP3    H278497   2.178   2.929   5.175  0.0671  0.7620  0.9931
19028TIP3   OH278498   3.859   5.747  14.967  0.0584 -0.2386 -0.3051
19028TIP3    H178499   3.786   5.780  15.019 -0.1443  0.1913 -0.8429
19028TIP3    H278500   3.833   5.659  14.941 -0.3451 -0.0297 -0.6213
19029TIP3   OH278501   3.254   0.838   6.273  0.6954 -0.1869 -0.4592
19029TIP3    H178502   3.162   0.813   6.270  1.0351 -1.9567  1.5218
19029TIP3    H278503   3.253   0.933   6.287 -0.9965 -0.5442  2.9101
19030TIP3   OH278504   5.112   0.623   5.869 -0.8047 -0.1280  0.3506
19030TIP3    H178505   5.177   0.683   5.906 -1.2600 -0.3934  1.6371
19030TIP3    H278506   5.109   0.550   5.931 -1.1739 -0.8735 -0.5321
19031TIP3   OH278507   1.438   2.720  12.485  0.1812 -0.0787 -0.6452
19031TIP3    H178508   1.484   2.804  12.485 -0.3940  0.2381 -0.2053
19031TIP3    H278509   1.508   2.655  12.485  0.6900  0.3357 -3.7331
19032TIP3   OH278510   3.503   2.952   2.926  0.8600  0.0250 -0.0091
19032TIP3    H178511   3.512   3.033   2.876  2.4026  0.7783  1.3934
19032TIP3    H278512   3.438   2.973   2.993  0.4274 -0.2830 -0.3237
19033TIP3   OH278513   0.359   6.290   0.741  0.0817 -0.3100 -0.2227
19033TIP3    H178514   0.301   6.215   0.752  0.3753 -0.5120 -0.0543
19033TIP3    H278515   0.299   6.365   0.733 -0.1864 -0.3749  0.9790
19034TIP3   OH278516   5.653   1.617  15.178  0.8491 -0.2879  0.1288
19034TIP3    H178517   5.728   1.582  15.227  0.3621  1.1134  2.0045
19034TIP3    H278518   5.691   1.652  15.097  1.6315 -3.0497 -0.8027
19035TIP3   OH278519   3.581   4.727  14.482 -0.2523 -0.1501 -0.7238
19035TIP3    H178520   3.563   4.650  14.537 -0.8813  1.0826  0.8553
19035TIP3    H278521   3.676   4.731  14.478 -0.2006 -0.3952  0.0804
19036TIP3   OH278522   2.032   3.278   2.417  0.2701 -0.3717  0.2080
19036TIP3    H178523   1.990   3.193   2.403  0.0342 -0.2922  0.4205
19036TIP3    H278524   1.992   3.311   2.498  0.3738 -0.0668  0.1353
19037TIP3   OH278525   6.728   4.802   5.342  0.2617  0.5077 -0.5550
19037TIP3    H178526   6.693   4.874   5.289  0.3651  1.8368  1.0941
19037TIP3    H278527   6.673   4.800   5.420  0.3306 -1.1639 -0.5041
19038TIP3   OH278528   1.978   4.242   3.651 -0.1052 -0.7889 -0.1138
19038TIP3    H178529   2.071   4.228   3.668  0.0768 -0.1459 -0.5115
19038TIP3    H278530   1.932   4.187   3.715  0.5351  0.9314  1.9423
19039TIP3   OH278531   1.710   0.056   0.752 -0.1427 -0.0558 -0.0942
19039TIP3    H178532   1.622   0.077   0.782 -0.3074  1.8469 -1.7167
19039TIP3    H278533   1.708   0.074   0.658  1.7076 -0.9351 -0.3435
19040TIP3   OH278534   6.248   5.425  13.406  0.6784  0.1791  0.0417
19040TIP3    H178535   6.234   5.337  13.372  2.0501 -0.8647  1.9712
19040TIP3    H278536   6.333   5.452  13.372  0.0102  1.0542 -1.0214
19041TIP3   OH278537   6.608   3.116  11.663  0.5452 -0.6406  0.1039
19041TIP3    H178538   6.623   3.198  11.710  0.8766 -0.5626 -0.1404
19041TIP3    H278539   6.512   3.110  11.656  0.5263 -0.2029 -0.0100
19042TIP3   OH278540   4.185   2.933   3.572  0.0767 -0.5164 -0.4372
19042TIP3    H178541   4.232   3.013   3.596  0.4201 -0.4815 -1.2094
19042TIP3    H278542   4.095   2.948   3.603  0.3342 -0.1868  0.1758
19043TIP3   OH278543   4.388   3.573   2.566  0.1162  0.2473 -0.2156
19043TIP3    H178544   4.438   3.615   2.636 -0.5733 -2.6340  2.2168
19043TIP3    H278545   4.297   3.583   2.594 -0.1863 -0.6937 -0.8449
19044TIP3   OH278546   2.802   3.794   0.608  0.2868  0.5039  0.1787
19044TIP3    H178547   2.744   3.727   0.644  1.0042 -0.8533 -1.0864
19044TIP3    H278548   2.816   3.768   0.517  0.9875  2.1123 -0.2147
19045TIP3   OH278549   5.366   6.808   2.782  0.5234  0.3676  0.3539
19045TIP3    H178550   5.378   6.837   2.872  1.0119  1.2985  0.0070
19045TIP3    H278551   5.385   6.886   2.729 -0.1519 -0.0531 -0.5359
19046TIP3   OH278552   3.812   4.854  13.071  0.4518 -0.0359 -0.1686
19046TIP3    H178553   3.823   4.948  13.088  0.7861 -0.1607  0.3339
19046TIP3    H278554   3.727   4.832  13.107  0.1911  0.1551 -0.6566
19047TIP3   OH278555   2.907   2.284  17.100 -0.1281  0.0155 -0.9739
19047TIP3    H178556   2.830   2.282  17.157  0.8405  2.3145  0.5775
19047TIP3    H278557   2.944   2.196  17.106  0.3300  0.3020  2.6423
19048TIP3   OH278558   3.949   3.301  12.863 -0.2271  0.4896 -0.8349
19048TIP3    H178559   3.958   3.350  12.781 -0.6802  1.0363 -0.5663
19048TIP3    H278560   3.870   3.337  12.903 -0.1476  0.0463 -0.2781
19049TIP3   OH278561   1.233   3.022  11.406 -0.8473  0.1266  0.0443
19049TIP3    H178562   1.185   3.103  11.420  0.1300  0.7653 -0.2565
19049TIP3    H278563   1.324   3.049  11.395 -0.6669 -0.8997 -1.2080
19050TIP3   OH278564   6.195   5.217  11.714 -0.3502 -0.3830 -0.0769
19050TIP3    H178565   6.175   5.139  11.767 -2.1546  0.1839  0.1318
19050TIP3    H278566   6.114   5.235  11.667  0.4054  0.7153 -0.9926
19051TIP3   OH278567   6.386   2.721   6.706  0.2645  0.2705 -0.3367
19051TIP3    H178568   6.375   2.626   6.714 -0.5301  0.3560 -0.3626
19051TIP3    H278569   6.439   2.732   6.628 -0.1911 -0.1262 -0.7084
19052TIP3   OH278570   4.731   6.232   5.485  0.3077  0.0905 -0.8651
19052TIP3    H178571   4.745   6.138   5.491  0.9251  0.1563 -1.2012
19052TIP3    H278572   4.754   6.266   5.571 -0.3890 -0.1173 -0.5898
19053TIP3   OH278573   0.072   4.833  16.031  0.0464  0.0450  0.3833
19053TIP3    H178574   0.044   4.924  16.020  1.2510  0.4208  0.2901
19053TIP3    H278575   0.142   4.822  15.967 -0.7091 -1.2471 -0.2725
19054TIP3   OH278576   2.819   0.162   3.224  0.0683  0.5069  0.2478
19054TIP3    H178577   2.749   0.155   3.158  0.5694 -2.8129 -0.1245
19054TIP3    H278578   2.774   0.144   3.307  0.2602 -0.4711  0.1483
19055TIP3   OH278579   1.142   6.502  11.897  0.2096  0.3270 -0.0677
19055TIP3    H178580   1.189   6.566  11.951 -3.6701  1.8123  1.9541
19055TIP3    H278581   1.054   6.538  11.888 -1.1765 -3.0292 -2.0374
19056TIP3   OH278582   5.282   2.797   5.970 -0.3863  0.0707 -0.3905
19056TIP3    H178583   5.356   2.842   6.010 -0.6873  0.8378 -0.6686
19056TIP3    H278584   5.208   2.856   5.985 -0.8577 -0.5037 -0.4563
19057TIP3   OH278585   5.187   3.281  12.912  0.6550 -0.2545 -0.3148
19057TIP3    H178586   5.136   3.351  12.952  1.8200  0.0917  0.6303
19057TIP3    H278587   5.211   3.315  12.826 -0.1748 -0.1835 -0.5284
19058TIP3   OH278588   4.943   1.532  12.904  0.0155  0.3977 -0.2264
19058TIP3    H178589   5.008   1.530  12.834 -1.0107 -0.9653 -1.1726
19058TIP3    H278590   4.890   1.609  12.886 -0.0135  0.2587 -0.7455
19059TIP3   OH278591   3.917   1.102   3.083  0.0206 -0.6284 -0.2511
19059TIP3    H178592   3.964   1.177   3.118  0.0034 -0.7646  0.0738
19059TIP3    H278593   3.969   1.072   3.009  0.5371 -0.8767  0.2017
19060TIP3   OH278594   6.244   6.517  15.981  0.0692 -0.0077 -0.0705
19060TIP3    H178595   6.311   6.474  16.033  0.3909  2.3627  1.6196
19060TIP3    H278596   6.197   6.572  16.043 -1.8667  0.2597 -1.6771
19061TIP3   OH278597   4.092   3.417   3.284 -0.3290 -0.4085  0.6952
19061TIP3    H178598   4.169   3.381   3.240 -0.1452 -0.0829  0.7456
19061TIP3    H278599   4.082   3.505   3.247 -2.2759 -1.3846 -1.3151
19062TIP3   OH278600   2.460   1.330   1.314 -0.4605 -0.4413  0.2786
19062TIP3    H178601   2.498   1.310   1.228  1.3272  0.8574  0.7028
19062TIP3    H278602   2.366   1.333   1.299 -0.3240 -2.0893 -1.2224
19063TIP3   OH278603   0.311   5.064  16.223 -0.4109 -0.3700  0.7574
19063TIP3    H178604   0.346   5.110  16.299  0.9090 -0.0527 -0.0110
19063TIP3    H278605   0.216   5.070  16.233 -0.3119  2.2076  0.8921
19064TIP3   OH278606   1.860   0.556   1.837 -0.2575 -0.2471  0.4231
19064TIP3    H178607   1.830   0.473   1.799  0.9275 -1.2006  1.5032
19064TIP3    H278608   1.811   0.563   1.919  0.9837 -0.8371  1.2398
19065TIP3   OH278609   2.896   2.951  15.423  0.2247 -0.1387  0.7548
19065TIP3    H178610   2.983   2.991  15.419  0.3547 -0.4559  0.3514
19065TIP3    H278611   2.907   2.875  15.481  0.9298 -1.8707 -1.4712
19066TIP3   OH278612   6.786   6.119   1.633 -0.1061  0.4126  0.4024
19066TIP3    H178613   6.717   6.054   1.619  1.2567 -1.0880  0.3966
19066TIP3    H278614   6.740   6.196   1.666 -1.9844  0.0425 -1.1905
19067TIP3   OH278615   3.395   5.778  15.250  0.4581 -0.2927 -0.3297
19067TIP3    H178616   3.309   5.738  15.262  0.5293 -0.1193  1.0121
19067TIP3    H278617   3.377   5.870  15.232  0.3486 -0.3588 -0.5518
19068TIP3   OH278618   0.098   2.343   1.986 -0.3697  0.0743  0.4130
19068TIP3    H178619   0.003   2.334   1.991 -0.3529 -0.8407 -0.6228
19068TIP3    H278620   0.121   2.312   1.898  1.0432 -1.4101  1.2351
19069TIP3   OH278621   1.020   3.194  11.484 -0.4957 -0.1740  0.2020
19069TIP3    H178622   0.944   3.136  11.486  0.3371 -1.2886  1.0966
19069TIP3    H278623   1.032   3.221  11.575 -0.7174  1.2281 -0.1660
19070TIP3   OH278624   6.141   5.651   2.451 -0.0928  0.6848  0.0924
19070TIP3    H178625   6.068   5.592   2.472  0.5813  0.0787  0.7735
19070TIP3    H278626   6.098   5.729   2.416 -1.0756  0.3088  0.4052
19071TIP3   OH278627   1.457   0.249   1.780  0.0158  0.4490 -0.3728
19071TIP3    H178628   1.441   0.339   1.752 -2.1405  0.3851  0.4525
19071TIP3    H278629   1.550   0.235   1.764  0.0737  2.2926 -1.9837
19072TIP3   OH278630   3.169   4.132   6.049 -0.3372  0.0125 -0.2980
19072TIP3    H178631   3.194   4.082   5.971  2.7407 -0.7998  1.0490
19072TIP3    H278632   3.168   4.068   6.120 -1.5346  0.9865  0.6147
19073TIP3   OH278633   0.720   6.620  13.951  0.2446 -0.5994 -0.0826
19073TIP3    H178634   0.749   6.606  14.041 -1.5688 -0.4537  0.5625
19073TIP3    H278635   0.685   6.535  13.925 -1.8701  0.0593  0.4089
19074TIP3   OH278636   4.602   2.152   1.562 -0.1859 -0.1682 -0.2461
19074TIP3    H178637   4.601   2.088   1.633  0.9451  0.6851  0.5734
19074TIP3    H278638   4.531   2.212   1.583  1.0777  0.9436  1.0264
19075TIP3   OH278639   2.336   2.271   0.087  0.2015  0.7285  0.3425
19075TIP3    H178640   2.409   2.233   0.135 -0.2184 -1.0304 -0.3100
19075TIP3    H278641   2.354   2.365   0.084  0.8595  0.7333  2.8166
19076TIP3   OH278642   0.600   0.994  17.009  0.3897  0.5926  0.1140
19076TIP3    H178643   0.679   0.973  16.960 -0.1385  1.0085 -0.9383
19076TIP3    H278644   0.606   1.088  17.026 -0.7173  1.0079 -1.5648
19077TIP3   OH278645   5.955   5.853   3.712  0.2227  0.3592  0.5365
19077TIP3    H178646   5.906   5.910   3.770 -0.8729  0.9485 -0.9055
19077TIP3    H278647   5.967   5.772   3.762 -2.2819  0.1710  0.9511
19078TIP3   OH278648   1.779   1.606  13.666 -0.3513 -0.3647  0.0432
19078TIP3    H178649   1.713   1.667  13.631 -0.3347 -0.5956 -0.3931
19078TIP3    H278650   1.728   1.538  13.708 -0.6205 -2.4717 -3.2961
19079TIP3   OH278651   1.064   2.918  14.591  0.0387  0.7032  0.0720
19079TIP3    H178652   0.976   2.882  14.585 -0.2247  1.3601 -0.1474
19079TIP3    H278653   1.107   2.867  14.659 -0.3127 -0.0252 -0.2429
19080TIP3   OH278654   4.191   4.380  13.443  0.2893 -0.0194  0.0722
19080TIP3    H178655   4.139   4.452  13.409 -1.3626 -0.8329  0.7779
19080TIP3    H278656   4.174   4.307  13.384 -1.7557 -1.1306  1.9152
19081TIP3   OH278657   4.782   6.211  14.132  0.1981 -0.1960 -0.2314
19081TIP3    H178658   4.687   6.223  14.142  0.3350  0.1152  0.7783
19081TIP3    H278659   4.808   6.159  14.208  0.8039 -0.5100 -0.6445
19082TIP3   OH278660   0.351   5.238  13.385 -0.7202 -0.6711 -0.0040
19082TIP3    H178661   0.322   5.237  13.293  1.2408  0.4670 -0.6957
19082TIP3    H278662   0.447   5.240  13.380 -0.5580 -0.7993  2.0932
19083TIP3   OH278663   3.051   5.173  11.284 -0.3443  0.4013  0.2923
19083TIP3    H178664   3.030   5.191  11.376 -2.2746 -0.2524  0.0368
19083TIP3    H278665   2.993   5.230  11.234  0.2351  0.2930 -0.5301
19084TIP3   OH278666   4.907   4.501   6.482 -0.1813  0.0211 -0.0091
19084TIP3    H178667   4.859   4.553   6.417  1.7616 -0.5095 -1.9987
19084TIP3    H278668   4.994   4.541   6.486  0.4503 -1.3319  0.5806
19085TIP3   OH278669   1.019   2.150   6.276  0.2328 -0.5313 -0.5946
19085TIP3    H178670   1.076   2.108   6.340 -0.5872 -0.8044 -0.0228
19085TIP3    H278671   0.966   2.211   6.328 -0.4146 -0.7230 -1.0204
19086TIP3   OH278672   0.231   6.523  11.921  0.5032  0.1149  0.4102
19086TIP3    H178673   0.240   6.535  11.826  3.3784 -0.0088  0.6030
19086TIP3    H278674   0.231   6.612  11.956  3.2380  0.1679  0.4870
19087TIP3   OH278675   0.375   2.043   6.383  0.3382  0.2509  0.5048
19087TIP3    H178676   0.420   1.985   6.444  0.4264 -1.0394 -0.7227
19087TIP3    H278677   0.308   2.086   6.435 -0.6164 -1.9692  1.2264
19088TIP3   OH278678   1.595   3.535   0.607  0.0559 -0.0752 -0.2311
19088TIP3    H178679   1.562   3.528   0.517 -1.4075  0.7350  0.2133
19088TIP3    H278680   1.674   3.482   0.607 -0.3197 -0.7034 -1.8053
19089TIP3   OH278681   6.477   0.319  15.670  0.7985  0.4866  0.4283
19089TIP3    H178682   6.426   0.394  15.701 -0.2621  0.0687 -0.2404
19089TIP3    H278683   6.538   0.356  15.607 -1.6392  0.5351 -2.1405
19090TIP3   OH278684   1.042   4.365   4.619 -0.1887 -0.2318  0.1385
19090TIP3    H178685   0.955   4.327   4.632 -0.0935 -0.5237 -0.0801
19090TIP3    H278686   1.064   4.403   4.705 -0.6188  0.0300  0.1357
19091TIP3   OH278687   0.697   3.123   4.055  0.2021 -1.3238  0.3573
19091TIP3    H178688   0.759   3.154   4.121 -0.1970 -2.3072  1.2312
19091TIP3    H278689   0.611   3.132   4.097 -0.4054  0.9352 -1.1852
19092TIP3   OH278690   1.003   1.571   4.571  0.5687 -0.5463 -0.1778
19092TIP3    H178691   1.096   1.576   4.596  0.0176 -2.2485  2.6492
19092TIP3    H278692   0.996   1.490   4.521  0.6277 -0.2642 -0.6521
19093TIP3   OH278693   6.380   3.892   4.079 -0.6520 -0.0572 -0.7067
19093TIP3    H178694   6.371   3.966   4.019 -1.2088  0.2660 -0.2360
19093TIP3    H278695   6.430   3.827   4.030 -1.6782 -0.0767 -1.7901
19094TIP3   OH278696   4.634   2.179  15.478 -0.4085  0.3337  0.0144
19094TIP3    H178697   4.714   2.204  15.525 -0.5922  0.6181  0.1751
19094TIP3    H278698   4.643   2.084  15.466 -1.0989 -0.0471  2.0886
19095TIP3   OH278699   3.348   0.536   4.116 -0.1661 -0.0009 -0.0043
19095TIP3    H178700   3.391   0.450   4.122 -0.0622 -0.0408 -1.1054
19095TIP3    H278701   3.406   0.594   4.165  1.1563 -0.0729 -1.4009
19096TIP3   OH278702   6.387   0.736  16.472 -0.1825  0.0686  0.2264
19096TIP3    H178703   6.471   0.780  16.476 -1.3752  2.4299  1.1631
19096TIP3    H278704   6.407   0.648  16.439  2.9127 -0.1851  2.3800
19097TIP3   OH278705   0.631   5.424   1.787 -0.0544 -0.8737 -0.4810
19097TIP3    H178706   0.692   5.352   1.804 -0.5909 -1.6348 -1.6517
19097TIP3    H278707   0.547   5.393   1.820  0.4487  0.9659  3.0113
19098TIP3   OH278708   6.184   3.636  13.712  0.0999 -0.1577  0.7171
19098TIP3    H178709   6.273   3.657  13.741  0.4489  0.0310 -0.4327
19098TIP3    H278710   6.146   3.720  13.688  0.2529 -0.4120 -0.4986
19099TIP3   OH278711   4.367   6.691   4.690  0.0134 -0.3622 -0.2932
19099TIP3    H178712   4.328   6.629   4.752  2.4781 -0.2367  1.5131
19099TIP3    H278713   4.296   6.751   4.669 -1.8664 -2.4975 -0.4428
19100TIP3   OH278714   4.440   4.419   2.301 -0.0141 -0.1152 -0.2093
19100TIP3    H178715   4.428   4.508   2.268 -1.0427 -0.0715  0.2627
19100TIP3    H278716   4.353   4.391   2.330  0.7160 -0.3459  1.9602
19101TIP3   OH278717   1.082   5.463  12.044  0.8799 -0.4465  0.0943
19101TIP3    H178718   1.053   5.485  12.132 -0.5638 -0.3674 -0.3680
19101TIP3    H278719   1.064   5.543  11.993  0.2580 -0.9921 -0.5698
19102TIP3   OH278720   6.351   1.230   2.347  0.9211 -0.4781 -0.3742
19102TIP3    H178721   6.333   1.163   2.412  1.8174 -1.5395 -1.1651
19102TIP3    H278722   6.335   1.186   2.263  2.4263 -0.0166 -0.9348
19103TIP3   OH278723   1.227   2.859  15.147 -0.1595 -0.1060  0.5403
19103TIP3    H178724   1.280   2.908  15.085 -1.0749  0.4359  0.1785
19103TIP3    H278725   1.291   2.810  15.200  0.5990 -1.5950 -1.6246
19104TIP3   OH278726   0.417   2.993   4.805 -0.5539  0.2087  0.2816
19104TIP3    H178727   0.336   2.944   4.793 -1.5716  1.9585 -0.2575
19104TIP3    H278728   0.485   2.936   4.768 -1.6837 -0.8155 -0.2699
19105TIP3   OH278729   6.380   0.335   0.842  0.3580  0.0983 -0.2462
19105TIP3    H178730   6.320   0.301   0.909  1.3818 -0.8230  0.2377
19105TIP3    H278731   6.344   0.303   0.759  0.7295 -1.3546  0.1238
19106TIP3   OH278732   4.624   4.324  14.468 -0.2284 -0.0964  0.7876
19106TIP3    H178733   4.657   4.267  14.399  0.4974  1.6077 -0.3379
19106TIP3    H278734   4.637   4.413  14.434 -0.0941  0.7912  3.0002
19107TIP3   OH278735   6.720   2.355  11.369 -0.6609  0.4676  0.4325
19107TIP3    H178736   6.732   2.433  11.423  2.5647  0.7244 -0.4517
19107TIP3    H278737   6.749   2.381  11.282 -0.6139 -1.3953 -0.1637
19108TIP3   OH278738   5.148   1.738   1.304 -0.0912  0.2947 -0.5295
19108TIP3    H178739   5.099   1.786   1.237 -1.7710 -1.9823 -1.0374
19108TIP3    H278740   5.090   1.736   1.380  0.1169 -0.5950 -0.3881
19109TIP3   OH278741   2.431   5.939  14.723  0.0106 -0.1266  0.1408
19109TIP3    H178742   2.342   5.920  14.691 -0.6592  1.7842  0.7007
19109TIP3    H278743   2.417   5.996  14.799  1.6956 -1.2598  1.3679
19110TIP3   OH278744   6.665   2.914   2.630  0.5677  0.2833 -0.2403
19110TIP3    H178745   6.577   2.909   2.593  0.3212 -1.1670  0.4910
19110TIP3    H278746   6.716   2.850   2.581  1.1435  0.8554 -0.4140
19111TIP3   OH278747   5.431   4.478   5.396  0.1445 -0.2959  0.4473
19111TIP3    H178748   5.401   4.413   5.460  0.6831 -1.7192 -0.6906
19111TIP3    H278749   5.389   4.452   5.314  1.0777  0.2454 -0.2254
19112TIP3   OH278750   1.384   0.909  15.773 -0.2539  0.4706  0.1856
19112TIP3    H178751   1.365   0.986  15.827 -0.2508 -0.6895  1.9450
19112TIP3    H278752   1.439   0.854  15.829 -0.9891 -1.2034 -0.6616
19113TIP3   OH278753   6.328   1.651   5.550 -0.2790  0.0519  0.0485
19113TIP3    H178754   6.245   1.635   5.595  0.1175 -2.0931  0.1562
19113TIP3    H278755   6.393   1.609   5.606  1.0354  2.3192  0.3403
19114TIP3   OH278756   1.370   3.710  14.329  0.3367  0.0547 -0.1930
19114TIP3    H178757   1.327   3.666  14.256 -0.1197  1.0881 -0.5666
19114TIP3    H278758   1.431   3.645  14.364 -0.0804 -0.7504 -0.9295
19115TIP3   OH278759   4.265   6.167   4.109  0.2526  0.1498 -0.2867
19115TIP3    H178760   4.352   6.195   4.138  0.0171 -0.5790  1.2065
19115TIP3    H278761   4.205   6.217   4.164 -0.3234  0.8747 -1.5098
19116TIP3   OH278762   3.569   2.186  14.487 -0.0739 -0.3025 -0.4897
19116TIP3    H178763   3.512   2.236  14.545 -2.3197 -2.5900 -0.5615
19116TIP3    H278764   3.580   2.242  14.410 -1.3549  0.6559 -0.0121
19117TIP3   OH278765   3.268   0.127  11.201 -0.0542 -0.0395 -0.3184
19117TIP3    H178766   3.240   0.218  11.203 -1.3044 -0.4198  1.2435
19117TIP3    H278767   3.317   0.116  11.283 -1.1826 -1.1218  0.2383
19118TIP3   OH278768   3.076   4.172  16.719 -0.0802 -0.5809 -0.2358
19118TIP3    H178769   3.166   4.193  16.693  0.4446  0.8679  2.4612
19118TIP3    H278770   3.034   4.257  16.732 -1.1929 -1.2332  0.5905
19119TIP3   OH278771   2.965   6.706  15.699  0.4541 -0.2884 -0.2284
19119TIP3    H178772   2.918   6.671  15.774  0.9164  0.6399  0.5136
19119TIP3    H278773   2.916   6.784  15.674 -0.3735 -1.2028 -1.6575
19120TIP3   OH278774   6.495   0.821   5.939 -0.2142  0.4739  0.2026
19120TIP3    H178775   6.514   0.727   5.933  0.6987  0.6920 -0.5561
19120TIP3    H278776   6.427   0.827   6.006 -0.9198 -0.8168 -0.3441
19121TIP3   OH278777   2.728   5.624   1.653 -0.4328  1.0680 -0.1045
19121TIP3    H178778   2.704   5.716   1.646  1.1660  1.5523  0.2863
19121TIP3    H278779   2.778   5.619   1.735 -0.5817 -0.1743 -0.0721
19122TIP3   OH278780   0.461   0.295  16.596 -0.2444  0.3033  0.4654
19122TIP3    H178781   0.430   0.338  16.516  1.7960 -1.0502 -1.1530
19122TIP3    H278782   0.403   0.220  16.607 -0.6593  0.6103  0.3981
19123TIP3   OH278783   0.577   5.287  10.899  0.1491 -0.1017 -0.0598
19123TIP3    H178784   0.661   5.319  10.932 -0.1033 -0.6042  1.1486
19123TIP3    H278785   0.595   5.262  10.808  0.8489  1.4654 -0.3828
19124TIP3   OH278786   1.965   0.994  12.826  0.3885  0.0165 -0.7016
19124TIP3    H178787   1.882   1.041  12.834  0.8147  0.6052  0.7144
19124TIP3    H278788   2.031   1.060  12.848  1.1520 -0.7151 -0.7622
19125TIP3   OH278789   5.000   3.720   6.540 -0.4059 -0.2967  0.1024
19125TIP3    H178790   4.935   3.715   6.609 -0.8803  1.9815 -0.1181
19125TIP3    H278791   4.968   3.659   6.473 -4.5463  3.2910 -1.6931
19126TIP3   OH278792   3.431   3.101   0.530  0.5611  0.4644 -0.7020
19126TIP3    H178793   3.390   3.071   0.610 -2.4218  0.1034 -2.2136
19126TIP3    H278794   3.489   3.172   0.557 -0.9442  0.8793  1.6922
19127TIP3   OH278795   2.058   5.957   2.350 -0.2078 -0.0817 -0.4803
19127TIP3    H178796   2.141   6.001   2.364  0.9010 -1.8080 -1.3062
19127TIP3    H278797   2.007   5.975   2.430  1.1468  0.5440  0.2709
19128TIP3   OH278798   2.585   3.728  15.414  0.4349  0.2341 -0.3971
19128TIP3    H178799   2.596   3.633  15.414  0.0776  0.1917  0.6051
19128TIP3    H278800   2.640   3.758  15.486  1.1180  0.8675 -1.1578
19129TIP3   OH278801   4.986   6.482   2.005  0.2517  0.0189  0.6895
19129TIP3    H178802   5.021   6.448   1.922 -0.9011 -0.3820  0.3434
19129TIP3    H278803   4.985   6.405   2.063  0.4690  0.1553  0.8732
19130TIP3   OH278804   2.232   3.659  13.260  0.3932  0.0032  0.2603
19130TIP3    H178805   2.260   3.658  13.351  0.9990  2.3726  0.1904
19130TIP3    H278806   2.150   3.707  13.261 -0.6059 -1.6372 -0.2509
19131TIP3   OH278807   6.326   3.490   4.998 -0.0045  0.3728 -0.7169
19131TIP3    H178808   6.336   3.580   4.969  0.0733  0.4606 -0.4236
19131TIP3    H278809   6.403   3.474   5.053  0.2436 -0.0344 -1.1813
19132TIP3   OH278810   0.137   3.760   2.029 -0.6571 -0.1656  0.3768
19132TIP3    H178811   0.221   3.730   2.063  0.5229  2.5234  0.0446
19132TIP3    H278812   0.073   3.729   2.094  0.5830 -1.9878  0.8014
19133TIP3   OH278813   2.917   1.533   4.582  0.4070 -0.7248  0.9859
19133TIP3    H178814   2.901   1.475   4.507 -2.3363 -0.5828  1.3672
19133TIP3    H278815   2.935   1.619   4.542  0.8327 -1.0514  0.4635
19134TIP3   OH278816   5.496   3.264  16.306  0.1213  0.2102  0.1616
19134TIP3    H178817   5.501   3.169  16.296 -0.3832  0.2818 -0.8513
19134TIP3    H278818   5.406   3.281  16.332  0.8047  0.2368  2.8129
19135TIP3   OH278819   0.947   3.418  13.200 -0.0030  0.1531  0.0547
19135TIP3    H178820   0.908   3.478  13.136  0.8565 -1.0930 -1.7080
19135TIP3    H278821   0.874   3.391  13.256 -1.0919  0.1523 -1.3256
19136TIP3   OH278822   3.121   3.988   4.130 -0.0889  0.5004 -0.4251
19136TIP3    H178823   3.093   4.036   4.208  0.5758 -4.1543  3.1654
19136TIP3    H278824   3.216   3.983   4.137 -0.1476 -1.4458 -0.4555
19137TIP3   OH278825   0.482   0.062  14.122  0.1959  0.1226 -0.1233
19137TIP3    H178826   0.447   0.144  14.086 -0.9353  0.4470  1.5907
19137TIP3    H278827   0.566   0.087  14.161 -0.0963  0.4422  0.3023
19138TIP3   OH278828   1.599   6.592   4.992 -0.4525  0.3046  0.3703
19138TIP3    H178829   1.648   6.600   5.073 -0.2628  0.6562  0.2215
19138TIP3    H278830   1.551   6.509   5.001  1.2043 -0.7493 -0.0310
19139TIP3   OH278831   4.279   1.085  10.588 -0.6330 -0.5624  0.6318
19139TIP3    H178832   4.243   0.997  10.577 -2.9591  0.3242  0.7386
19139TIP3    H278833   4.227   1.124  10.658  0.5099  0.8344  0.7492
19140TIP3   OH278834   2.239   5.295  15.108 -0.2336  0.4570  0.3406
19140TIP3    H178835   2.145   5.293  15.125 -0.2162  1.4620  0.6092
19140TIP3    H278836   2.255   5.215  15.057 -1.0063 -0.3719  1.3299
19141TIP3   OH278837   6.360   6.398   5.995  0.0122 -0.6646 -0.1564
19141TIP3    H178838   6.393   6.320   5.950  0.1030  0.3425 -1.8892
19141TIP3    H278839   6.423   6.466   5.974  0.2008 -0.1853  1.7408
19142TIP3   OH278840   2.055   1.005   1.167  0.1101  1.0363 -0.3378
19142TIP3    H178841   1.968   1.028   1.201 -0.5948  0.5756 -1.7623
19142TIP3    H278842   2.042   0.992   1.073  1.2568 -1.2306 -0.2557
19143TIP3   OH278843   5.876   5.119  13.836  0.0441 -0.3275 -0.8186
19143TIP3    H178844   5.810   5.075  13.890 -0.1373  1.5240  0.5955
19143TIP3    H278845   5.832   5.199  13.805  1.0501  0.0224 -1.3795
19144TIP3   OH278846   4.407   3.490  15.554  0.1932 -0.2277  0.4384
19144TIP3    H178847   4.356   3.564  15.588 -1.6130 -1.1582 -0.1238
19144TIP3    H278848   4.392   3.420  15.618 -2.1561 -1.5781 -1.3971
19145TIP3   OH278849   1.774   0.638   0.714 -0.4085 -0.7506 -0.3646
19145TIP3    H178850   1.732   0.724   0.712 -1.9828 -1.5091 -1.2157
19145TIP3    H278851   1.729   0.590   0.784  0.5722 -0.8558  0.2212
19146TIP3   OH278852   6.673   5.057  14.647 -0.5097  0.1275  0.4127
19146TIP3    H178853   6.596   5.033  14.700 -1.7709  1.9168 -0.4781
19146TIP3    H278854   6.647   5.039  14.557  0.9039 -1.1055  0.2208
19147TIP3   OH278855   3.199   5.794  12.213  0.0519 -0.4369 -0.6508
19147TIP3    H178856   3.263   5.805  12.142  0.0959  0.3809 -0.4914
19147TIP3    H278857   3.115   5.815  12.173 -0.2898 -2.5586 -1.1468
19148TIP3   OH278858   4.176   3.839  15.314  0.4844 -0.0267  0.2542
19148TIP3    H178859   4.257   3.889  15.312  0.9242 -0.7067 -1.6229
19148TIP3    H278860   4.204   3.748  15.300 -0.5632 -0.2939 -0.2326
19149TIP3   OH278861   0.653   5.760  14.070 -0.0936  0.5464 -0.1366
19149TIP3    H178862   0.581   5.753  14.007 -0.0006  0.9868 -0.2934
19149TIP3    H278863   0.717   5.696  14.039  0.3596  1.4171 -1.0387
19150TIP3   OH278864   4.778   4.259   2.480  0.4850 -0.3501  0.1540
19150TIP3    H178865   4.768   4.300   2.394  1.8162  0.3689  0.3188
19150TIP3    H278866   4.690   4.228   2.501 -0.3325  1.3181 -0.5425
19151TIP3   OH278867   2.047   5.878   0.911 -0.0078 -0.4331  0.2139
19151TIP3    H178868   1.965   5.831   0.891  0.1725 -0.4585 -0.5054
19151TIP3    H278869   2.109   5.844   0.847  0.0957  0.8801 -0.4070
19152TIP3   OH278870   1.064   4.628   2.700  0.3542  0.0256 -0.4417
19152TIP3    H178871   0.998   4.690   2.732 -0.2734 -1.5337  1.4211
19152TIP3    H278872   1.056   4.632   2.604 -1.7594  0.6097 -0.2798
19153TIP3   OH278873   4.649   5.177   1.700 -0.6089  0.2066 -0.3762
19153TIP3    H178874   4.727   5.206   1.747 -0.9303  0.0736  0.2407
19153TIP3    H278875   4.590   5.145   1.767 -0.4092 -1.5875 -1.0129
19154TIP3   OH278876   0.548   1.434   5.274 -0.3670  0.1695  0.3244
19154TIP3    H178877   0.608   1.508   5.263  0.9712 -0.7656  0.9771
19154TIP3    H278878   0.602   1.365   5.314 -1.1281 -1.7013 -1.6330
19155TIP3   OH278879   0.284   3.981  11.554 -0.5078 -0.0704 -0.0599
19155TIP3    H178880   0.338   4.001  11.630 -0.8836 -0.0186  0.1984
19155TIP3    H278881   0.339   4.002  11.478 -0.5908  1.1201  0.1923
19156TIP3   OH278882   4.698   2.320   1.109 -0.7906 -0.3784  0.0519
19156TIP3    H178883   4.714   2.408   1.075  3.2214 -1.6171 -1.9590
19156TIP3    H278884   4.712   2.328   1.203 -1.4617  1.2359  0.0552
19157TIP3   OH278885   2.407   5.004  11.277  0.1680  0.1132  0.0106
19157TIP3    H178886   2.415   4.974  11.187  1.0126  2.1199 -0.6306
19157TIP3    H278887   2.482   4.965  11.322  0.1560 -0.2976 -0.3204
19158TIP3   OH278888   5.333   3.932  12.016  0.4966 -0.3516  0.5337
19158TIP3    H178889   5.252   3.882  12.022  0.6115 -0.5166  0.7360
19158TIP3    H278890   5.316   3.997  11.948  0.1390 -0.2811  0.6868
19159TIP3   OH278891   6.807   5.880  17.107  0.0982 -0.1918 -0.2756
19159TIP3    H178892   6.784   5.841  17.191 -1.4838  1.3542  0.0713
19159TIP3    H278893   6.728   5.926  17.079  1.2294  1.0536 -1.6214
19160TIP3   OH278894   2.609   6.352   5.730 -0.2368 -0.3087 -0.5096
19160TIP3    H178895   2.594   6.267   5.772 -2.1481  0.9064  1.4544
19160TIP3    H278896   2.637   6.409   5.801  2.0128  0.5529 -1.9776
19161TIP3   OH278897   5.644   4.753  15.281 -0.5104 -0.0272  0.4225
19161TIP3    H178898   5.606   4.678  15.235 -0.1897  0.2079 -0.2388
19161TIP3    H278899   5.650   4.821  15.214 -0.4011  0.4502  0.9133
19162TIP3   OH278900   1.499   6.223  15.015 -0.4431  0.2416  0.1292
19162TIP3    H178901   1.567   6.158  15.000 -0.9338 -0.2569  0.0395
19162TIP3    H278902   1.479   6.258  14.929  0.0477  0.7467  0.2174
19163TIP3   OH278903   0.230   2.000   5.032 -0.1285  0.3991 -0.2552
19163TIP3    H178904   0.238   1.910   5.064 -1.8082 -0.1225 -1.2137
19163TIP3    H278905   0.137   2.020   5.038  0.3410  2.4473  0.8520
19164TIP3   OH278906   5.534   2.868  12.644  0.6172 -0.5725  0.1918
19164TIP3    H178907   5.555   2.959  12.667  1.2162 -0.6737  0.0734
19164TIP3    H278908   5.453   2.849  12.691  0.8143 -0.1687  0.7060
19165TIP3   OH278909   4.904   0.720  15.022  0.2881  0.2071  0.5397
19165TIP3    H178910   4.939   0.652  14.964  0.2521  0.1978  0.5291
19165TIP3    H278911   4.812   0.696  15.035 -0.4543  1.6807 -1.5364
19166TIP3   OH278912   0.971   0.478   0.200 -0.5376  0.3098  0.0743
19166TIP3    H178913   0.903   0.412   0.215 -0.1146  0.1947  1.7206
19166TIP3    H278914   1.053   0.431   0.212 -0.2170  0.9631  0.4889
19167TIP3   OH278915   0.243   3.609   5.454 -0.0806  0.8699  0.4588
19167TIP3    H178916   0.244   3.574   5.366  0.9678  0.6949  0.5360
19167TIP3    H278917   0.217   3.701   5.443 -0.1912  0.7874  0.0063
19168TIP3   OH278918   3.648   3.390  12.079  0.1450  0.1358 -0.6239
19168TIP3    H178919   3.676   3.358  11.993 -0.3731  0.5804 -0.9684
19168TIP3    H278920   3.573   3.336  12.102 -1.1953  1.5253 -1.5445
19169TIP3   OH278921   0.276   2.375   5.475 -0.2220 -0.0751 -0.1068
19169TIP3    H178922   0.201   2.359   5.418  0.2615 -0.3968 -0.6749
19169TIP3    H278923   0.351   2.345   5.423  0.1686 -1.0021  0.9615
19170TIP3   OH278924   5.727   6.474   4.353  0.1191 -0.0148  0.2216
19170TIP3    H178925   5.772   6.418   4.417 -0.1877 -0.4150  0.0947
19170TIP3    H278926   5.734   6.562   4.389  0.1270 -0.2084  0.7043
19171TIP3   OH278927   0.322   4.219  12.634 -0.0782 -0.4125  0.5917
19171TIP3    H178928   0.283   4.135  12.610 -0.6729 -0.0320  0.1869
19171TIP3    H278929   0.327   4.217  12.730 -1.3800 -0.3599  0.6818
19172TIP3   OH278930   0.159   2.121   4.303 -0.2826  0.0041 -0.0595
19172TIP3    H178931   0.095   2.124   4.231  1.6361 -0.1293 -1.8617
19172TIP3    H278932   0.203   2.206   4.299 -0.3689  0.1293  1.2107
19173TIP3   OH278933   6.042   0.583   3.957  0.0845 -0.7825 -0.1560
19173TIP3    H178934   6.094   0.663   3.962 -0.1774 -0.6199 -0.0185
19173TIP3    H278935   6.052   0.554   3.866 -2.5209  1.2646 -1.2269
19174TIP3   OH278936   4.407   0.487   3.427 -0.4524  0.1157 -0.0222
19174TIP3    H178937   4.318   0.500   3.395 -0.7850  2.6799  1.5562
19174TIP3    H278938   4.462   0.541   3.370  0.0814 -1.2528 -0.8337
19175TIP3   OH278939   1.307   3.619  14.906  0.1318  0.0879  0.0628
19175TIP3    H178940   1.259   3.538  14.890  1.7279 -0.6510 -1.3335
19175TIP3    H278941   1.295   3.671  14.827  1.5433 -0.1243 -0.3334
19176TIP3   OH278942   4.831   0.045  16.845  0.0204  0.2724 -0.3514
19176TIP3    H178943   4.903  -0.018  16.841  0.3739  0.4532  1.8076
19176TIP3    H278944   4.754  -0.009  16.863  0.0718  0.3002 -0.0333
19177TIP3   OH278945   2.132   1.059  12.459  0.0565 -0.2529  0.0358
19177TIP3    H178946   2.068   1.113  12.412 -1.9248 -1.4086  1.2790
19177TIP3    H278947   2.210   1.114  12.462 -0.3941  0.7242 -2.6414
19178TIP3   OH278948   2.599   1.473   2.931  0.1299  0.0261  0.4833
19178TIP3    H178949   2.569   1.559   2.901 -0.9598 -0.3318  0.5115
19178TIP3    H278950   2.695   1.479   2.928  0.0905  1.4343  1.0418
19179TIP3   OH278951   6.119   4.789   2.828  0.1103 -0.3822  0.2881
19179TIP3    H178952   6.072   4.861   2.786  3.3506  1.6800 -0.1134
19179TIP3    H278953   6.145   4.824   2.913  1.7180 -1.0438  0.1097
19180TIP3   OH278954   2.483   3.085   0.979  0.3691 -0.0892  0.1132
19180TIP3    H178955   2.535   3.120   0.906  0.0299 -0.8800 -0.5184
19180TIP3    H278956   2.506   3.141   1.053  1.8436 -0.1798 -0.2377
19181TIP3   OH278957   0.709   1.018   3.667  0.3015 -0.3590  0.1442
19181TIP3    H178958   0.782   1.062   3.710 -0.4319 -0.5911  1.7380
19181TIP3    H278959   0.679   1.080   3.601  1.2955  0.1648  0.1651
19182TIP3   OH278960   2.992   2.888   6.676  0.1301 -0.5001 -0.8021
19182TIP3    H178961   3.050   2.821   6.641 -0.3809 -0.9950 -0.7164
19182TIP3    H278962   2.929   2.905   6.606 -1.2010 -1.8558 -0.0012
19183TIP3   OH278963   6.454   1.284  15.634  0.1542  0.5091 -0.1672
19183TIP3    H178964   6.425   1.286  15.725 -0.4804 -0.6580 -0.3296
19183TIP3    H278965   6.544   1.254  15.638 -0.6817 -2.2489 -0.0520
19184TIP3   OH278966   5.872   2.583  17.026 -0.1927 -0.2368 -0.2398
19184TIP3    H178967   5.849   2.600  17.118 -0.7919 -0.1050 -0.4037
19184TIP3    H278968   5.895   2.490  17.024  1.3128  0.1037  0.3275
19185TIP3   OH278969   3.886   2.125   4.596  0.5572  0.3463 -0.2279
19185TIP3    H178970   3.945   2.150   4.667 -0.0784  1.1740  0.0252
19185TIP3    H278971   3.890   2.030   4.594  2.6612  0.3972 -0.8863
19186TIP3   OH278972   3.042   2.084  11.703  0.0637  0.1015 -0.3763
19186TIP3    H178973   3.119   2.031  11.684  1.0532  1.3667 -0.0087
19186TIP3    H278974   2.987   2.077  11.625  0.9815 -0.0720 -1.0134
19187TIP3   OH278975   4.457   1.391   4.651 -0.0677  0.0630  0.2043
19187TIP3    H178976   4.436   1.317   4.593  1.1197 -0.8158  0.8558
19187TIP3    H278977   4.550   1.407   4.635  0.2548 -0.1346  1.7973
19188TIP3   OH278978   1.968   2.984  13.228 -0.4793 -0.4734 -0.2493
19188TIP3    H178979   1.991   2.897  13.260 -1.3458 -1.4267 -2.0716
19188TIP3    H278980   1.976   2.978  13.133 -1.2978  1.2100 -0.4614
19189TIP3   OH278981   3.071   3.615   1.412 -0.3322 -0.5922  0.6510
19189TIP3    H178982   3.015   3.538   1.415  0.8914 -1.5104  2.3655
19189TIP3    H278983   3.096   3.629   1.503  0.5241  1.0577  0.2011
19190TIP3   OH278984   0.522   1.711   3.782  0.3391  0.0378 -0.0301
19190TIP3    H178985   0.571   1.794   3.780  0.0722  0.1903 -1.6954
19190TIP3    H278986   0.431   1.738   3.796  0.5792 -0.2016  2.3609
19191TIP3   OH278987   4.074   6.105  11.298 -0.3816 -0.4172 -0.1195
19191TIP3    H178988   4.123   6.026  11.280 -1.2263 -1.2242  0.9930
19191TIP3    H278989   3.982   6.081  11.281 -0.8988 -0.3727  2.2356
19192TIP3   OH278990   6.391   1.051   0.135  0.5627  0.2915  0.4978
19192TIP3    H178991   6.421   1.022   0.221  0.1590 -1.6497  0.0438
19192TIP3    H278992   6.321   0.989   0.112 -1.6821  2.7628  0.1744
19193TIP3   OH278993   4.084   6.086  16.632  0.6857 -0.1855  0.4024
19193TIP3    H178994   4.169   6.103  16.593  2.9989 -2.1822  4.0369
19193TIP3    H278995   4.061   6.167  16.677  0.0428  0.6987 -1.4039
19194TIP3   OH278996   5.499   3.964   1.291  0.0441  0.0269 -0.2732
19194TIP3    H178997   5.427   3.937   1.348 -1.1170 -1.0586 -2.1413
19194TIP3    H278998   5.568   3.992   1.351 -1.1878 -0.8173  1.6371
19195TIP3   OH278999   0.800   2.556  16.810  0.1680  0.7607 -0.4141
19195TIP3    H179000   0.875   2.554  16.869  1.3689  0.8011 -1.8921
19195TIP3    H279001   0.725   2.534  16.866  1.4352 -0.5820  0.8417
19196TIP3   OH279002   1.139   2.606   0.875 -0.2705 -0.0075 -0.1406
19196TIP3    H179003   1.069   2.670   0.868 -0.3331 -0.0132  0.3526
19196TIP3    H279004   1.193   2.620   0.797 -0.6700  0.1740 -0.3864
19197TIP3   OH279005   1.914   4.064  10.665  0.3968 -0.4199  0.6628
19197TIP3    H179006   1.959   4.142  10.634  0.7965 -1.6413 -2.0702
19197TIP3    H279007   1.973   3.992  10.644 -0.8906 -1.6453  1.1297
19198TIP3   OH279008   0.626   4.373   3.240  0.0318  0.0632  0.4373
19198TIP3    H179009   0.683   4.312   3.288  2.4554  0.4256 -1.7414
19198TIP3    H279010   0.557   4.395   3.302  0.8311 -2.4199  2.3886
19199TIP3   OH279011   2.094   5.193   4.285 -0.1654  0.0078  0.4736
19199TIP3    H179012   2.116   5.101   4.292  1.6579  0.2442 -1.1168
19199TIP3    H279013   2.150   5.236   4.349  1.9517  0.3116 -1.4514
19200TIP3   OH279014   4.758   4.651   0.241  0.2106  0.1886  0.5565
19200TIP3    H179015   4.811   4.592   0.295  2.2009  1.6810  0.3314
19200TIP3    H279016   4.745   4.728   0.296 -1.1975  0.1313  0.3402
19201TIP3   OH279017   0.801   3.058   5.150  0.8538 -0.4436 -0.2906
19201TIP3    H179018   0.864   3.039   5.081  2.3114 -2.5966  1.4577
19201TIP3    H279019   0.855   3.090   5.223 -0.4776  0.6884  0.2247
19202TIP3   OH279020   0.831   0.862  16.251  0.1483  0.3503 -0.2204
19202TIP3    H179021   0.815   0.805  16.176 -0.8573 -0.1468  0.3546
19202TIP3    H279022   0.744   0.891  16.279  0.5258  0.7986  0.5497
19203TIP3   OH279023   1.440   6.362  11.089  0.2274  0.0440 -0.6658
19203TIP3    H179024   1.405   6.357  11.000 -2.3790 -1.1583  0.3485
19203TIP3    H279025   1.375   6.412  11.137  0.2383 -1.5980  1.1514
19204TIP3   OH279026   4.897   3.116  11.978 -0.2573  0.3354  0.1200
19204TIP3    H179027   4.881   3.127  11.884 -0.8649  0.6764  0.2581
19204TIP3    H279028   4.861   3.030  11.998 -0.4875  0.4300  0.1165
19205TIP3   OH279029   4.956   1.670  12.184  1.0462  0.4336 -0.0401
19205TIP3    H179030   4.913   1.601  12.233  0.2988  1.1600  0.3437
19205TIP3    H279031   4.886   1.711  12.132  1.5813  0.5279 -0.7090
19206TIP3   OH279032   6.542   4.611   0.121  0.0392 -0.0161  0.1104
19206TIP3    H179033   6.543   4.696   0.165  0.6454 -0.1752  0.4155
19206TIP3    H279034   6.622   4.567   0.151 -0.7517 -1.0900  0.7380
19207TIP3   OH279035   4.180   3.617   1.505  0.1919 -0.2577 -0.1384
19207TIP3    H179036   4.123   3.596   1.432  1.9706  0.1705 -1.7487
19207TIP3    H279037   4.124   3.662   1.568 -1.6678 -1.7325 -0.6365
19208TIP3   OH279038   0.577   3.385  13.948 -0.3540 -0.4081  0.0226
19208TIP3    H179039   0.585   3.311  13.888 -0.7189 -1.0012  0.6941
19208TIP3    H279040   0.543   3.456  13.893  0.0764 -0.6990 -0.6448
19209TIP3   OH279041   6.776   5.136   2.761  0.0788  0.5996 -0.3228
19209TIP3    H179042   6.827   5.195   2.816  0.2085  0.4778 -0.3111
19209TIP3    H279043   6.691   5.179   2.752  0.1432  0.7453 -0.2430
19210TIP3   OH279044   1.343   6.033   1.544 -1.2518 -0.9578  0.6492
19210TIP3    H179045   1.318   6.009   1.633  0.3114  1.8364  1.9624
19210TIP3    H279046   1.437   6.047   1.548 -1.5570  2.3390 -0.5519
19211TIP3   OH279047   5.821   0.507   4.848 -0.0854 -0.1994 -0.0679
19211TIP3    H179048   5.757   0.556   4.797 -0.1942 -0.5839 -0.2951
19211TIP3    H279049   5.820   0.419   4.812 -0.2951 -0.5252  0.7214
19212TIP3   OH279050   0.263   6.253  13.796  0.2557 -0.3764 -0.0675
19212TIP3    H179051   0.315   6.295  13.728 -0.1589  0.6930  0.2450
19212TIP3    H279052   0.215   6.184  13.751  1.5366 -1.0406 -0.4504
19213TIP3   OH279053   2.721   6.537  13.906  0.1450 -0.3084 -0.2564
19213TIP3    H179054   2.775   6.472  13.861 -0.9415 -0.5211 -1.3120
19213TIP3    H279055   2.749   6.621  13.868 -0.0017 -0.3859 -0.5449
19214TIP3   OH279056   4.048   5.656  16.454  0.1095  0.5238 -0.0252
19214TIP3    H179057   4.144   5.654  16.456  0.0954 -0.6308  0.0696
19214TIP3    H279058   4.023   5.697  16.537  0.5220  1.9212 -0.5564
19215TIP3   OH279059   4.217   0.218   1.667 -0.1197 -0.1801  0.1043
19215TIP3    H179060   4.296   0.164   1.668  0.4888  0.6783 -0.2302
19215TIP3    H279061   4.161   0.180   1.735  1.0451 -0.1139  1.1235
19216TIP3   OH279062   3.263   3.548  12.164 -0.2240 -0.2587  0.1339
19216TIP3    H179063   3.205   3.489  12.117  1.1540 -0.8478 -0.9060
19216TIP3    H279064   3.250   3.633  12.122  1.3394 -0.8742 -1.7299
19217TIP3   OH279065   6.405   1.892   6.112 -0.2934 -0.6064 -0.4360
19217TIP3    H179066   6.368   1.806   6.133 -1.0561 -0.3618 -0.7406
19217TIP3    H279067   6.455   1.916   6.190 -1.5090 -0.5601  0.3606
19218TIP3   OH279068   1.658   0.147  16.980 -0.3191 -0.2404 -0.0847
19218TIP3    H179069   1.642   0.065  17.027 -2.0045  0.0141 -0.1713
19218TIP3    H279070   1.605   0.212  17.025 -0.4864  0.4056 -1.1785
19219TIP3   OH279071   0.521   2.839  12.078 -0.5198 -0.1047 -0.0266
19219TIP3    H179072   0.464   2.832  12.155 -1.6108  1.7660 -0.5937
19219TIP3    H279073   0.511   2.756  12.033  0.2158 -1.2987  1.8647
19220TIP3   OH279074   3.302   3.276  13.965 -0.5211 -0.2752 -0.0237
19220TIP3    H179075   3.270   3.363  13.987 -3.5812 -1.0281 -0.9872
19220TIP3    H279076   3.364   3.290  13.893 -0.8123  1.1239 -0.0268
19221TIP3   OH279077   0.641   5.137   2.340 -0.3417 -0.9002  0.0326
19221TIP3    H179078   0.727   5.169   2.369  0.2062 -1.7525 -0.5925
19221TIP3    H279079   0.603   5.211   2.292 -0.6199  0.0028  1.5985
19222TIP3   OH279080   6.080   2.714   0.985  0.1284 -0.2235  0.9205
19222TIP3    H179081   5.988   2.738   0.980  0.2687 -0.0176 -1.4741
19222TIP3    H279082   6.080   2.627   1.025 -1.1925 -0.6483  0.0516
19223TIP3   OH279083   0.011   6.338  14.523  0.4953  0.2455  0.7140
19223TIP3    H179084   0.064   6.330  14.602  0.0595  0.3697  1.0208
19223TIP3    H279085  -0.044   6.259  14.523  0.5422  0.2124  0.5006
19224TIP3   OH279086   1.754   2.647   2.504  0.2601  0.0623 -0.1040
19224TIP3    H179087   1.799   2.711   2.559  1.1129  0.3932 -1.1604
19224TIP3    H279088   1.816   2.628   2.433 -1.1322  0.2613 -1.4164
19225TIP3   OH279089   1.757   3.619   3.179  0.1252  0.0270  0.4171
19225TIP3    H179090   1.795   3.706   3.163  0.2697  0.1034  1.1256
19225TIP3    H279091   1.663   3.633   3.175  0.1145  0.4803  1.7481
19226TIP3   OH279092   1.280   6.244   4.381  0.2203 -0.0175 -0.2601
19226TIP3    H179093   1.293   6.258   4.287  1.0251 -0.8593 -0.2889
19226TIP3    H279094   1.335   6.311   4.422  0.8391 -0.4233 -0.4016
19227TIP3   OH279095   2.030   6.788   0.571  0.4996 -0.0225 -0.2774
19227TIP3    H179096   2.007   6.709   0.619 -1.2672  1.6151  1.8064
19227TIP3    H279097   2.110   6.820   0.613  0.2589  0.1827  0.0277
19228TIP3   OH279098   5.711   1.866  13.965 -0.4960  0.1584  0.0580
19228TIP3    H179099   5.638   1.870  14.027 -1.5520  0.2546 -1.1616
19228TIP3    H279100   5.684   1.801  13.900  0.7622 -0.2275 -0.1095
19229TIP3   OH279101   2.603   5.228  16.310 -0.1763  0.1937  0.1212
19229TIP3    H179102   2.511   5.214  16.287  0.1189 -2.1043  0.1312
19229TIP3    H279103   2.646   5.247  16.227 -0.6502  1.3503  0.1257
19230TIP3   OH279104   1.609   4.642   2.898  0.4881  0.2910  0.1501
19230TIP3    H179105   1.654   4.721   2.868  1.1103 -0.8274 -2.0795
19230TIP3    H279106   1.544   4.624   2.831  0.6079 -1.2835  0.4032
19231TIP3   OH279107   5.702   3.137  15.158 -0.1688  0.1004 -0.1128
19231TIP3    H179108   5.643   3.213  15.161 -0.0509  0.2524 -1.0507
19231TIP3    H279109   5.782   3.171  15.116 -0.0981 -0.5318 -0.4997
19232TIP3   OH279110   4.961   5.287   6.354 -0.0559  0.2606 -0.2690
19232TIP3    H179111   4.975   5.204   6.398 -0.2923  0.2273 -0.2562
19232TIP3    H279112   4.882   5.274   6.302  1.0263 -0.1919 -1.8740
19233TIP3   OH279113   3.399   1.664  15.275 -0.6194  0.0604  0.0365
19233TIP3    H179114   3.401   1.571  15.250 -0.8747  0.0149  0.1827
19233TIP3    H279115   3.394   1.662  15.371 -0.1263  0.2277  0.0670
19234TIP3   OH279116   6.242   3.699  15.388 -0.8742 -0.1643  0.3071
19234TIP3    H179117   6.275   3.611  15.368 -1.0697 -0.1697  0.0100
19234TIP3    H279118   6.228   3.739  15.303 -0.8861  0.1188  0.4432
19235TIP3   OH279119   3.819   1.230   4.526  0.9844 -0.1675  0.7469
19235TIP3    H179120   3.735   1.225   4.571  0.4106  0.5868 -0.1867
19235TIP3    H279121   3.841   1.139   4.505  0.3589 -0.3670  0.9315
19236TIP3   OH279122   3.829   1.683   6.413  0.6245  0.3933 -0.2462
19236TIP3    H179123   3.883   1.684   6.334  2.3684  0.8833  0.9052
19236TIP3    H279124   3.837   1.772   6.448 -0.6294  0.3562  0.1868
19237TIP3   OH279125   2.944   4.517   0.385 -0.4801  0.1147  0.8027
19237TIP3    H179126   2.916   4.453   0.450  1.3897 -1.5555  0.0708
19237TIP3    H279127   2.890   4.498   0.308  0.3063 -0.8859  0.4714
19238TIP3   OH279128   4.738   5.858   2.000 -0.1470 -0.2239 -0.0128
19238TIP3    H179129   4.794   5.793   1.959 -1.9082 -0.9093 -1.4813
19238TIP3    H279130   4.755   5.850   2.094  1.5623 -0.9518 -0.3632
19239TIP3   OH279131   0.467   0.743  11.555 -0.7792 -0.2098  0.4611
19239TIP3    H179132   0.516   0.664  11.533  1.6578  0.7621  2.0256
19239TIP3    H279133   0.487   0.804  11.483  2.4717  0.9992  2.2032
19240TIP3   OH279134   5.796   0.068  16.349  0.4120 -0.2244  0.1554
19240TIP3    H179135   5.721   0.019  16.381 -0.2756  0.9043  0.3174
19240TIP3    H279136   5.832   0.111  16.426 -0.1844  1.0866 -0.2640
19241TIP3   OH279137   2.695   6.186   3.548 -0.0787  0.3533  0.4059
19241TIP3    H179138   2.755   6.171   3.474 -0.9738  0.7483 -0.4210
19241TIP3    H279139   2.631   6.116   3.541 -0.7363  0.9638  0.2031
19242TIP3   OH279140   6.709   3.730   0.151  0.3249 -0.0360  0.0436
19242TIP3    H179141   6.716   3.820   0.117 -0.7402 -0.9326 -2.8416
19242TIP3    H279142   6.635   3.692   0.104  0.0655 -2.1480  1.9789
19243TIP3   OH279143   3.825   0.111  13.309  0.1160  0.0889  0.2996
19243TIP3    H179144   3.745   0.089  13.260 -1.0235 -0.8859  2.4349
19243TIP3    H279145   3.872   0.028  13.314  2.0669  0.9212 -2.1045
19244TIP3   OH279146   3.363   2.359  11.751 -0.4136 -0.1288  0.0378
19244TIP3    H179147   3.323   2.354  11.664 -1.4256  2.0365  0.3196
19244TIP3    H279148   3.444   2.409  11.737  1.1930 -2.5999 -0.1475
19245TIP3   OH279149   4.787   4.992   5.204  0.3373 -0.0717  0.2124
19245TIP3    H179150   4.847   5.045   5.151  1.0001  0.0200  1.0379
19245TIP3    H279151   4.738   5.056   5.255  1.0371 -0.2332  1.1043
19246TIP3   OH279152   2.932   4.928  11.519 -0.1727  0.7485  0.5403
19246TIP3    H179153   2.969   4.934  11.607  0.3375  1.4002  0.2956
19246TIP3    H279154   2.903   5.017  11.499  1.0337  0.9460 -0.4945
19247TIP3   OH279155   2.727   0.282  10.428  0.5132 -0.6413  0.2862
19247TIP3    H179156   2.700   0.326  10.508  0.3113 -1.0640  0.4515
19247TIP3    H279157   2.676   0.325  10.359 -0.0784 -0.9643  0.5132
19248TIP3   OH279158   5.902   4.961   2.757 -0.9178 -0.4456  0.4070
19248TIP3    H179159   5.913   5.052   2.784  0.3666 -0.3329 -0.4478
19248TIP3    H279160   5.841   4.925   2.821 -1.3937  0.9836  0.8092
19249TIP3   OH279161   1.558   6.719   5.308  0.5944  0.1812  0.3240
19249TIP3    H179162   1.496   6.742   5.240 -1.3371  1.9236  2.5066
19249TIP3    H279163   1.643   6.745   5.273 -0.3901  1.4405 -1.2381
19250TIP3   OH279164   4.272   4.691   0.195 -0.1538  0.1413 -0.1954
19250TIP3    H179165   4.237   4.614   0.150  0.2239 -1.7554  2.5240
19250TIP3    H279166   4.196   4.737   0.228 -0.3268 -0.2812  0.0056
19251TIP3   OH279167   2.611   0.665   5.725  0.0215  0.8652 -0.4013
19251TIP3    H179168   2.531   0.641   5.772  0.5583 -2.4892 -0.9659
19251TIP3    H279169   2.581   0.698   5.641 -0.7691  1.7625  0.2037
19252TIP3   OH279170   0.827   1.317   1.793  0.7878 -0.4202  0.0788
19252TIP3    H179171   0.785   1.232   1.781  0.7821 -0.4875  0.5729
19252TIP3    H279172   0.758   1.380   1.772 -0.1319 -0.4962  2.5125
19253TIP3   OH279173   1.210   2.992   0.248 -0.1219 -0.2732  0.2991
19253TIP3    H179174   1.191   3.068   0.194 -0.2662 -1.5077 -1.5002
19253TIP3    H279175   1.124   2.954   0.267 -0.0877  0.2703  1.6274
19254TIP3   OH279176   1.628   6.772  12.633  0.1285  0.0014  0.3444
19254TIP3    H179177   1.552   6.820  12.667 -0.4494 -1.3430  1.0428
19254TIP3    H279178   1.704   6.822  12.664 -0.3737  2.7326 -2.3461
19255TIP3   OH279179   4.988   6.484   5.579  0.1983 -0.3801  0.4528
19255TIP3    H179180   5.037   6.411   5.543  0.0982  0.6569 -1.9896
19255TIP3    H279181   5.053   6.535   5.629  0.6068 -1.2881  0.8599
19256TIP3   OH279182   1.189   3.854   3.677 -0.6646  0.8872  0.4371
19256TIP3    H179183   1.284   3.854   3.678 -0.6284 -0.4835  1.8194
19256TIP3    H279184   1.164   3.914   3.748 -0.7823  0.1630  1.0222
19257TIP3   OH279185   5.092   4.181   3.853  0.8409 -0.5054  0.2742
19257TIP3    H179186   5.085   4.165   3.947  0.7540 -0.4024  0.2858
19257TIP3    H279187   5.091   4.094   3.813 -0.6860 -0.5109  0.2648
19258TIP3   OH279188   0.813   4.955   0.351  0.2816  0.0253 -0.3590
19258TIP3    H179189   0.905   4.973   0.335  0.9687 -1.7890  1.0508
19258TIP3    H279190   0.813   4.871   0.398 -2.0206  0.3911  0.4673
19259TIP3   OH279191   2.772   1.506  11.778 -0.3479 -0.3946 -0.2691
19259TIP3    H179192   2.828   1.480  11.851  0.8991  1.2446 -0.5786
19259TIP3    H279193   2.683   1.480  11.805  0.1045 -0.0137  1.7380
19260TIP3   OH279194   4.190   4.636   4.445  0.2325  0.1439 -0.2633
19260TIP3    H179195   4.188   4.669   4.534 -1.6619  2.8206 -1.1650
19260TIP3    H279196   4.277   4.658   4.412  0.2683  0.9504  0.3453
19261TIP3   OH279197   6.806   6.595  14.618  0.5243  0.3217 -0.4023
19261TIP3    H179198   6.899   6.612  14.604  0.4487  0.4765 -0.7179
19261TIP3    H279199   6.790   6.512  14.574  0.2526  0.8817 -1.3788
19262TIP3   OH279200   2.981   5.230   1.787  0.5782 -0.0952 -0.1661
19262TIP3    H179201   2.897   5.185   1.780  1.1486 -1.0254 -1.7426
19262TIP3    H279202   2.969   5.313   1.741  0.0012  0.6665  1.2978
19263TIP3   OH279203   0.328   0.609  12.457 -0.3586 -0.0177 -0.0811
19263TIP3    H179204   0.309   0.526  12.414 -0.9310 -0.0360  0.2024
19263TIP3    H279205   0.267   0.613  12.530  1.0476 -0.3074  1.1662
19264TIP3   OH279206   3.394   2.427  10.804  0.3491  0.1014  0.4187
19264TIP3    H179207   3.299   2.426  10.788 -0.2325  1.2784  3.2417
19264TIP3    H279208   3.425   2.505  10.758 -0.0058 -0.3596 -0.6277
19265TIP3   OH279209   2.082   0.354  12.618 -0.2828 -0.4380  0.3207
19265TIP3    H179210   2.175   0.350  12.596 -0.0693 -0.7116  1.2321
19265TIP3    H279211   2.046   0.419  12.558  0.8290  0.9110  1.0709
19266TIP3   OH279212   6.290   6.426  14.911 -0.2874  0.6931 -0.2899
19266TIP3    H179213   6.278   6.331  14.914  3.9751 -0.0571 -1.0744
19266TIP3    H279214   6.227   6.456  14.846 -1.0646 -1.7129 -0.7477
19267TIP3   OH279215   2.562   5.058   1.018  0.0460  0.1715  0.0466
19267TIP3    H179216   2.577   5.031   1.109 -1.0789  0.1717  0.2404
19267TIP3    H279217   2.648   5.090   0.989  0.3756  0.3878  1.1798
19268TIP3   OH279218   1.514   2.067  14.509 -0.0960  0.3356  0.1958
19268TIP3    H179219   1.563   2.011  14.448  1.8337  2.0236  0.0554
19268TIP3    H279220   1.571   2.076  14.585 -1.0164  0.9074  0.8444
19269TIP3   OH279221   1.885   4.620  17.034  0.2253  0.6461 -0.0250
19269TIP3    H179222   1.932   4.581  16.960 -1.4135  0.5699 -1.0765
19269TIP3    H279223   1.842   4.547  17.077  0.2878  0.8286  0.3522
19270TIP3   OH279224   5.838   2.716  13.505 -0.0393  0.0008 -0.1259
19270TIP3    H179225   5.748   2.684  13.509 -0.5186  0.9760 -1.8407
19270TIP3    H279226   5.849   2.745  13.414  1.3544  1.7486  0.5454
19271TIP3   OH279227   1.435   3.753  16.179  0.0680 -0.5239  0.1438
19271TIP3    H179228   1.484   3.742  16.260 -0.0196 -0.0017  0.2705
19271TIP3    H279229   1.359   3.696  16.189 -0.1274 -0.1966  0.5859
19272TIP3   OH279230   5.469   5.183  10.857 -0.0198  0.6751  0.4411
19272TIP3    H179231   5.427   5.101  10.834  0.6619  0.5222 -0.2954
19272TIP3    H279232   5.400   5.249  10.848 -0.2988  0.3257 -0.0045
19273TIP3   OH279233   3.918   3.352  15.777 -0.4331 -0.0043  0.2595
19273TIP3    H179234   3.996   3.313  15.816 -0.9359 -0.1486  1.1531
19273TIP3    H279235   3.951   3.422  15.721  0.4499 -1.2490 -0.8496
19274TIP3   OH279236   6.761   0.627   3.861  0.3163  0.2693  0.2057
19274TIP3    H179237   6.827   0.662   3.921  1.1482 -0.3614 -0.3273
19274TIP3    H279238   6.718   0.705   3.825  0.4983  0.6750  0.8450
19275TIP3   OH279239   6.141   3.205  15.942  0.4010  0.3496  0.2191
19275TIP3    H179240   6.111   3.114  15.950 -0.5563  0.6432  0.0493
19275TIP3    H279241   6.174   3.227  16.029  2.0146 -0.6246 -0.1118
19276TIP3   OH279242   3.054   3.326  16.640  0.1943  0.0024  0.2311
19276TIP3    H179243   3.117   3.331  16.568  1.2687 -0.5901  1.0961
19276TIP3    H279244   3.059   3.235  16.670 -0.2743  0.2288  1.0243
19277TIP3   OH279245   6.149   0.354  15.220  0.2219 -0.7440 -0.7548
19277TIP3    H179246   6.119   0.270  15.255  0.1270  0.2925  1.9381
19277TIP3    H279247   6.149   0.412  15.296  1.9199  1.2659 -2.1891
19278TIP3   OH279248   5.867   1.591  15.800  0.2587 -0.0656  0.2871
19278TIP3    H179249   5.787   1.631  15.766  1.8817 -0.1281 -4.3679
19278TIP3    H279250   5.933   1.661  15.797  1.5835 -1.2785 -1.5825
19279TIP3   OH279251   5.616   4.637  12.209  0.4780 -0.0553 -0.5474
19279TIP3    H179252   5.585   4.662  12.122  0.0561 -0.5614 -0.5445
19279TIP3    H279253   5.708   4.665  12.210  0.0744  1.3066 -0.6099
19280TIP3   OH279254   3.728   6.021   2.448 -0.4031 -0.6804 -0.3396
19280TIP3    H179255   3.771   6.104   2.467  0.9018 -1.5080  0.5034
19280TIP3    H279256   3.647   6.045   2.404  0.4764  0.9896 -1.1285
19281TIP3   OH279257   4.571   2.485  10.841 -0.4693  1.1835 -0.5637
19281TIP3    H179258   4.570   2.548  10.769 -2.4637  1.2024 -0.5763
19281TIP3    H279259   4.584   2.400  10.799 -0.0204  1.3474 -0.7648
19282TIP3   OH279260   2.858   1.555   2.921  0.1072  0.2517 -1.0902
19282TIP3    H179261   2.922   1.522   2.857 -0.5483 -2.7438 -0.3445
19282TIP3    H279262   2.909   1.568   3.001 -0.0249 -1.4357 -0.6996
19283TIP3   OH279263   5.559   3.324   1.406 -0.1907  0.6002  0.1713
19283TIP3    H179264   5.647   3.287   1.414 -0.8197 -1.0925 -0.2960
19283TIP3    H279265   5.572   3.409   1.364  1.2034  0.2667 -0.1043
19284TIP3   OH279266   4.227   5.041   2.153 -0.5471  0.5093  0.2959
19284TIP3    H179267   4.187   5.112   2.103 -1.0967  0.8553  1.1989
19284TIP3    H279268   4.182   4.962   2.122 -1.6930  0.8522  1.0257
19285TIP3   OH279269   6.254   1.007   4.980 -0.3086 -0.0570  0.2719
19285TIP3    H179270   6.238   0.924   5.023  1.0384 -0.9555 -0.8559
19285TIP3    H279271   6.344   1.030   5.004 -0.8248  1.3360  0.9646
19286TIP3   OH279272   3.582   4.840  16.379 -0.0708  0.1081 -0.1521
19286TIP3    H179273   3.652   4.774  16.373  0.5531  0.6766  0.6345
19286TIP3    H279274   3.577   4.877  16.291  0.0874 -0.4778 -0.4118
19287TIP3   OH279275   2.213   6.233   2.652 -0.5160  0.4405  0.6176
19287TIP3    H179276   2.270   6.307   2.629 -0.0872 -0.4645 -1.4574
19287TIP3    H279277   2.178   6.255   2.738 -1.0666  3.4798 -0.2653
19288TIP3   OH279278   4.782   4.436  13.456  0.2740  1.0963  0.4143
19288TIP3    H179279   4.861   4.483  13.432  0.3598  0.3104 -0.9194
19288TIP3    H279280   4.729   4.501  13.504  1.9910  1.4297  1.9861
19289TIP3   OH279281   1.304   5.698   3.525  0.2608  0.0760 -0.0740
19289TIP3    H179282   1.336   5.619   3.568 -0.5249 -0.1910  0.0347
19289TIP3    H279283   1.218   5.674   3.490 -0.3756  1.1141  0.7021
19290TIP3   OH279284   5.064   5.855  12.252 -0.1690  0.2598  0.3855
19290TIP3    H179285   5.156   5.867  12.230  0.1496  0.7486  1.8403
19290TIP3    H279286   5.048   5.761  12.243  1.2171 -0.2702  2.6154
19291TIP3   OH279287   3.537   2.958   1.905 -0.9321  0.1633 -0.6173
19291TIP3    H179288   3.534   2.934   1.997  1.3115  0.2208 -0.4825
19291TIP3    H279289   3.630   2.966   1.884 -1.3871  2.5122 -2.2808
19292TIP3   OH279290   4.847   6.360   1.495  0.1727 -0.6455 -0.3690
19292TIP3    H179291   4.860   6.420   1.422 -0.1706 -1.1143 -0.8252
19292TIP3    H279292   4.895   6.281   1.470 -0.2716 -0.9498 -0.2669
19293TIP3   OH279293   6.811   5.327  15.564  0.7924  0.1702 -0.3144
19293TIP3    H179294   6.752   5.340  15.639  1.8876  2.3372  0.2774
19293TIP3    H279295   6.760   5.355  15.488  0.0605 -0.9230 -0.2390
19294TIP3   OH279296   1.068   3.320  12.900 -0.1826  0.1245  0.0953
19294TIP3    H179297   0.989   3.284  12.940 -0.4936 -0.5232 -1.0447
19294TIP3    H279298   1.067   3.287  12.810  0.0649  2.1883 -0.7248
19295TIP3   OH279299   2.413   0.377  16.298  0.0174 -0.6043  0.1542
19295TIP3    H179300   2.434   0.302  16.355  0.1962 -2.2033 -1.8919
19295TIP3    H279301   2.452   0.452  16.343  0.9367 -1.9143  1.6878
19296TIP3   OH279302   1.279   1.023  13.879  0.4796 -0.6352 -0.2360
19296TIP3    H179303   1.347   1.073  13.925 -0.2684 -1.5711  1.9697
19296TIP3    H279304   1.292   1.047  13.787  2.6797  0.5412  0.2894
19297TIP3   OH279305   1.903   4.630  11.402  0.4572  0.0674 -0.7222
19297TIP3    H179306   1.817   4.667  11.423  0.6973  0.2889 -0.1093
19297TIP3    H279307   1.890   4.587  11.318 -0.9655 -2.2550  0.5644
19298TIP3   OH279308   3.642   1.259  12.289 -0.3043 -0.0961 -0.5682
19298TIP3    H179309   3.689   1.212  12.358  0.2272 -0.6662 -1.2996
19298TIP3    H279310   3.642   1.198  12.215 -0.0528  0.8605 -1.3705
19299TIP3   OH279311   1.195   6.422   1.075 -0.5918 -0.5814 -0.1044
19299TIP3    H179312   1.145   6.348   1.040 -3.2468  0.2172  1.6056
19299TIP3    H279313   1.131   6.469   1.129  1.4865  1.9328  0.3294
19300TIP3   OH279314   1.264   3.038  10.547 -0.2868 -0.0394 -0.3439
19300TIP3    H179315   1.234   3.092  10.621 -0.0956 -1.6141  0.9488
19300TIP3    H279316   1.184   3.009  10.505 -0.4745 -0.6369  0.3989
19301TIP3   OH279317   0.365   5.723  13.393  0.5392  0.0155 -0.4778
19301TIP3    H179318   0.439   5.753  13.341  1.9028 -1.7675  0.2933
19301TIP3    H279319   0.386   5.749  13.483 -1.1407  1.8960 -0.5776
19302TIP3   OH279320   1.044   1.411  13.897  0.2153  0.0788 -0.4886
19302TIP3    H179321   1.029   1.326  13.938  1.5932 -1.9034 -3.6657
19302TIP3    H279322   1.093   1.390  13.818  0.9004  3.9287 -1.2584
19303TIP3   OH279323   1.754   3.701  15.112 -0.0987 -0.3554 -0.3800
19303TIP3    H179324   1.729   3.766  15.047  1.3427  1.2792  0.5844
19303TIP3    H279325   1.785   3.626  15.061 -2.1940 -0.5235 -1.5243
19304TIP3   OH279326   6.441   5.548  15.919  0.3402  0.4233  0.3389
19304TIP3    H179327   6.482   5.538  15.833  0.0246 -1.4886  0.3588
19304TIP3    H279328   6.400   5.634  15.917  0.4271  0.4515 -1.3776
19305TIP3   OH279329   1.295   0.441   3.812  0.1280  1.0174  0.0539
19305TIP3    H179330   1.275   0.487   3.730  0.3591 -1.0401 -1.2239
19305TIP3    H279331   1.247   0.490   3.879  0.6991  3.3411 -1.1118
19306TIP3   OH279332   1.831   4.715  14.124  0.4339  0.0689  0.5440
19306TIP3    H179333   1.766   4.720  14.194 -1.1554 -1.7189 -0.6986
19306TIP3    H279334   1.893   4.649  14.154  0.5834  0.3645  0.8912
19307TIP3   OH279335   6.345   1.121   3.860 -0.1841 -0.2662 -0.1304
19307TIP3    H179336   6.337   1.028   3.838  1.1022 -0.3121 -0.4478
19307TIP3    H279337   6.337   1.123   3.956 -3.6680 -0.2881 -0.2715
19308TIP3   OH279338   4.608   0.921   5.636 -0.5679 -0.0648 -0.0469
19308TIP3    H179339   4.515   0.906   5.653 -0.8364  0.3353 -1.1174
19308TIP3    H279340   4.620   1.015   5.650 -0.4567 -0.0103 -0.5025
19309TIP3   OH279341   5.060   0.923  16.634  0.3511  0.1669 -0.1006
19309TIP3    H179342   5.000   0.993  16.607 -1.1262 -1.1882 -0.5495
19309TIP3    H279343   5.097   0.954  16.717 -1.7533  0.6928  0.7330
19310TIP3   OH279344   1.187   3.667   5.334 -0.2593  0.4091  0.0937
19310TIP3    H179345   1.261   3.637   5.387 -2.1931 -2.2775  1.5016
19310TIP3    H279346   1.209   3.758   5.312  2.5862  0.3019  1.9404
19311TIP3   OH279347   5.185   4.257  12.035 -0.0926 -0.1089  0.8590
19311TIP3    H179348   5.100   4.240  12.075 -0.6018 -0.0668 -0.1778
19311TIP3    H279349   5.185   4.205  11.954  0.3200  0.9422  0.1636
19312TIP3   OH279350   2.982   4.879  16.454 -0.1826  0.7586  0.6559
19312TIP3    H179351   3.061   4.931  16.440 -0.3094  0.5166 -1.1709
19312TIP3    H279352   2.994   4.801  16.400 -1.5831  0.6430  0.4601
19313TIP3   OH279353   0.789   4.835   5.311 -0.2368  0.5151 -0.4344
19313TIP3    H179354   0.845   4.894   5.261 -1.0813  0.8029 -1.0538
19313TIP3    H279355   0.718   4.890   5.344 -0.4052  0.0729 -0.0417
19314TIP3   OH279356   4.428   0.037   3.488  0.2368 -0.1213  0.1941
19314TIP3    H179357   4.456   0.116   3.441 -1.1450 -0.1112 -0.6650
19314TIP3    H279358   4.501  -0.025   3.476 -0.3233 -0.3666 -2.6323
19315TIP3   OH279359   3.747   5.041   1.673 -0.2524  0.2611  0.4343
19315TIP3    H179360   3.818   5.091   1.631 -0.6372  0.9877  0.6211
19315TIP3    H279361   3.679   5.106   1.688 -0.6852 -0.2928  0.8870
19316TIP3   OH279362   3.505   5.003  10.450 -0.0890  0.5187 -0.1961
19316TIP3    H179363   3.459   4.919  10.452 -0.6042  0.8129  1.5459
19316TIP3    H279364   3.461   5.052  10.380 -0.4309 -0.2995 -0.5691
19317TIP3   OH279365   0.219   5.042  14.298 -0.5625 -0.2730  0.0151
19317TIP3    H179366   0.243   4.966  14.246  0.6998 -1.0447  1.6289
19317TIP3    H279367   0.243   5.019  14.388 -1.4478  1.4924  0.7674
19318TIP3   OH279368   5.022   0.375  10.185  0.1731  0.8300 -0.0990
19318TIP3    H179369   5.117   0.385  10.177  0.3259  0.5301  1.0540
19318TIP3    H279370   5.011   0.324  10.265 -0.9103 -0.6966 -1.1834
19319TIP3   OH279371   6.190   5.164  15.873  0.3076  0.0388  0.4371
19319TIP3    H179372   6.178   5.074  15.843  0.4037  0.3811 -0.6916
19319TIP3    H279373   6.248   5.157  15.949 -1.8417 -1.0648  2.0522
19320TIP3   OH279374   2.017   0.825  11.147  0.1024 -0.2816 -0.2059
19320TIP3    H179375   1.965   0.905  11.148  2.2411  1.3050  3.4639
19320TIP3    H279376   1.975   0.768  11.212  2.3921  0.8679  2.5123
19321TIP3   OH279377   0.781   3.681  12.810 -0.3712 -0.0411 -0.4398
19321TIP3    H179378   0.761   3.771  12.834  0.0924 -0.3371  1.1744
19321TIP3    H279379   0.765   3.677  12.716 -1.9905  1.2896 -0.2672
19322TIP3   OH279380   6.383   4.529   3.017  0.3901  0.1565 -0.3552
19322TIP3    H179381   6.390   4.624   3.010 -1.9727  0.3416 -1.0409
19322TIP3    H279382   6.456   4.495   2.966  1.4103  1.5893  0.1069
19323TIP3   OH279383   4.104   3.619  14.277  0.0687  0.7061 -0.1215
19323TIP3    H179384   4.164   3.681  14.318  0.2355  0.1228  0.5371
19323TIP3    H279385   4.048   3.673  14.222  0.0160  1.4858  0.6692
19324TIP3   OH279386   0.878   2.634   0.054  0.0933  0.1821  0.1220
19324TIP3    H179387   0.856   2.575   0.126  1.2968 -1.4533 -0.8056
19324TIP3    H279388   0.928   2.581  -0.007  0.1586  1.8525 -1.3629
19325TIP3   OH279389   4.467   1.025   2.801  0.2113 -0.1280  0.4041
19325TIP3    H179390   4.501   0.937   2.786 -1.3517 -0.9480  1.3939
19325TIP3    H279391   4.387   1.029   2.749 -0.0703  0.4871  0.8689
19326TIP3   OH279392   1.902   2.474  15.860 -0.9478 -0.2824  0.5047
19326TIP3    H179393   1.949   2.455  15.779 -0.9419  1.2435  0.1226
19326TIP3    H279394   1.945   2.552  15.894 -2.0272  0.0471  1.1211
19327TIP3   OH279395   2.855   3.300  15.855  0.4727 -0.1740 -0.4813
19327TIP3    H179396   2.916   3.323  15.926  1.7409 -2.7963 -0.6221
19327TIP3    H279397   2.892   3.343  15.778 -0.3267  1.8055  0.1518
19328TIP3   OH279398   0.982   5.410   3.042 -0.9673  0.5495  0.2235
19328TIP3    H179399   1.058   5.465   3.062 -0.2170  0.2279 -1.5568
19328TIP3    H279400   0.929   5.464   2.984 -1.0728  0.0244 -0.1696
19329TIP3   OH279401   2.552   5.151   4.921  0.4530  0.3187  0.3353
19329TIP3    H179402   2.576   5.110   4.839 -2.1739  0.4961 -0.6237
19329TIP3    H279403   2.577   5.088   4.988 -0.2725 -1.2910 -0.8552
19330TIP3   OH279404   5.509   4.863  14.500  0.1375  0.0143 -0.1959
19330TIP3    H179405   5.477   4.910  14.423 -1.5962  0.0626  0.5022
19330TIP3    H279406   5.596   4.900  14.517 -0.4555  1.7228 -0.7010
19331TIP3   OH279407   5.458   3.461   0.847  0.0047 -0.4064  0.4805
19331TIP3    H179408   5.375   3.472   0.893  0.7046  0.3304  1.6061
19331TIP3    H279409   5.520   3.513   0.897  1.0572 -0.5766 -0.6134
19332TIP3   OH279410   1.017   5.682   0.321 -0.3866  0.5857 -0.0466
19332TIP3    H179411   1.034   5.743   0.250 -1.0539  1.3849  0.4683
19332TIP3    H279412   0.950   5.623   0.286 -0.1909  0.5230 -0.3242
19333TIP3   OH279413   1.554   1.871  16.302  0.5369  0.3057 -0.1834
19333TIP3    H179414   1.478   1.913  16.262  0.0265 -0.3284  0.1043
19333TIP3    H279415   1.524   1.845  16.388  1.1896  0.3427  0.0605
19334TIP3   OH279416   5.274   6.339   0.296  0.4867  0.1726 -0.7001
19334TIP3    H179417   5.236   6.287   0.367  0.5884  1.3066  0.2164
19334TIP3    H279418   5.346   6.285   0.263  0.9562 -0.0610  0.6170
19335TIP3   OH279419   5.036   2.889   2.679  0.3748 -0.2591  0.0436
19335TIP3    H179420   5.003   2.866   2.766  0.4068 -0.0023  0.1239
19335TIP3    H279421   4.981   2.838   2.619  0.4290 -0.5244  0.2182
19336TIP3   OH279422   2.505   0.019  10.629  0.0202 -0.7647 -0.1642
19336TIP3    H179423   2.518  -0.009  10.720  0.6314  0.5698  0.1791
19336TIP3    H279424   2.437   0.087  10.635 -0.0608 -0.7909 -0.7363
19337TIP3   OH279425   4.829   4.930  14.296  0.3138 -0.6671 -0.5486
19337TIP3    H179426   4.856   5.017  14.324  1.0288 -0.4214 -1.9356
19337TIP3    H279427   4.736   4.939  14.276  0.0908 -0.5487  0.4606
19338TIP3   OH279428   1.561   5.844   3.213  0.1940 -0.2962  0.2658
19338TIP3    H179429   1.632   5.906   3.228 -0.7787  0.7416  0.7225
19338TIP3    H279430   1.605   5.762   3.191  1.5465  0.1586  1.1267
19339TIP3   OH279431   2.948   4.142  10.969 -0.6348  0.5184 -0.4778
19339TIP3    H179432   2.880   4.090  10.925 -0.2238  0.1581 -0.6924
19339TIP3    H279433   2.977   4.204  10.903 -0.6433  0.5641 -0.4385
19340TIP3   OH279434   3.806   5.703   2.061 -0.1642  0.0646  0.3782
19340TIP3    H179435   3.778   5.630   2.006 -0.7976  1.2241 -0.9018
19340TIP3    H279436   3.893   5.678   2.091 -0.6665 -1.5328  0.5714
19341TIP3   OH279437   0.167   3.105  13.525 -0.0603 -0.4713 -0.4983
19341TIP3    H179438   0.095   3.043  13.518 -2.7269  2.4355 -0.8616
19341TIP3    H279439   0.180   3.136  13.435 -0.6835  1.3956  0.0096
19342TIP3   OH279440   6.319   3.936   0.004  0.2943 -0.1646  0.2020
19342TIP3    H179441   6.329   3.848   0.040  0.6925 -0.2818 -0.1902
19342TIP3    H279442   6.375   3.991   0.059 -1.0919  0.1136  1.3850
19343TIP3   OH279443   3.033   6.666  16.753  0.1567 -0.6328  0.0826
19343TIP3    H179444   3.003   6.746  16.711 -2.8215 -0.6283  1.8945
19343TIP3    H279445   3.077   6.696  16.833  1.5507 -0.7663 -0.6144
19344TIP3   OH279446   6.455   2.047   0.156  0.1747  0.1501  0.1877
19344TIP3    H179447   6.423   2.027   0.068 -0.1910  0.5065  0.2376
19344TIP3    H279448   6.465   2.143   0.156 -0.0617  0.1725  0.6153
19345TIP3   OH279449   3.905   0.138  11.274 -0.4899 -0.0600 -0.7886
19345TIP3    H179450   3.926   0.055  11.316 -1.4465 -0.1991 -0.5446
19345TIP3    H279451   3.814   0.128  11.246 -1.0429  1.3598  0.3750
19346TIP3   OH279452   4.640   3.411   5.295  0.1901  0.0137 -0.8102
19346TIP3    H179453   4.621   3.322   5.265 -2.0179 -0.3325  1.2717
19346TIP3    H279454   4.691   3.400   5.375 -2.0024  0.4064  0.7426
19347TIP3   OH279455   6.397   2.424   1.125  0.3490  0.6189  0.4881
19347TIP3    H179456   6.434   2.399   1.210  0.0236 -0.2990  0.3769
19347TIP3    H279457   6.461   2.485   1.088  1.4791 -0.4735  0.5526
19348TIP3   OH279458   4.243   3.461   4.998 -0.3079  0.3764 -0.2700
19348TIP3    H179459   4.168   3.439   5.052  0.2582  1.4123  0.9867
19348TIP3    H279460   4.314   3.477   5.060  0.9321 -0.4244 -1.4136
19349TIP3   OH279461   1.623   4.280   1.211  0.3391  0.1444  0.4532
19349TIP3    H179462   1.547   4.222   1.205 -0.1289  0.8579 -1.3825
19349TIP3    H279463   1.694   4.229   1.172  0.4057  0.0796  0.6595
19350TIP3   OH279464   5.208   6.398   0.720  0.5057 -0.0897  0.2011
19350TIP3    H179465   5.266   6.327   0.690  1.1945  0.6864 -0.3299
19350TIP3    H279466   5.268   6.466   0.751 -0.1411  0.4676  0.2417
19351TIP3   OH279467   1.576   6.720  17.095 -0.0979  0.3562 -0.7711
19351TIP3    H179468   1.518   6.705  17.170 -0.2058  2.0604 -0.4952
19351TIP3    H279469   1.540   6.663  17.026 -1.3724  0.4649 -0.2258
19352TIP3   OH279470   2.218   1.955  15.573 -0.2329  0.3509 -0.6238
19352TIP3    H179471   2.296   1.986  15.526  0.6659 -0.0476  0.5716
19352TIP3    H279472   2.160   2.032  15.576  0.1844  0.7085 -1.3436
19353TIP3   OH279473   3.393   6.105   6.527  0.2139  0.0511 -0.2783
19353TIP3    H179474   3.416   6.024   6.482  0.1078 -0.3814  0.4341
19353TIP3    H279475   3.473   6.158   6.523  0.5352 -0.4105 -0.0595
19354TIP3   OH279476   2.185   4.230   3.005 -0.4891 -0.1589  0.0777
19354TIP3    H179477   2.275   4.253   3.027 -1.0293  1.6815  0.5752
19354TIP3    H279478   2.132   4.272   3.074 -1.7824 -0.2658 -0.8142
19355TIP3   OH279479   1.680   1.697   1.006  0.0944  0.6974 -0.2059
19355TIP3    H179480   1.685   1.758   1.080 -1.7606 -0.1916  0.7172
19355TIP3    H279481   1.763   1.648   1.011  0.0535  0.7186  1.2542
19356TIP3   OH279482   2.432   3.514   1.597  0.2324 -0.5546  0.6532
19356TIP3    H179483   2.469   3.433   1.631  1.9117  0.3298  1.0230
19356TIP3    H279484   2.437   3.575   1.671 -0.9264 -0.0589  0.3514
19357TIP3   OH279485   6.510   2.114  11.787 -0.0145  0.6488  0.1076
19357TIP3    H179486   6.513   2.195  11.737  0.5694  1.7440  1.8334
19357TIP3    H279487   6.463   2.136  11.867  1.4323 -0.3084  1.2764
19358TIP3   OH279488   5.689   4.989  12.519  0.1172 -0.1353 -0.1746
19358TIP3    H179489   5.625   4.946  12.461  0.9106 -1.5399 -0.0549
19358TIP3    H279490   5.652   5.076  12.535 -1.1739 -0.4865 -1.0606
19359TIP3   OH279491   0.082   1.250   1.362 -0.5069 -0.3913 -0.4931
19359TIP3    H179492   0.015   1.276   1.298 -0.8857  0.9859  0.3959
19359TIP3    H279493   0.057   1.297   1.442 -0.3558 -2.4471  0.8484
19360TIP3   OH279494   1.148   5.100  10.699  0.4847 -0.1368 -0.0488
19360TIP3    H179495   1.126   5.121  10.790  0.0960  0.5448 -0.2905
19360TIP3    H279496   1.107   5.014  10.684  0.0244  0.0279  0.2328
19361TIP3   OH279497   0.649   3.487  14.356 -0.0598  0.5442  0.2588
19361TIP3    H179498   0.572   3.544  14.357 -0.8520 -0.4575  2.3546
19361TIP3    H279499   0.627   3.419  14.293  0.0269  1.3708 -0.7053
19362TIP3   OH279500   1.300   5.920  15.094  0.1916  0.0288 -0.2926
19362TIP3    H179501   1.388   5.956  15.094  0.5474 -0.8196 -0.3862
19362TIP3    H279502   1.275   5.916  15.001  0.6846 -1.1819 -0.4013
19363TIP3   OH279503   4.142   1.449   2.247 -0.7619  0.3712 -0.1342
19363TIP3    H179504   4.139   1.355   2.268  0.5720 -0.0613 -1.6848
19363TIP3    H279505   4.194   1.487   2.318  1.4924 -0.6325 -1.1551
19364TIP3   OH279506   5.177   5.570  15.085  0.0413  0.1042 -0.1468
19364TIP3    H179507   5.173   5.556  14.991 -0.7727  0.1020 -0.1227
19364TIP3    H279508   5.242   5.507  15.117 -1.8734 -2.0615 -0.3266
19365TIP3   OH279509   5.641   0.416  14.413  0.0516  0.0835  0.6694
19365TIP3    H179510   5.558   0.371  14.430  0.7673 -1.6053 -0.0975
19365TIP3    H279511   5.708   0.349  14.427  1.1331  0.7616 -1.0325
19366TIP3   OH279512   1.717   4.044   2.836 -0.2956 -0.2187  0.5935
19366TIP3    H179513   1.664   4.032   2.757  2.3654 -0.6825 -1.2438
19366TIP3    H279514   1.780   4.113   2.813  0.4471 -0.2424  2.3733
19367TIP3   OH279515   0.323   0.519  14.884  0.7854  0.2145 -0.2741
19367TIP3    H179516   0.314   0.557  14.797 -1.8182 -0.4142 -0.3527
19367TIP3    H279517   0.246   0.462  14.894  0.8113  0.5205  2.5606
19368TIP3   OH279518   5.325   1.045  14.714 -0.3738 -0.5905  0.0163
19368TIP3    H179519   5.266   1.028  14.788 -0.2352 -0.1846  0.2237
19368TIP3    H279520   5.405   1.078  14.754 -0.0001 -1.1432 -0.2669
19369TIP3   OH279521   4.639   3.043   4.388 -0.3071  0.2803  0.0745
19369TIP3    H179522   4.639   3.134   4.356 -0.9650 -0.1206 -1.1400
19369TIP3    H279523   4.709   3.000   4.338 -0.1310  0.0725  0.5006
19370TIP3   OH279524   1.792   2.565   3.237  0.1204  0.3812  0.0118
19370TIP3    H179525   1.708   2.564   3.192  0.0333  0.1499  0.1754
19370TIP3    H279526   1.839   2.639   3.199 -0.3822  0.8747  0.3345
19371TIP3   OH279527   3.890   2.341   5.944  0.6768  0.5693  0.8367
19371TIP3    H179528   3.919   2.250   5.953 -0.7445  0.1872  1.7816
19371TIP3    H279529   3.972   2.391   5.947  1.6264 -0.7293 -1.1947
19372TIP3   OH279530   4.289   3.190   3.637 -0.3898 -0.8374  0.0881
19372TIP3    H179531   4.365   3.200   3.579  0.3186  0.4265  1.1702
19372TIP3    H279532   4.324   3.146   3.715 -0.8111 -0.4268  0.5147
19373TIP3   OH279533   3.289   6.182   2.089 -0.4227  0.3118  1.0571
19373TIP3    H179534   3.305   6.221   2.174  0.7294 -1.6696  1.8180
19373TIP3    H279535   3.205   6.220   2.060 -1.2089  0.4878  3.3805
19374TIP3   OH279536   0.450   1.963  15.727  0.0447 -0.2896 -0.7332
19374TIP3    H179537   0.402   1.926  15.653 -0.5544  1.3510 -1.2274
19374TIP3    H279538   0.384   2.012  15.776  0.6878 -0.2979  0.1728
19375TIP3   OH279539   6.330   2.986   6.372  0.0080 -0.3377 -0.0690
19375TIP3    H179540   6.321   2.896   6.401  0.8632 -0.0904  1.0065
19375TIP3    H279541   6.255   3.000   6.314  0.2870 -1.9647 -0.8830
19376TIP3   OH279542   2.172   4.009   5.552  0.4914 -0.4266 -0.4963
19376TIP3    H179543   2.240   4.076   5.547 -2.0359  2.2825 -1.4562
19376TIP3    H279544   2.137   4.005   5.463 -2.5147  0.4950  0.5533
19377TIP3   OH279545   3.152   5.810  12.504  0.3115  0.4806 -0.0290
19377TIP3    H179546   3.151   5.810  12.409 -0.7690  0.7225 -0.0361
19377TIP3    H279547   3.223   5.751  12.528  1.2861  1.2354 -0.9736
19378TIP3   OH279548   0.758   6.477  16.581  0.6718  0.1937 -0.0292
19378TIP3    H179549   0.741   6.557  16.531 -1.3432 -0.7561 -0.9805
19378TIP3    H279550   0.854   6.472  16.586  0.8654  2.0134 -1.0058
19379TIP3   OH279551   3.370   1.903   1.112  0.0582 -0.2061 -0.5709
19379TIP3    H179552   3.372   1.992   1.076  0.2462  1.1667  2.4791
19379TIP3    H279553   3.277   1.887   1.129 -0.0342 -0.8571 -1.6340
19380TIP3   OH279554   1.607   4.082  11.726 -0.7170  0.2184 -0.2162
19380TIP3    H179555   1.611   4.043  11.639 -2.0695 -1.7409  0.4959
19380TIP3    H279556   1.537   4.033  11.770 -1.3971  2.4446  1.3493
19381TIP3   OH279557   5.278   3.149   0.989 -0.5934 -0.2120  0.5732
19381TIP3    H179558   5.329   3.165   1.069 -0.9460  2.0925  0.3976
19381TIP3    H279559   5.340   3.107   0.929  0.3656  0.1909  1.2509
19382TIP3   OH279560   0.346   4.387  12.845  0.5565  0.2615 -0.0292
19382TIP3    H179561   0.251   4.379  12.854  0.7459 -2.7085  0.2563
19382TIP3    H279562   0.380   4.374  12.934  1.2642  1.4685 -0.0981
19383TIP3   OH279563   0.339   5.789  16.144 -0.2482  0.1349  0.2986
19383TIP3    H179564   0.337   5.878  16.110  1.5979 -0.1136 -0.5560
19383TIP3    H279565   0.422   5.783  16.191  0.0624 -1.3679 -0.3764
19384TIP3   OH279566   3.136   6.444  16.071  0.3263 -0.1664 -0.2834
19384TIP3    H179567   3.171   6.488  15.993 -0.0448 -1.6657 -1.3360
19384TIP3    H279568   3.149   6.351  16.054 -0.0915 -0.5449  1.3069
19385TIP3   OH279569   5.194   3.307   4.736  0.1658  0.1047  0.3236
19385TIP3    H179570   5.236   3.392   4.745  0.6842  0.0310 -1.0829
19385TIP3    H279571   5.266   3.246   4.719 -0.3724 -0.1936 -1.0677
19386TIP3   OH279572   4.638   5.528   6.426  0.1772 -0.0271  0.3976
19386TIP3    H179573   4.567   5.584   6.459  1.9908  0.7253  3.4336
19386TIP3    H279574   4.613   5.440   6.452 -0.6065 -0.0819 -0.4715
19387TIP3   OH279575   5.622   6.665   2.753  0.1060 -0.7579 -0.0648
19387TIP3    H179576   5.561   6.732   2.782  0.7369 -0.2363  0.0862
19387TIP3    H279577   5.668   6.638   2.832 -0.4793 -1.7347 -0.0356
19388TIP3   OH279578   0.813   3.934  15.922 -0.0338  0.5052 -0.0271
19388TIP3    H179579   0.772   3.999  15.979  0.4812  0.0026  0.9557
19388TIP3    H279580   0.848   3.984  15.848 -0.7598  1.1673  0.0669
19389TIP3   OH279581   0.923   5.480  14.922 -0.0977  0.3314 -0.1263
19389TIP3    H179582   0.980   5.412  14.887 -0.9214  0.5018 -1.9156
19389TIP3    H279583   0.981   5.539  14.970  0.6868 -1.3958  1.1120
19390TIP3   OH279584   5.893   0.973  13.836 -0.6570  0.2890  0.1645
19390TIP3    H179585   5.842   0.967  13.756  0.2552  2.6968 -0.7008
19390TIP3    H279586   5.830   0.999  13.903 -0.9394  1.4231 -0.5040
19391TIP3   OH279587   4.941   1.335  11.179  0.4844  0.5397 -0.0100
19391TIP3    H179588   5.017   1.342  11.236  0.3743  1.6928  0.0072
19391TIP3    H279589   4.977   1.304  11.096  0.8002 -0.0430  0.3368
19392TIP3   OH279590   4.776   0.738  12.768  0.4837  0.6530  0.6185
19392TIP3    H179591   4.741   0.792  12.839 -0.4518  0.9054 -0.0136
19392TIP3    H279592   4.855   0.698  12.805 -1.0132 -0.7744  2.5043
19393TIP3   OH279593   2.820   6.699   4.163 -0.0996  0.1278 -0.1277
19393TIP3    H179594   2.848   6.691   4.254 -0.6419  0.4878  0.0731
19393TIP3    H279595   2.901   6.693   4.113  0.1268 -0.8047  0.3347
19394TIP3   OH279596   3.117   3.126  16.272  0.3481  0.3107 -0.1832
19394TIP3    H179597   3.062   3.113  16.194 -2.1968 -0.9504  1.6595
19394TIP3    H279598   3.091   3.211  16.306 -0.1345 -0.0582  0.4045
19395TIP3   OH279599   3.767   5.591  10.907  0.4137 -0.9272 -0.4531
19395TIP3    H179600   3.719   5.563  10.830  1.5330 -2.2531 -0.7140
19395TIP3    H279601   3.859   5.585  10.882  0.7738 -0.2529  0.6100
19396TIP3   OH279602   6.639   0.182  16.861 -0.0030 -1.0683 -0.6606
19396TIP3    H179603   6.606   0.229  16.784  1.1202  0.5270 -0.2100
19396TIP3    H279604   6.588   0.217  16.934  1.0290 -0.3031 -0.2828
19397TIP3   OH279605   0.922   4.094   3.793 -0.0062 -0.3372  0.1408
19397TIP3    H179606   0.838   4.048   3.797 -0.3416  0.3288  1.5025
19397TIP3    H279607   0.916   4.149   3.715  0.6648 -2.9739 -1.9492
19398TIP3   OH279608   4.597   3.866   6.589 -0.0928  0.2208 -0.4326
19398TIP3    H179609   4.504   3.845   6.595  0.2843 -1.4534  0.2438
19398TIP3    H279610   4.641   3.782   6.604  1.5199  0.9081 -1.0946
19399TIP3   OH279611   3.575   2.183   4.888  0.2972  0.1752 -0.0403
19399TIP3    H179612   3.497   2.137   4.920  1.4132 -1.4960  0.4057
19399TIP3    H279613   3.579   2.160   4.795  0.3313  0.1505 -0.0329
19400TIP3   OH279614   2.719   0.806  14.628  0.1805 -0.2132  0.1010
19400TIP3    H179615   2.780   0.808  14.555 -0.2907 -2.2682 -0.4121
19400TIP3    H279616   2.733   0.720  14.669  0.1168  0.7057  2.1662
19401TIP3   OH279617   1.578   6.347   0.961  0.1608 -0.1067 -0.0125
19401TIP3    H179618   1.641   6.277   0.940 -0.4825 -0.6978 -0.0130
19401TIP3    H279619   1.621   6.397   1.030  0.3069 -0.9997  0.5735
19402TIP3   OH279620   0.538   2.566   1.132  0.2647  0.2172  0.0316
19402TIP3    H179621   0.558   2.571   1.226  0.3909  0.8433 -0.0236
19402TIP3    H279622   0.443   2.579   1.127  0.6166  3.3840 -0.1298
19403TIP3   OH279623   0.916   6.500   1.159 -0.1271 -0.2007 -0.2746
19403TIP3    H179624   0.927   6.423   1.216  0.7025 -0.3801 -0.6742
19403TIP3    H279625   0.828   6.531   1.179 -0.8393 -1.7980 -0.7670
19404TIP3   OH279626   2.760   5.194  13.115 -0.2570  0.2378  0.0740
19404TIP3    H179627   2.840   5.216  13.068 -0.6226  2.1300  0.2597
19404TIP3    H279628   2.779   5.215  13.206 -0.3857 -1.0233  0.4089
19405TIP3   OH279629   5.090   2.051   5.079 -0.1297  0.2542 -0.0636
19405TIP3    H179630   5.059   2.092   5.160  0.9805  1.3609 -0.1646
19405TIP3    H279631   5.039   1.970   5.072 -0.7480  0.4860  1.3646
19406TIP3   OH279632   4.289   4.890  11.159 -0.3403  0.1273  0.3074
19406TIP3    H179633   4.297   4.814  11.101  0.0787  1.6806 -1.8178
19406TIP3    H279634   4.204   4.879  11.202  0.2386 -2.0988  0.9934
19407TIP3   OH279635   4.762   0.197   2.468 -0.0466 -0.4187  0.0454
19407TIP3    H179636   4.771   0.102   2.468  1.7307 -0.2930 -0.7312
19407TIP3    H279637   4.820   0.227   2.398  1.3451  1.3526  1.8247
19408TIP3   OH279638   0.925   6.670   0.946  0.0275 -0.3903 -0.2588
19408TIP3    H179639   0.930   6.652   1.040  1.6844 -0.4576 -0.3280
19408TIP3    H279640   1.014   6.698   0.922 -1.1637  3.1842 -1.1032
19409TIP3   OH279641   3.800   1.515   3.336  0.0279 -0.1516  0.0731
19409TIP3    H179642   3.852   1.592   3.360 -0.4786 -0.1787  1.3134
19409TIP3    H279643   3.725   1.551   3.289  0.5717 -0.0266 -0.7313
19410TIP3   OH279644   3.344   1.913   2.294  0.8746  0.1380  0.0102
19410TIP3    H179645   3.381   2.001   2.293 -0.1749  0.6149  1.0965
19410TIP3    H279646   3.281   1.914   2.222  1.3575  0.0382 -0.4211
19411TIP3   OH279647   0.583   5.778  16.264 -0.7844  0.4117 -0.6764
19411TIP3    H179648   0.588   5.864  16.307 -0.5603 -1.2310  3.0253
19411TIP3    H279649   0.673   5.744  16.267 -1.1390 -0.5629 -0.6113
19412TIP3   OH279650   2.802   3.296   5.152 -0.4073  0.3087 -0.3060
19412TIP3    H179651   2.709   3.314   5.147 -0.6236 -0.4766  0.5068
19412TIP3    H279652   2.814   3.217   5.099 -0.0394  0.9199 -1.1551
19413TIP3   OH279653   3.965   0.994  10.283 -0.5263 -0.3135  0.5847
19413TIP3    H179654   3.899   0.973  10.349 -1.1784 -0.7802 -0.2034
19413TIP3    H279655   3.926   1.062  10.229  1.1803  2.3571  2.4830
19414TIP3   OH279656   4.508   1.499  16.395  0.2501 -0.3536 -0.1178
19414TIP3    H179657   4.597   1.464  16.393  0.0480 -1.0831  1.5381
19414TIP3    H279658   4.520   1.594  16.387  1.2775 -0.3660  0.9120
19415TIP3   OH279659   4.148   1.284   2.651  0.1313  0.0804 -0.0656
19415TIP3    H179660   4.207   1.214   2.678  0.0545 -0.4097 -1.1412
19415TIP3    H279661   4.091   1.296   2.727  0.5353 -0.5862  0.3653
19416TIP3   OH279662   2.027   1.389   0.374  0.0710 -0.3552  0.4686
19416TIP3    H179663   1.954   1.329   0.390 -2.4873  2.5662  0.6888
19416TIP3    H279664   2.022   1.407   0.280  0.5613 -0.1647  0.4774
19417TIP3   OH279665   0.614   4.001   2.858  0.0890  0.3492  0.0921
19417TIP3    H179666   0.603   3.932   2.793 -0.2554  0.0735  0.4327
19417TIP3    H279667   0.661   3.960   2.930  1.5774  0.9766 -0.4730
19418TIP3   OH279668   2.133   2.907  16.130 -0.3525 -0.0820  0.8306
19418TIP3    H179669   2.125   2.834  16.191  0.6332  0.6449  1.8822
19418TIP3    H279670   2.052   2.957  16.140 -1.3435 -1.3706 -0.4064
19419TIP3   OH279671   5.229   5.688  15.463  0.4924  0.4216 -0.5612
19419TIP3    H179672   5.193   5.741  15.534  2.3744  0.3450  0.5246
19419TIP3    H279673   5.182   5.605  15.468 -0.8326  1.1243 -0.7758
19420TIP3   OH279674   0.295   5.737  14.646 -0.3437  0.4697  1.4476
19420TIP3    H179675   0.310   5.710  14.736 -1.1559  1.4826  1.9061
19420TIP3    H279676   0.266   5.828  14.652  1.8451  1.3470 -0.0111
19421TIP3   OH279677   3.001   5.867  15.993 -0.2992  0.0869 -0.2255
19421TIP3    H179678   3.033   5.880  16.082  1.0152 -1.9309 -0.3329
19421TIP3    H279679   3.058   5.923  15.939 -1.0553  1.2607  0.1602
19422TIP3   OH279680   0.325   0.308  13.372 -0.1242  0.0197 -0.0406
19422TIP3    H179681   0.310   0.239  13.437  2.5339  0.2282  0.9530
19422TIP3    H279682   0.280   0.385  13.406  1.4102  0.1853  1.7700
19423TIP3   OH279683   2.247   6.477  11.814  0.1106  0.0536  0.2045
19423TIP3    H179684   2.185   6.421  11.767 -0.9886 -0.1744  1.8151
19423TIP3    H279685   2.274   6.423  11.889  0.9784  0.7704  0.4149
19424TIP3   OH279686   2.056   1.317   1.056  0.1419 -0.3078 -0.1557
19424TIP3    H179687   2.126   1.255   1.034 -1.2501 -2.2173  0.5648
19424TIP3    H279688   1.975   1.267   1.046 -0.9363  0.7326  2.5404
19425TIP3   OH279689   4.101   1.784   4.079 -0.0711  0.2588  0.1649
19425TIP3    H179690   4.031   1.822   4.027 -0.1302  0.5886  0.4843
19425TIP3    H279691   4.106   1.693   4.049 -1.3817 -0.0846  0.9189
19426TIP3   OH279692   5.990   2.236   3.617  0.4321  0.2384  0.4014
19426TIP3    H179693   6.074   2.241   3.572  0.2607 -1.7653 -0.2820
19426TIP3    H279694   6.001   2.164   3.679 -0.8798 -0.3257  0.0156
19427TIP3   OH279695   1.921   4.350   4.501 -0.3831 -0.5204  0.0066
19427TIP3    H179696   1.875   4.295   4.438  1.0936 -1.1159 -0.5839
19427TIP3    H279697   1.931   4.435   4.457 -2.1501  0.1074  0.7009
19428TIP3   OH279698   6.413   4.817  15.289 -0.3286  0.0816 -0.2399
19428TIP3    H179699   6.336   4.761  15.275  1.2734 -1.7441 -2.6037
19428TIP3    H279700   6.426   4.861  15.205 -1.0255  3.5579  1.2901
19429TIP3   OH279701   3.765   3.780   3.609 -0.3772 -0.1650 -0.3728
19429TIP3    H179702   3.704   3.733   3.666 -0.0512 -3.1270 -2.2639
19429TIP3    H279703   3.712   3.803   3.533 -0.5036  2.6457  0.4609
19430TIP3   OH279704   0.517   0.533  13.133 -0.2753 -0.3880 -0.2448
19430TIP3    H179705   0.501   0.625  13.110  3.2947  1.5354  3.5904
19430TIP3    H279706   0.610   0.519  13.110 -0.2328 -2.4447  0.9481
19431TIP3   OH279707   5.077   5.153   2.860 -0.3746  0.3731 -0.2105
19431TIP3    H179708   5.124   5.143   2.943 -0.2400 -1.4402 -0.4569
19431TIP3    H279709   5.133   5.210   2.807  0.5553 -0.1023  0.2336
19432TIP3   OH279710   1.227   4.509  17.107 -0.0452  0.0422 -0.1598
19432TIP3    H179711   1.316   4.535  17.131 -0.2028  1.1868 -0.7898
19432TIP3    H279712   1.239   4.429  17.056  0.5614 -0.2490  0.4248
19433TIP3   OH279713   3.062   4.144   3.167  0.3307 -0.0603  0.4185
19433TIP3    H179714   3.038   4.059   3.130  1.7445 -0.7302  0.9695
19433TIP3    H279715   2.992   4.164   3.230 -0.0173 -0.7958  0.2704
19434TIP3   OH279716   2.424   4.134  11.404  0.5355  0.1969 -0.1208
19434TIP3    H179717   2.515   4.128  11.433 -0.1049  0.8679  2.1908
19434TIP3    H279718   2.399   4.225  11.420 -0.8674 -0.2387  0.3310
19435TIP3   OH279719   0.937   4.539  17.032 -0.0888 -0.7513 -0.5153
19435TIP3    H179720   0.959   4.496  16.950  0.5790  0.0052 -0.7426
19435TIP3    H279721   1.008   4.514  17.092  0.0963 -0.2975 -0.5372
19436TIP3   OH279722   5.715   6.618  13.192  0.1254 -0.3376 -0.4058
19436TIP3    H179723   5.634   6.656  13.157 -1.8561 -2.4116  1.5215
19436TIP3    H279724   5.729   6.666  13.274  2.0614  1.3107 -1.5997
19437TIP3   OH279725   5.576   4.912   2.032 -0.3396 -0.7329 -0.0261
19437TIP3    H179726   5.616   4.995   2.005 -2.4602  0.3923  0.1292
19437TIP3    H279727   5.544   4.874   1.950  0.9412 -1.6285 -0.1459
19438TIP3   OH279728   3.064   4.231   0.170 -0.2166 -0.0460 -0.3724
19438TIP3    H179729   3.156   4.202   0.169 -0.6287 -1.4305  0.0930
19438TIP3    H279730   3.022   4.175   0.235 -0.9970  1.8960  0.8788
19439TIP3   OH279731   0.920   2.402   1.770 -0.0417 -0.0624 -0.6256
19439TIP3    H179732   0.894   2.450   1.849  0.5490 -1.6723  0.5823
19439TIP3    H279733   0.882   2.315   1.780  0.6251 -0.5196 -1.7833
19440TIP3   OH279734   3.864   6.428   2.251  0.3814 -0.3131 -0.5457
19440TIP3    H179735   3.881   6.472   2.334 -0.2367 -0.6685 -0.2309
19440TIP3    H279736   3.936   6.365   2.242  0.6547 -0.0187 -0.4690
19441TIP3   OH279737   0.616   6.269  16.505  0.0464  0.0007 -0.7468
19441TIP3    H179738   0.602   6.199  16.569 -0.7743 -1.0556 -2.0214
19441TIP3    H279739   0.675   6.330  16.549  0.4490 -1.2718  0.5707
19442TIP3   OH279740   5.138   5.964   2.813  0.2530  0.4157  0.5576
19442TIP3    H179741   5.174   6.037   2.762 -0.0036 -0.2158 -0.5752
19442TIP3    H279742   5.202   5.894   2.801  0.5645  0.4819  1.7517
19443TIP3   OH279743   6.217   1.478  13.546  0.1431 -0.3353  0.4175
19443TIP3    H179744   6.154   1.416  13.508 -1.5530  0.0480  2.4011
19443TIP3    H279745   6.279   1.423  13.593 -1.4860 -0.6277  2.3619
19444TIP3   OH279746   2.932   5.522   4.408 -0.2934 -0.3517 -0.1080
19444TIP3    H179747   2.860   5.572   4.371 -1.2406 -1.1299  0.6503
19444TIP3    H279748   2.891   5.461   4.469  1.1210  0.3967  1.7088
19445TIP3   OH279749   3.746   4.427  16.006 -0.2825 -0.5968 -0.4394
19445TIP3    H179750   3.671   4.391  15.959 -0.8939  0.1778 -0.0802
19445TIP3    H279751   3.709   4.495  16.063  0.5973 -0.6879  0.2710
19446TIP3   OH279752   3.853   3.485   5.060 -0.2680  0.4474  0.2634
19446TIP3    H179753   3.920   3.497   5.127  0.6951  1.3318 -0.8071
19446TIP3    H279754   3.860   3.564   5.005 -0.9291 -0.3112 -0.9454
19447TIP3   OH279755   4.398   2.281   3.415 -0.1828 -0.0853  0.3270
19447TIP3    H179756   4.429   2.351   3.358 -0.1776  0.0566  0.5018
19447TIP3    H279757   4.310   2.262   3.385  1.2762 -3.1112 -2.6941
19448TIP3   OH279758   3.437   3.877   1.752 -0.5024  0.2233  0.0280
19448TIP3    H179759   3.525   3.839   1.754 -0.4718  0.3030  0.1468
19448TIP3    H279760   3.402   3.850   1.667 -0.6615 -0.4914  0.3123
19449TIP3   OH279761   5.238   3.792   1.594  0.1021  0.2768 -0.3042
19449TIP3    H179762   5.165   3.829   1.644  0.1380  0.8181 -0.6443
19449TIP3    H279763   5.251   3.705   1.632  0.4299  0.8460  0.9425
19450TIP3   OH279764   2.811   5.377   0.414 -0.3152  0.4693  0.0418
19450TIP3    H179765   2.759   5.443   0.461 -0.5474  0.9309 -0.8335
19450TIP3    H279766   2.769   5.369   0.329  0.1180 -0.3260 -0.1114
19451TIP3   OH279767   3.344   0.955   0.574 -0.1354  0.1891 -0.0275
19451TIP3    H179768   3.411   0.917   0.631 -1.2635 -0.9725  0.5753
19451TIP3    H279769   3.292   0.881   0.544 -1.0175  1.0312 -0.6805
19452TIP3   OH279770   3.852   2.467   2.891 -0.0066  0.3331 -0.0585
19452TIP3    H179771   3.853   2.499   2.981  0.6885 -0.7639  0.3372
19452TIP3    H279772   3.760   2.476   2.863 -0.0772  1.4220  0.4630
19453TIP3   OH279773   1.852   1.106   0.067 -0.4825 -0.1489 -0.2051
19453TIP3    H179774   1.854   1.016   0.034 -1.2700  0.2816 -1.4903
19453TIP3    H279775   1.798   1.101   0.146 -1.0349 -0.7026 -0.6041
19454TIP3   OH279776   0.363   2.757   2.334 -0.4633 -0.2265 -0.3346
19454TIP3    H179777   0.324   2.682   2.288 -0.9523  0.3286 -0.8320
19454TIP3    H279778   0.289   2.801   2.375 -0.4694  1.1713 -1.7645
19455TIP3   OH279779   4.295   3.597  15.274  0.3568 -0.1901  0.4514
19455TIP3    H179780   4.283   3.529  15.208  1.7655 -0.2428  0.2193
19455TIP3    H279781   4.335   3.551  15.348  3.2886  0.6740 -0.4648
19456TIP3   OH279782   0.221   2.563  16.427 -0.2912  0.6281  0.3195
19456TIP3    H179783   0.195   2.486  16.477  0.4502  0.1490 -0.0172
19456TIP3    H279784   0.210   2.636  16.488 -0.8804  0.2459  0.6806
19457TIP3   OH279785   1.455   4.965   0.238 -0.2266 -0.0347  0.4509
19457TIP3    H179786   1.415   5.018   0.307 -1.3845 -0.0434 -0.1900
19457TIP3    H279787   1.385   4.950   0.175  0.3963 -1.3404  0.0246
19458TIP3   OH279788   5.148   6.352   2.707  0.6661  0.0984  0.2354
19458TIP3    H179789   5.074   6.386   2.757  1.7689  2.3202  0.4625
19458TIP3    H279790   5.226   6.387   2.752  1.7237  1.4240 -2.4190
19459TIP3   OH279791   2.877   1.237  11.696  0.0361 -0.8720  0.2410
19459TIP3    H179792   2.913   1.308  11.749 -0.8137 -1.0303  1.0625
19459TIP3    H279793   2.945   1.170  11.695 -0.0068 -0.9508  1.3222
19460TIP3   OH279794   6.577   2.233   5.586  0.9701  0.1263  0.0127
19460TIP3    H179795   6.536   2.178   5.653  2.2889  0.8020  1.4516
19460TIP3    H279796   6.624   2.172   5.530  1.0584 -0.3530  0.5977
19461TIP3   OH279797   5.228   6.101   3.162  0.6855 -0.1464  0.3376
19461TIP3    H179798   5.282   6.108   3.084  0.3805  0.9194  0.2054
19461TIP3    H279799   5.161   6.168   3.152  1.5144  1.0540  2.1777
19462TIP3   OH279800   0.874   6.150   0.677  0.2604  0.0181  0.0904
19462TIP3    H179801   0.878   6.112   0.589  0.7657  1.0496 -0.3365
19462TIP3    H279802   0.791   6.117   0.713  0.7945 -1.7085 -0.1501
19463TIP3   OH279803   6.218   6.127  13.242 -0.8115 -0.0724 -0.3908
19463TIP3    H179804   6.271   6.192  13.195 -0.2442 -0.0375  0.2860
19463TIP3    H279805   6.228   6.047  13.190 -0.2083 -0.0294 -0.3532
19464TIP3   OH279806   3.469   6.059  14.055  0.2463 -0.3989 -0.4875
19464TIP3    H179807   3.388   6.028  14.015  0.2328  0.9695 -1.5821
19464TIP3    H279808   3.534   5.993  14.031 -0.4039 -1.1957 -0.1079
19465TIP3   OH279809   6.011   4.021   5.679 -0.0567 -0.3620  0.3946
19465TIP3    H179810   6.093   4.059   5.711 -0.6488  1.6849 -0.3242
19465TIP3    H279811   6.027   4.004   5.586 -0.7192  1.0477 -0.0116
19466TIP3   OH279812   3.538   4.915   3.678 -0.4643  0.1856 -0.0648
19466TIP3    H179813   3.568   5.004   3.696 -1.1765  0.4506 -0.1587
19466TIP3    H279814   3.447   4.913   3.709 -1.2042  0.1795 -2.1085
19467TIP3   OH279815   1.083   2.896   1.523  0.1592 -0.0514 -0.3244
19467TIP3    H179816   1.047   2.831   1.583  1.4894 -0.3371  0.1999
19467TIP3    H279817   1.007   2.932   1.477 -0.6275 -1.7145 -0.3686
19468TIP3   OH279818   6.406   0.033  12.851 -0.0382 -0.2090 -0.3493
19468TIP3    H179819   6.475   0.067  12.795  0.6672  1.0328  1.1931
19468TIP3    H279820   6.408   0.089  12.929 -2.7349 -0.1684 -0.2052
19469TIP3   OH279821   2.223   2.387   1.305  0.1206  0.5399  0.3020
19469TIP3    H179822   2.253   2.301   1.332 -1.4941  0.0962  0.8096
19469TIP3    H279823   2.195   2.430   1.386 -1.1195  0.6885 -0.1821
19470TIP3   OH279824   5.946   0.428  10.547  0.0494 -0.1642 -0.2392
19470TIP3    H179825   6.035   0.398  10.529  1.0010  1.9264  0.6357
19470TIP3    H279826   5.936   0.507  10.494 -1.1495 -0.1539 -0.0202
19471TIP3   OH279827   2.519   2.002  11.023  0.2184  0.0848 -0.2728
19471TIP3    H179828   2.522   1.907  11.037  2.1772 -0.1946 -2.0173
19471TIP3    H279829   2.479   2.012  10.936 -0.7155  0.9540  0.2245
19472TIP3   OH279830   0.564   6.418  14.792  0.1426 -0.3142 -0.0251
19472TIP3    H179831   0.587   6.492  14.848  0.4285 -0.9141  0.6664
19472TIP3    H279832   0.522   6.457  14.716  1.2834  0.6313 -0.1829
19473TIP3   OH279833   5.022   2.981   3.755  0.7463 -0.3686 -0.1284
19473TIP3    H179834   5.000   3.000   3.664 -0.1370 -2.3481 -0.4006
19473TIP3    H279835   5.111   2.945   3.751  0.9997  0.2592 -0.1083
19474TIP3   OH279836   2.881   3.737   0.352 -0.3581 -0.5559  0.1432
19474TIP3    H179837   2.852   3.646   0.353  0.1439 -0.7191  0.3514
19474TIP3    H279838   2.925   3.746   0.267  0.1226 -0.6863  0.3718
19475TIP3   OH279839   1.019   0.413   5.096 -0.3281 -0.7310 -0.2337
19475TIP3    H179840   1.061   0.443   5.176 -0.3761 -1.3959  0.0411
19475TIP3    H279841   0.980   0.493   5.059  0.5772 -0.2268 -0.1456
19476TIP3   OH279842   4.929   0.070  14.001 -0.3762 -0.1393 -0.3769
19476TIP3    H179843   4.984  -0.008  13.994  0.3278  0.4090 -1.1773
19476TIP3    H279844   4.839   0.036  14.007  0.0435 -1.0721  1.6217
19477TIP3   OH279845   2.582   2.377  15.378 -0.1665 -0.6013  0.3851
19477TIP3    H179846   2.668   2.356  15.413  0.1945 -0.1976 -0.2321
19477TIP3    H279847   2.561   2.303  15.321 -0.5358 -1.0237  1.0595
19478TIP3   OH279848   4.982   3.426   1.218  0.5208 -0.5863  0.3050
19478TIP3    H179849   4.915   3.378   1.266 -0.4729  1.8178  1.4743
19478TIP3    H279850   4.942   3.447   1.134  0.1901 -0.1264  0.5697
19479TIP3   OH279851   5.253   5.849  11.392 -0.1820  0.0316  1.0573
19479TIP3    H179852   5.197   5.775  11.373 -0.2427  0.1207  0.8836
19479TIP3    H279853   5.330   5.837  11.336  0.3300 -0.4927  1.8470
19480TIP3   OH279854   0.560   1.491   1.697 -0.0549 -0.2497  0.5279
19480TIP3    H179855   0.579   1.423   1.632 -0.7270 -0.6132  0.6929
19480TIP3    H279856   0.539   1.442   1.776  2.1865  0.2075  1.4620
19481TIP3   OH279857   5.299   6.058  14.045  0.4593  0.4211 -0.2349
19481TIP3    H179858   5.255   6.069  14.130 -2.7215 -2.2298 -1.3184
19481TIP3    H279859   5.273   6.135  13.994 -1.0896  0.0210 -0.0821
19482TIP3   OH279860   0.245   6.509  11.606 -0.4687  0.3451 -0.2870
19482TIP3    H179861   0.338   6.532  11.607 -0.3577  0.0878 -1.8106
19482TIP3    H279862   0.244   6.417  11.582 -1.1216  0.3256 -0.1851
19483TIP3   OH279863   4.656   5.972  11.590  0.0118 -0.0775 -0.2825
19483TIP3    H179864   4.604   6.024  11.651 -0.3839 -0.4451 -0.3003
19483TIP3    H279865   4.733   5.947  11.640 -0.4645 -0.6539  0.1801
19484TIP3   OH279866   3.891   0.749   1.186 -0.3211 -0.2626 -0.9676
19484TIP3    H179867   3.942   0.680   1.143  0.6281  0.1501 -0.5470
19484TIP3    H279868   3.844   0.792   1.115  1.4819  0.6239 -1.7092
19485TIP3   OH279869   2.892   0.237  12.757 -0.0331  0.3152 -1.1118
19485TIP3    H179870   2.826   0.306  12.756  0.6549  0.9860 -1.9341
19485TIP3    H279871   2.976   0.284  12.753  0.5575 -0.4765  0.7126
19486TIP3   OH279872   0.150   0.693  14.425 -0.2665  0.0831  0.4242
19486TIP3    H179873   0.204   0.697  14.346  2.1942 -0.2997  1.9898
19486TIP3    H279874   0.092   0.769  14.417 -1.1825 -0.7658 -2.4131
19487TIP3   OH279875   5.625   1.450  13.456  0.0158  0.1253  0.0190
19487TIP3    H179876   5.589   1.402  13.381  0.6500  0.7877 -0.7400
19487TIP3    H279877   5.673   1.384  13.506  0.4160 -0.1518 -0.7064
19488TIP3   OH279878   5.304   6.750   4.302 -0.3319 -0.0998 -0.3828
19488TIP3    H179879   5.379   6.698   4.272 -0.1045 -1.6219  2.4429
19488TIP3    H279880   5.339   6.838   4.316  1.3505 -1.0346  1.9480
19489TIP3   OH279881   3.917   3.255   2.877 -0.2772 -0.0790 -0.2248
19489TIP3    H179882   3.918   3.172   2.925 -1.2920 -0.2952 -0.5648
19489TIP3    H279883   3.824   3.277   2.869 -0.0094  1.1945  0.0334
19490TIP3   OH279884   3.936   5.275  11.555 -0.4055  0.3786  0.2774
19490TIP3    H179885   3.904   5.210  11.618 -1.0117 -0.3696 -0.7716
19490TIP3    H279886   3.911   5.240  11.469  3.1678 -0.2582 -0.6612
19491TIP3   OH279887   0.034   2.985   4.714  0.0788 -0.4512  0.0345
19491TIP3    H179888   0.049   2.892   4.729 -1.6879 -0.4648  2.4052
19491TIP3    H279889  -0.061   2.992   4.700 -0.4670  1.2022  3.3205
19492TIP3   OH279890   3.573   3.795  13.814 -0.0511 -0.5975  0.2113
19492TIP3    H179891   3.666   3.774  13.824  0.3077  1.3134  1.6376
19492TIP3    H279892   3.537   3.788  13.903 -0.6735  1.0503  0.1284
19493TIP3   OH279893   3.216   1.891  11.591 -0.5418 -0.3430  0.2728
19493TIP3    H179894   3.300   1.933  11.608 -1.5713  1.3441  1.4526
19493TIP3    H279895   3.224   1.858  11.502  0.4816  2.1155 -0.6394
19494TIP3   OH279896   4.458   1.151  13.904  0.2469 -0.0854  0.1167
19494TIP3    H179897   4.542   1.125  13.943 -0.5645 -0.4901  1.6641
19494TIP3    H279898   4.402   1.074  13.913 -0.7333  0.6446  0.4443
19495TIP3   OH279899   0.690   2.196   4.056 -0.0892  0.3517 -0.0488
19495TIP3    H179900   0.607   2.192   4.104 -0.7583  0.5284 -1.1517
19495TIP3    H279901   0.732   2.276   4.088 -0.1865  0.0891  0.7593
19496TIP3   OH279902   6.412   0.477  14.937 -0.3710  0.2237 -0.1463
19496TIP3    H179903   6.413   0.388  14.902  2.0640 -1.3873  3.4415
19496TIP3    H279904   6.322   0.490  14.967 -0.6503 -1.1977 -0.3130
19497TIP3   OH279905   5.863   6.412   4.913  0.0267 -0.2273 -0.4543
19497TIP3    H179906   5.828   6.439   4.997 -1.4978 -0.6156 -0.9325
19497TIP3    H279907   5.885   6.495   4.868 -0.4377  0.0304 -0.2080
19498TIP3   OH279908   4.166   3.328  10.697  0.0277 -0.8134  0.0311
19498TIP3    H179909   4.202   3.382  10.626 -1.7504 -0.5241 -0.7110
19498TIP3    H279910   4.154   3.390  10.769 -0.6549 -0.5196 -0.3297
19499TIP3   OH279911   4.786   1.391   2.798 -0.2616  0.4141 -0.7549
19499TIP3    H179912   4.726   1.378   2.724  0.9870 -0.4072 -1.6607
19499TIP3    H279913   4.842   1.314   2.798 -0.9149 -0.1389  1.7615
19500TIP3   OH279914   4.634   1.839   0.320  0.0248 -0.1401 -0.7173
19500TIP3    H179915   4.575   1.844   0.396  1.5567  0.3835  0.4844
19500TIP3    H279916   4.620   1.920   0.273 -0.6484 -0.2903 -0.7887
19501TIP3   OH279917   6.530   5.961  15.657 -0.3971  0.0252  0.5456
19501TIP3    H179918   6.474   5.902  15.606 -1.5140  1.1706  0.4022
19501TIP3    H279919   6.613   5.962  15.610 -1.1114  0.3332 -0.7452
19502TIP3   OH279920   3.893   4.292  16.966  0.1996 -0.4760 -0.4046
19502TIP3    H179921   3.852   4.327  16.886  1.0433  0.9399 -0.2551
19502TIP3    H279922   3.986   4.308  16.954  0.4104 -0.9279  0.5469
19503TIP3   OH279923   6.521   1.540   5.725 -0.0336 -0.4505  0.0481
19503TIP3    H179924   6.506   1.616   5.782 -2.4114  0.3669 -1.5162
19503TIP3    H279925   6.615   1.523   5.733  0.3996  2.0037  1.2607
19504TIP3   OH279926   0.790   5.155   1.926  0.2229 -0.1722  0.1555
19504TIP3    H179927   0.872   5.108   1.941  1.2839  1.0203 -1.5109
19504TIP3    H279928   0.789   5.224   1.992  0.1541 -0.6741  0.6824
19505TIP3   OH279929   3.900   5.481  12.298  0.0004 -0.1270  0.2209
19505TIP3    H179930   3.835   5.464  12.230  0.6012  0.5421 -0.5361
19505TIP3    H279931   3.904   5.576  12.304 -0.5069 -0.1766  1.6579
19506TIP3   OH279932   3.878   6.764  14.414 -0.3637 -0.2904  0.1679
19506TIP3    H179933   3.795   6.811  14.425 -0.5985 -0.5402 -0.4669
19506TIP3    H279934   3.876   6.696  14.482 -1.0392 -0.7893 -0.3394
19507TIP3   OH279935   3.356   5.431   5.183  0.5330  0.1825 -0.3442
19507TIP3    H179936   3.349   5.512   5.134 -1.3767  0.4699  0.3362
19507TIP3    H279937   3.383   5.459   5.271 -0.6314  0.1631  0.0348
19508TIP3   OH279938   1.641   3.954  16.405 -0.1336 -0.5196  0.2734
19508TIP3    H179939   1.576   3.887  16.424 -2.4646  1.2468 -0.8313
19508TIP3    H279940   1.653   4.001  16.487 -0.7178 -0.5076  0.3531
19509TIP3   OH279941   1.669   2.615  12.939  0.0977 -0.6880  0.3852
19509TIP3    H179942   1.576   2.593  12.944  0.3642 -1.6234  1.9595
19509TIP3    H279943   1.682   2.682  13.006  0.2047  0.9973 -1.2338
19510TIP3   OH279944   6.395   6.563  11.641  0.2663 -0.2911  0.3646
19510TIP3    H179945   6.401   6.492  11.576  2.2744 -0.3897  0.5803
19510TIP3    H279946   6.470   6.619  11.622 -0.6571  1.1784  0.9151
19511TIP3   OH279947   2.676   3.034   6.600  0.0858  0.2165 -0.1940
19511TIP3    H179948   2.673   3.030   6.504  0.4960 -0.0507 -0.2026
19511TIP3    H279949   2.650   2.946   6.628 -0.8703  0.5400 -0.0267
19512TIP3   OH279950   3.588   2.236  13.956  0.7735  0.2556  0.0637
19512TIP3    H179951   3.547   2.317  13.986 -0.7110 -0.0659 -1.0242
19512TIP3    H279952   3.599   2.248  13.862  0.2996 -0.9150 -0.1499
19513TIP3   OH279953   5.616   3.152  13.548  0.3913  0.2243 -0.2952
19513TIP3    H179954   5.534   3.202  13.550  0.6879  0.7191 -0.1545
19513TIP3    H279955   5.651   3.158  13.637 -1.2658 -3.1982  0.7389
19514TIP3   OH279956   5.268   3.602   4.823  0.1516  0.0903 -0.3433
19514TIP3    H179957   5.276   3.668   4.754  0.3551  0.5605  0.1298
19514TIP3    H279958   5.198   3.635   4.880  0.9123  0.3820  0.4331
19515TIP3   OH279959   1.894   6.379  12.105  0.0090  0.6305  0.2521
19515TIP3    H179960   1.849   6.370  12.189 -2.0582 -0.0024 -0.8475
19515TIP3    H279961   1.835   6.432  12.052  2.1525  2.6648 -0.2501
19516TIP3   OH279962   2.099   5.383  15.853  0.5991  0.3185  0.0893
19516TIP3    H179963   2.138   5.301  15.883  3.8368  1.9506  0.8689
19516TIP3    H279964   2.134   5.395  15.764 -0.2696  0.6222 -0.2209
19517TIP3   OH279965   5.633   5.617  16.633 -0.7035  0.2460 -0.2173
19517TIP3    H179966   5.644   5.691  16.693 -1.5077  1.0033 -0.9917
19517TIP3    H279967   5.719   5.607  16.592  0.2934 -1.1533  1.9791
19518TIP3   OH279968   6.262   5.839   0.845  0.5722 -0.4076 -0.2973
19518TIP3    H179969   6.198   5.813   0.779 -2.2181  0.4899  1.8648
19518TIP3    H279970   6.293   5.925   0.815 -0.2298 -0.2598 -0.7330
19519TIP3   OH279971   1.227   2.959   3.705 -0.6587  0.2279  0.0599
19519TIP3    H179972   1.153   3.013   3.735 -0.6201  0.0822  0.4198
19519TIP3    H279973   1.302   2.994   3.752 -0.4393  0.5797 -0.5408
19520TIP3   OH279974   0.393   5.355  14.089  0.1429  0.4791  0.0811
19520TIP3    H179975   0.440   5.271  14.091 -0.7247 -0.0978 -1.5571
19520TIP3    H279976   0.359   5.365  14.178  1.4318 -0.2091  0.6747
19521TIP3   OH279977   0.023   0.483  14.178 -0.5084  0.4661  0.1635
19521TIP3    H179978   0.104   0.471  14.130 -0.3522 -0.4868  0.6319
19521TIP3    H279979  -0.033   0.410  14.150  0.0910 -0.9589  2.3803
19522TIP3   OH279980   3.407   2.759   4.221  0.7250  0.5770  0.1209
19522TIP3    H179981   3.457   2.754   4.303 -0.2158  0.5055  0.7152
19522TIP3    H279982   3.372   2.671   4.209 -1.8566  1.2989  1.4546
19523TIP3   OH279983   4.427   1.826   1.651  0.0952  0.0752 -0.1336
19523TIP3    H179984   4.516   1.801   1.676 -0.7379 -1.7925  1.2365
19523TIP3    H279985   4.394   1.752   1.601 -0.9153  0.4304 -0.0229
19524TIP3   OH279986   4.918   1.671   4.607  0.1369  0.1045 -0.2972
19524TIP3    H179987   4.875   1.654   4.690 -1.5717  0.6514 -1.0163
19524TIP3    H279988   4.943   1.585   4.574 -0.2310 -0.2214  0.2605
19525TIP3   OH279989   6.262   3.707  16.232 -0.2836 -0.0636 -0.0346
19525TIP3    H179990   6.199   3.770  16.267  1.1859  0.5290  1.7046
19525TIP3    H279991   6.304   3.670  16.310  0.1137 -1.9316 -1.0719
19526TIP3   OH279992   5.202   0.707  16.435  0.0407  0.1094 -0.0924
19526TIP3    H179993   5.195   0.788  16.486  0.4567  1.9104 -2.6795
19526TIP3    H279994   5.254   0.732  16.358 -2.0376 -1.9095 -2.3367
19527TIP3   OH279995   2.537   0.521  11.303  0.3616  0.2797  0.0867
19527TIP3    H179996   2.560   0.432  11.277  3.6286  1.1134 -0.2297
19527TIP3    H279997   2.589   0.537  11.382 -0.9318  1.6037  0.7179
19528TIP3   OH279998   5.517   6.180   5.822  0.1749  0.0208 -0.4720
19528TIP3    H179999   5.468   6.099   5.833  1.1218 -0.4803  0.1094
19528TIP3    H280000   5.474   6.242   5.881 -0.2465 -0.1909 -0.5522
19529TIP3   OH280001   4.491   3.825  12.463 -0.2428  0.3082 -0.5154
19529TIP3    H180002   4.485   3.736  12.497  0.0185  0.1612 -0.8502
19529TIP3    H280003   4.559   3.866  12.515  0.4697 -0.0518 -1.1448
19530TIP3   OH280004   6.231   1.568  12.953 -0.3580 -0.0149 -0.2154
19530TIP3    H180005   6.283   1.616  12.888  1.2020 -0.0389  0.9520
19530TIP3    H280006   6.193   1.495  12.904  0.9805 -0.1636 -1.0770
19531TIP3   OH280007   3.242   2.574  13.460 -0.2370  0.2872  0.7449
19531TIP3    H180008   3.171   2.510  13.468  0.5476 -0.9326 -1.2850
19531TIP3    H280009   3.274   2.562  13.371  2.1972  1.1626  1.4423
19532TIP3   OH280010   3.466   2.169   6.014  0.0736 -0.3511  0.0249
19532TIP3    H180011   3.538   2.124   5.970  0.7240 -0.0926  0.7862
19532TIP3    H280012   3.510   2.233   6.071 -0.8340  1.5408 -1.3153
19533TIP3   OH280013   5.030   1.700  11.347  0.3519 -0.3439  0.0317
19533TIP3    H180014   4.959   1.736  11.401  0.1326  0.8926 -1.0283
19533TIP3    H280015   4.991   1.624  11.304 -0.4095  0.4008 -0.6435
19534TIP3   OH280016   1.146   2.169  16.787 -0.1801  0.0733 -0.8094
19534TIP3    H180017   1.148   2.212  16.702 -3.0812  0.0834 -0.9637
19534TIP3    H280018   1.053   2.153  16.804  0.5093 -2.5894  1.0390
19535TIP3   OH280019   6.074   2.317  13.757  0.3545  0.2220 -0.7331
19535TIP3    H180020   6.017   2.366  13.698  0.4261 -0.8891 -1.7689
19535TIP3    H280021   6.163   2.341  13.729  0.3913  0.6459 -0.2525
19536TIP3   OH280022   2.950   5.992   0.184  0.2050  0.3391 -0.5690
19536TIP3    H180023   2.876   5.934   0.168 -0.1314  0.6586 -0.1895
19536TIP3    H280024   3.008   5.942   0.242 -0.4798  0.6793  0.4376
19537TIP3   OH280025   2.803   2.529   0.591  1.1839  0.1388 -0.5049
19537TIP3    H180026   2.770   2.609   0.550 -0.5174 -0.6715 -0.7573
19537TIP3    H280027   2.835   2.476   0.518 -0.7553 -0.7984 -0.7186
19538TIP3   OH280028   1.687   2.011  11.945 -0.4498  0.4297 -0.2801
19538TIP3    H180029   1.603   2.033  11.984 -1.0003  1.1625 -1.8022
19538TIP3    H280030   1.745   1.995  12.020 -2.3638 -1.9652  0.8240
19539TIP3   OH280031   1.005   3.769   0.723  0.4867  0.4380  0.7099
19539TIP3    H180032   0.933   3.706   0.723  1.3482 -0.7475 -2.7104
19539TIP3    H280033   0.962   3.853   0.703 -0.2425  0.3610  1.8143
19540TIP3   OH280034   6.641   4.296  13.107  0.2879  0.3765  0.4911
19540TIP3    H180035   6.685   4.255  13.181  0.5828  0.8980  0.6146
19540TIP3    H280036   6.549   4.300  13.132  0.7124  3.0232  2.0671
19541TIP3   OH280037   3.146   0.591   3.939 -0.2422  0.1323 -0.1766
19541TIP3    H180038   3.108   0.672   3.970  0.2085  0.2062  0.2024
19541TIP3    H280039   3.206   0.564   4.009 -0.5198 -0.6196 -0.2148
19542TIP3   OH280040   4.358   4.424   5.446 -0.1307  0.0299  0.0741
19542TIP3    H180041   4.444   4.382   5.454  0.4758  1.1504 -0.3278
19542TIP3    H280042   4.349   4.441   5.353 -1.1563 -0.7757  0.0072
19543TIP3   OH280043   3.316   2.769  13.648  0.8834  0.0186  0.4340
19543TIP3    H180044   3.322   2.850  13.597  1.8914  0.4965  1.2689
19543TIP3    H280045   3.301   2.701  13.582 -1.6755  1.0201 -0.1527
19544TIP3   OH280046   0.072   5.511   0.691  0.0434  0.3544 -0.6009
19544TIP3    H180047   0.083   5.479   0.601  0.8158 -2.2407  0.3377
19544TIP3    H280048  -0.005   5.464   0.723 -1.4001  2.6622 -0.4010
19545TIP3   OH280049   0.900   5.778  12.602  0.9281 -0.2269 -0.1634
19545TIP3    H180050   0.928   5.854  12.653  1.7536 -0.4117 -0.3306
19545TIP3    H280051   0.968   5.712  12.618  0.1178 -1.0151  0.1556
19546TIP3   OH280052   5.220   4.017   5.182 -0.5411 -0.6228  0.2068
19546TIP3    H180053   5.141   4.044   5.135  0.3209 -0.1475 -1.0335
19546TIP3    H280054   5.222   4.073   5.259 -0.2235  1.0364 -0.9427
19547TIP3   OH280055   4.128   4.149   1.426  0.0271 -0.5082  0.1149
19547TIP3    H180056   4.089   4.127   1.511 -0.4119 -0.8390 -0.1657
19547TIP3    H280057   4.163   4.066   1.394 -0.2659 -0.4895 -0.2578
19548TIP3   OH280058   5.090   0.818   4.015 -0.1947 -0.4619 -0.2662
19548TIP3    H180059   5.164   0.758   4.023  0.3432  0.1875 -0.3513
19548TIP3    H280060   5.022   0.766   3.971 -0.1911 -1.4012  0.8013
19549TIP3   OH280061   6.211   1.040  16.706 -0.1977  0.2907 -0.5202
19549TIP3    H180062   6.266   1.116  16.727  0.8273 -0.5090 -0.2825
19549TIP3    H280063   6.253   0.966  16.750 -0.3921 -0.6690 -1.8911
19550TIP3   OH280064   4.694   6.743   2.395 -0.0306 -0.5330 -0.0980
19550TIP3    H180065   4.681   6.708   2.306 -0.7035 -0.5040 -0.0117
19550TIP3    H280066   4.735   6.670   2.443  0.4208 -0.5193 -0.4498
19551TIP3   OH280067   2.548   5.089  11.877 -0.6572  0.4953 -0.5642
19551TIP3    H180068   2.456   5.112  11.889 -0.7496 -0.4603  0.8197
19551TIP3    H280069   2.594   5.138  11.946 -0.6219 -1.7039  1.1204
19552TIP3   OH280070   5.165   6.193  15.598 -0.1490 -0.2276  0.1365
19552TIP3    H180071   5.204   6.162  15.517 -1.4956  0.3025 -0.7507
19552TIP3    H280072   5.159   6.288  15.588 -0.7613 -0.1984  0.6445
19553TIP3   OH280073   4.654   5.341  16.724  0.1694 -0.0833  0.2489
19553TIP3    H180074   4.684   5.255  16.695 -1.3198 -0.7834  0.6615
19553TIP3    H280075   4.720   5.370  16.786  1.7976  0.0596 -1.4694
19554TIP3   OH280076   1.651   2.914  11.439 -0.5390  0.0121  0.3993
19554TIP3    H180077   1.700   2.995  11.455 -1.4037  0.8045 -0.7664
19554TIP3    H280078   1.640   2.911  11.344  2.2386 -3.1653 -0.0339
19555TIP3   OH280079   5.105   6.369   6.172 -0.2382  0.4811 -0.1831
19555TIP3    H180080   5.075   6.391   6.084 -1.3113  0.4291  0.1505
19555TIP3    H280081   5.118   6.274   6.170  0.1135  0.5328 -0.3907
19556TIP3   OH280082   3.200   1.447   1.461  0.1524  0.1749 -0.0983
19556TIP3    H180083   3.195   1.493   1.377 -0.8020  0.7831  0.2831
19556TIP3    H280084   3.293   1.426   1.471  0.5983  1.8602 -0.3808
19557TIP3   OH280085   2.897   4.006  13.964 -0.5756  0.1248 -1.3099
19557TIP3    H180086   2.815   3.973  13.927 -0.7035  0.0268 -0.9439
19557TIP3    H280087   2.933   4.063  13.896 -0.5078 -0.5169 -1.8242
19558TIP3   OH280088   4.564   1.719  12.857 -0.4464 -0.0006 -0.7472
19558TIP3    H180089   4.570   1.662  12.933 -1.4380 -0.3613 -0.9253
19558TIP3    H280090   4.641   1.697  12.804 -0.1958 -0.3288 -0.2484
19559TIP3   OH280091   6.248   1.422  15.442 -0.1167 -0.1580  0.3773
19559TIP3    H180092   6.288   1.415  15.529 -0.4039 -1.6784  0.4170
19559TIP3    H280093   6.243   1.331  15.411  1.6929  0.4708 -2.0231
19560TIP3   OH280094   0.432   0.797   3.216  0.0067 -0.4975 -0.5763
19560TIP3    H180095   0.522   0.776   3.240  0.2723 -0.1637 -1.2473
19560TIP3    H280096   0.379   0.736   3.266  0.5019  0.4706  1.2203
19561TIP3   OH280097   0.024   4.412   5.624 -0.4170 -0.0963  0.2721
19561TIP3    H180098  -0.048   4.439   5.681 -0.7050  1.0706 -0.6165
19561TIP3    H280099  -0.010   4.334   5.579 -0.2232 -0.9704  1.5792
19562TIP3   OH280100   1.909   5.778  14.547  0.2356  0.2840 -0.4884
19562TIP3    H180101   1.824   5.821  14.560  0.1740  0.4158 -1.2846
19562TIP3    H280102   1.906   5.701  14.604 -0.5738  0.0769 -0.7982
19563TIP3   OH280103   6.358   3.353  14.856  0.3129  0.1576  0.1536
19563TIP3    H180104   6.436   3.394  14.818 -0.0377  0.5355 -0.1649
19563TIP3    H280105   6.316   3.309  14.783  0.2136 -0.0260  0.3212
19564TIP3   OH280106   2.406   2.210  13.619  0.4983  0.7592  0.0603
19564TIP3    H180107   2.356   2.131  13.599 -0.7294  2.0875 -2.6431
19564TIP3    H280108   2.442   2.238  13.534 -0.9760  4.2627  0.3984
19565TIP3   OH280109   0.985   5.567   2.261  0.0900 -0.2776  0.0141
19565TIP3    H180110   0.957   5.653   2.230 -0.7566 -1.1689 -1.8244
19565TIP3    H280111   0.905   5.528   2.298  0.3601 -0.4877  0.3890
19566TIP3   OH280112   5.331   6.140   2.664 -0.1799  0.0345  0.5801
19566TIP3    H180113   5.422   6.169   2.662  0.3844 -1.6134  1.1111
19566TIP3    H280114   5.280   6.221   2.657  1.2821  1.3652  3.6241
19567TIP3   OH280115   3.800   2.451  14.145 -0.4078  0.0982 -0.0377
19567TIP3    H180116   3.772   2.373  14.097  0.7259 -0.2822 -0.1320
19567TIP3    H280117   3.799   2.521  14.080 -1.5408  0.2025  0.0743
19568TIP3   OH280118   3.354   4.786  12.991  0.1997 -0.0174  0.0461
19568TIP3    H180119   3.375   4.693  12.988  0.8608  0.1474 -1.1924
19568TIP3    H280120   3.423   4.824  13.046 -0.6343 -0.3734  1.3796
19569TIP3   OH280121   1.871   4.629  12.892 -0.7680 -0.2390  0.2327
19569TIP3    H180122   1.956   4.642  12.935 -1.3264 -1.0551  1.6390
19569TIP3    H280123   1.834   4.717  12.887  0.7141  0.3416 -1.6809
19570TIP3   OH280124   5.771   4.673   1.049 -0.2157  0.8049 -0.1151
19570TIP3    H180125   5.732   4.611   1.112 -0.2591 -1.2059 -1.9849
19570TIP3    H280126   5.860   4.640   1.036 -0.1488  1.2947 -0.9440
19571TIP3   OH280127   1.849   4.315  13.714  0.2759  0.0187 -0.3211
19571TIP3    H180128   1.898   4.248  13.762 -0.5580  0.3783  1.0790
19571TIP3    H280129   1.834   4.384  13.778 -2.9041 -0.4841 -0.3936
19572TIP3   OH280130   4.502   0.953  16.946 -0.5415  0.8660 -0.2692
19572TIP3    H180131   4.582   1.000  16.921 -1.4122  2.8457  0.4074
19572TIP3    H280132   4.470   0.914  16.865  1.5195 -0.7255 -0.4085
19573TIP3   OH280133   3.713   1.780   3.998 -0.1183  0.1658 -0.3796
19573TIP3    H180134   3.788   1.798   3.941  0.4559 -0.2634  0.2189
19573TIP3    H280135   3.684   1.692   3.972  0.0921  0.0043 -0.0817
19574TIP3   OH280136   3.391   1.320   5.053  0.8081  0.3477  0.3307
19574TIP3    H180137   3.428   1.234   5.035  2.3749  0.9692  0.3997
19574TIP3    H280138   3.366   1.354   4.967  0.6499  0.0154  0.2466
19575TIP3   OH280139   0.635   4.851  10.904  0.7893  0.4635 -0.7926
19575TIP3    H180140   0.566   4.895  10.953 -1.2325 -2.4595 -0.8078
19575TIP3    H280141   0.633   4.892  10.817 -0.9047  0.5190 -0.7629
19576TIP3   OH280142   0.636   5.272   5.099  0.3707  0.2126 -0.1714
19576TIP3    H180143   0.709   5.254   5.039 -0.4736 -0.0790 -1.1407
19576TIP3    H280144   0.671   5.252   5.186  1.2718 -0.4710 -0.6763
19577TIP3   OH280145   6.659   3.127  14.994  0.4406  0.1788  0.2159
19577TIP3    H180146   6.698   3.212  14.973 -0.2774  1.0630  2.2108
19577TIP3    H280147   6.707   3.097  15.071  0.0231 -0.7511  0.1287
19578TIP3   OH280148   5.787   4.938   4.146  0.5408 -0.0869  0.0524
19578TIP3    H180149   5.732   4.868   4.182  0.9273  0.2836  1.4098
19578TIP3    H280150   5.873   4.897   4.134  0.2844 -0.3503 -0.9752
19579TIP3   OH280151   2.799   3.931   2.436  0.7204 -0.2112  0.0016
19579TIP3    H180152   2.747   4.004   2.468  0.3860 -0.3351 -0.2472
19579TIP3    H280153   2.790   3.864   2.504  0.0841 -0.4414 -0.2918
19580TIP3   OH280154   1.548   2.814   1.524  0.6902  1.0247  0.1986
19580TIP3    H180155   1.464   2.850   1.551  0.2835  0.8453 -0.7645
19580TIP3    H280156   1.612   2.879   1.551  0.0532  2.0810 -0.7419
19581TIP3   OH280157   2.231   2.545  11.726 -0.5245  0.2419 -0.3053
19581TIP3    H180158   2.277   2.509  11.801 -1.2966 -0.4646 -0.1638
19581TIP3    H280159   2.139   2.551  11.753 -0.5344  1.7341 -0.5392
19582TIP3   OH280160   1.766   1.480  15.451  0.1711  0.2418 -0.3363
19582TIP3    H180161   1.811   1.497  15.368 -1.0337  4.3922 -0.3574
19582TIP3    H280162   1.799   1.548  15.510 -2.3599  0.2717  1.1620
19583TIP3   OH280163   4.789   5.162  13.621 -0.2550  0.0115  0.4715
19583TIP3    H180164   4.828   5.080  13.651 -0.0054  0.1745  0.5903
19583TIP3    H280165   4.817   5.170  13.530 -0.1923  0.0204  0.4926
19584TIP3   OH280166   2.558   4.135   3.372 -0.5330  0.4902 -0.1187
19584TIP3    H180167   2.488   4.182   3.326 -0.2237 -0.6328 -1.8117
19584TIP3    H280168   2.537   4.043   3.360 -0.9676  0.0891  2.8916
19585TIP3   OH280169   5.940   5.828  17.091 -0.1608 -0.2660 -0.2239
19585TIP3    H180170   6.033   5.842  17.073  0.1412 -2.0673 -0.2343
19585TIP3    H280171   5.937   5.791  17.180 -0.9073  0.1538 -0.0600
19586TIP3   OH280172   6.655   0.352  12.026 -0.0240  0.4003 -0.2166
19586TIP3    H180173   6.682   0.389  11.942 -0.4707  1.2466  0.0017
19586TIP3    H280174   6.728   0.372  12.085 -0.2510  0.9295 -0.1062
19587TIP3   OH280175   4.348   4.640  15.886 -0.0885 -0.0446 -0.5714
19587TIP3    H180176   4.262   4.678  15.906  0.3808  0.4919  0.4773
19587TIP3    H280177   4.373   4.594  15.965  0.6032 -0.1863 -0.8689
19588TIP3   OH280178   3.282   5.402  11.515 -0.5813  0.1336 -0.0466
19588TIP3    H180179   3.360   5.356  11.547 -1.0357 -0.5599  0.0836
19588TIP3    H280180   3.316   5.465  11.452 -0.0966 -1.7288 -1.7597
19589TIP3   OH280181   4.764   5.829   3.987  0.0862 -0.2968 -0.0269
19589TIP3    H180182   4.746   5.904   3.930  0.4514 -0.0866  0.1294
19589TIP3    H280183   4.855   5.840   4.012 -0.2751  0.0177  1.1997
19590TIP3   OH280184   3.572   2.119  16.323  0.8709  0.2619 -0.3338
19590TIP3    H180185   3.526   2.121  16.407 -1.7567 -0.8621 -1.6403
19590TIP3    H280186   3.552   2.204  16.283  0.3587 -0.0272 -0.6933
19591TIP3   OH280187   6.425   3.770   3.023 -0.4657  0.0642  0.6551
19591TIP3    H180188   6.457   3.731   3.105 -0.4076 -1.5655 -0.0958
19591TIP3    H280189   6.333   3.790   3.039 -1.1084 -2.4078  0.4486
19592TIP3   OH280190   0.970   6.233  16.829 -0.0655 -0.1876 -0.2010
19592TIP3    H180191   1.044   6.176  16.808  1.6726  1.8115  0.0568
19592TIP3    H280192   0.895   6.191  16.788  0.9029 -3.1085  0.8031
19593TIP3   OH280193   4.418   5.695  17.102 -0.1382  0.9983  0.6889
19593TIP3    H180194   4.473   5.735  17.035 -0.4433 -0.0635 -0.2337
19593TIP3    H280195   4.331   5.734  17.088  0.1024  1.7974  1.3755
19594TIP3   OH280196   1.942   4.886   0.447  0.8765 -0.1766 -0.2576
19594TIP3    H180197   2.029   4.867   0.481  1.7478  1.9229 -1.0933
19594TIP3    H280198   1.930   4.980   0.464 -1.1829 -0.3888 -0.2757
19595TIP3   OH280199   4.051   2.663   1.288  0.0208 -0.2697 -0.3126
19595TIP3    H180200   3.995   2.586   1.299  1.3889 -1.2666 -0.0757
19595TIP3    H280201   4.063   2.670   1.193 -0.1553 -0.3250 -0.3393
19596TIP3   OH280202   4.712   4.230   4.197  0.0633 -0.2015 -0.3010
19596TIP3    H180203   4.685   4.321   4.180 -1.8705 -0.7821 -0.6591
19596TIP3    H280204   4.743   4.198   4.113  2.1905  0.5355  0.1566
19597TIP3   OH280205   1.490   2.704   1.276 -0.3314  0.0318  0.5306
19597TIP3    H180206   1.498   2.759   1.355  0.0992  1.1436 -0.2652
19597TIP3    H280207   1.545   2.748   1.211 -1.7424 -0.1209 -0.8086
19598TIP3   OH280208   2.723   6.044  16.069 -0.6567 -0.5094 -0.0859
19598TIP3    H180209   2.809   6.081  16.052 -1.5321  1.1116 -1.2701
19598TIP3    H280210   2.740   5.954  16.094  1.3493 -0.3717 -0.7898
19599TIP3   OH280211   2.459   0.168  13.599 -0.3010  0.0967 -0.6655
19599TIP3    H180212   2.392   0.165  13.530  0.4176 -0.0610 -1.3745
19599TIP3    H280213   2.421   0.223  13.667 -0.7094  0.9208 -1.5434
19600TIP3   OH280214   2.078   4.173   0.018 -0.0002 -0.4752 -0.1775
19600TIP3    H180215   2.066   4.100  -0.043 -0.2503  0.4653 -1.2933
19600TIP3    H280216   2.148   4.144   0.076 -0.6560 -1.9329 -0.0693
19601TIP3   OH280217   0.956   6.539  10.531  0.6608 -0.3043 -0.2177
19601TIP3    H180218   0.863   6.543  10.510  0.6615  0.0909 -0.1544
19601TIP3    H280219   0.978   6.446  10.523 -0.0497 -0.6244  1.1437
19602TIP3   OH280220   6.718   0.093  12.362 -0.8079  0.1775 -0.2416
19602TIP3    H180221   6.657   0.113  12.433 -0.6601  0.7888 -0.2745
19602TIP3    H280222   6.663   0.061  12.291 -0.9320 -0.6812  0.2305
19603TIP3   OH280223   5.460   3.974   1.573  0.0483 -0.2775 -0.0293
19603TIP3    H180224   5.423   4.054   1.610  0.5827  0.1505 -0.4008
19603TIP3    H280225   5.396   3.906   1.594 -0.4496  0.2586  0.2210
19604TIP3   OH280226   3.216   0.281  13.999  0.1217  0.4003 -0.3045
19604TIP3    H180227   3.259   0.272  13.914 -1.2485 -1.1927 -0.8740
19604TIP3    H280228   3.240   0.202  14.047 -0.8080  0.2838 -0.0095
19605TIP3   OH280229   1.469   6.072  11.387  0.0433  0.0223  0.6458
19605TIP3    H180230   1.389   6.032  11.353  0.5045 -0.5006  0.1685
19605TIP3    H280231   1.527   5.999  11.404  0.7807  0.4662  0.0744
19606TIP3   OH280232   1.052   5.240  17.085 -0.3537 -0.1588 -0.5495
19606TIP3    H180233   1.028   5.332  17.080 -1.8272 -0.3893  1.0994
19606TIP3    H280234   1.069   5.225  17.178 -2.9580 -2.1211 -0.2577
19607TIP3   OH280235   3.056   4.946   4.571 -0.5797 -0.4600 -0.2691
19607TIP3    H180236   3.041   5.037   4.545  0.1123 -0.2647 -0.0137
19607TIP3    H280237   3.018   4.894   4.501 -0.0729  0.0396 -0.9232
19608TIP3   OH280238   5.629   4.292  15.177  0.7247 -0.1598  0.0093
19608TIP3    H180239   5.615   4.203  15.144  1.3616 -0.1363 -0.3425
19608TIP3    H280240   5.705   4.284  15.234 -1.0891 -0.4436  2.5150
19609TIP3   OH280241   0.884   5.975   4.772 -0.4390 -0.4577 -0.1801
19609TIP3    H180242   0.980   5.986   4.772 -0.7140  3.4337 -0.9772
19609TIP3    H280243   0.863   5.949   4.862  1.3026 -0.6339  0.2150
19610TIP3   OH280244   5.046   4.505   2.987  0.4828  0.0087  0.5319
19610TIP3    H180245   5.024   4.555   2.909 -0.2934  1.5814  1.7269
19610TIP3    H280246   5.091   4.427   2.952  0.3315  0.7377 -1.4546
19611TIP3   OH280247   0.815   3.188  16.274 -0.0810 -0.0689  0.0932
19611TIP3    H180248   0.768   3.271  16.265 -2.3672 -1.3553 -0.4424
19611TIP3    H280249   0.749   3.126  16.304  1.1316 -2.0973 -1.2143
19612TIP3   OH280250   1.256   1.094  13.613 -0.1721  0.2335 -0.0203
19612TIP3    H180251   1.284   1.179  13.646 -0.7149 -0.4493  2.4085
19612TIP3    H280252   1.191   1.114  13.545 -1.4662  1.8067  1.5854
19613TIP3   OH280253   2.114   3.948  14.536  0.2842 -0.0292  0.4473
19613TIP3    H180254   2.186   3.893  14.568 -0.6108 -0.7317  1.3220
19613TIP3    H280255   2.130   4.034  14.574  1.3879  0.1939 -0.4674
19614TIP3   OH280256   5.521   0.497  12.714 -0.5557 -0.4360 -0.3388
19614TIP3    H180257   5.521   0.403  12.694 -0.1436 -0.3255 -0.8563
19614TIP3    H280258   5.576   0.536  12.647  2.9037 -0.3341  2.2898
19615TIP3   OH280259   5.563   4.117   5.277  1.1315 -0.1012  0.1114
19615TIP3    H180260   5.575   4.183   5.345 -0.8875  0.3358  0.0860
19615TIP3    H280261   5.519   4.044   5.320 -1.4851  0.7531 -0.9520
19616TIP3   OH280262   5.630   6.265  15.967 -0.0171  0.2008 -0.2780
19616TIP3    H180263   5.582   6.311  15.899 -0.2273  0.6419  0.1637
19616TIP3    H280264   5.646   6.330  16.035  1.6876  0.2149 -0.6384
19617TIP3   OH280265   5.042   2.166  10.499 -0.2073  0.1158  0.1213
19617TIP3    H180266   4.979   2.216  10.449  0.2320 -0.5406 -1.1234
19617TIP3    H280267   5.092   2.117  10.434  0.8827 -0.1908  1.1439
19618TIP3   OH280268   6.750   0.905  15.589  0.2518  0.1592  0.5041
19618TIP3    H180269   6.779   0.819  15.557  0.7760 -0.4300  2.4572
19618TIP3    H280270   6.731   0.954  15.509  1.0289 -1.3867 -0.7010
19619TIP3   OH280271   3.898   3.219  16.970  0.0153 -0.4489 -0.0349
19619TIP3    H180272   3.969   3.207  17.033 -0.3467 -1.3198  0.2250
19619TIP3    H280273   3.818   3.209  17.022 -0.3645  2.1534  0.0132
19620TIP3   OH280274   2.956   0.110  11.891  0.0634 -0.3087  0.1325
19620TIP3    H180275   2.882   0.129  11.949 -0.4924  0.4713 -0.7923
19620TIP3    H280276   2.915   0.067  11.815  0.8126 -1.5952  0.4285
19621TIP3   OH280277   1.268   1.248   1.449  0.2056 -0.1194  0.0792
19621TIP3    H180278   1.197   1.306   1.424  0.1600 -0.6114 -1.0034
19621TIP3    H280279   1.240   1.161   1.420  0.7382 -0.5086  0.6922
19622TIP3   OH280280   5.614   4.381  15.641  0.1663  0.0862 -0.4587
19622TIP3    H180281   5.574   4.465  15.660 -0.0667 -0.1465  0.1053
19622TIP3    H280282   5.577   4.321  15.706 -1.1884 -0.9047 -2.0427
19623TIP3   OH280283   6.534   1.215   5.009  0.0083  0.4623  0.7744
19623TIP3    H180284   6.543   1.143   4.947  0.6089  3.0541 -2.4069
19623TIP3    H280285   6.624   1.240   5.030 -0.0450  2.3236 -0.8935
19624TIP3   OH280286   5.872   5.061  12.274  0.4001 -0.5665 -0.7860
19624TIP3    H180287   5.810   5.043  12.345  1.8035 -1.4054  0.2897
19624TIP3    H280288   5.841   5.142  12.234  0.2542  0.6387  1.6123
19625TIP3   OH280289   0.737   3.440  11.701  0.1041 -0.1179 -0.4779
19625TIP3    H180290   0.732   3.369  11.765 -1.2868 -0.6199 -1.0994
19625TIP3    H280291   0.822   3.481  11.717  1.0458 -2.0567 -0.2520
19626TIP3   OH280292   3.714   0.376   6.546  0.9007 -0.0786  0.1031
19626TIP3    H180293   3.780   0.317   6.511 -0.5826 -0.3960 -2.4058
19626TIP3    H280294   3.630   0.334   6.527 -0.1292  1.5942  0.6646
19627TIP3   OH280295   3.053   0.210   5.361 -0.3034 -0.4891  0.3270
19627TIP3    H180296   3.028   0.177   5.274 -0.1965 -1.2387  0.5716
19627TIP3    H280297   3.117   0.279   5.343 -1.7310  0.7249 -0.2617
19628TIP3   OH280298   3.561   0.800  16.951 -0.0827 -0.3926  0.2701
19628TIP3    H180299   3.544   0.893  16.943  1.8871 -0.1456 -4.8378
19628TIP3    H280300   3.640   0.794  17.004 -0.4769  0.8011  1.0044
19629TIP3   OH280301   0.932   5.327   5.265  0.0579 -0.0587  0.5345
19629TIP3    H180302   0.883   5.355   5.188  0.6378 -1.1089 -0.2458
19629TIP3    H280303   0.871   5.271   5.313 -0.0670  0.0062  0.4519
19630TIP3   OH280304   0.396   0.293   1.740 -0.5906 -0.5699 -0.3514
19630TIP3    H180305   0.418   0.386   1.745 -0.3408 -0.6942  1.9444
19630TIP3    H280306   0.300   0.292   1.739 -0.6033 -0.2894  0.1436
19631TIP3   OH280307   2.975   1.321  16.048 -0.0384 -0.3198 -0.1021
19631TIP3    H180308   2.996   1.414  16.046  0.8403 -0.4243  1.9598
19631TIP3    H280309   2.949   1.304  16.138 -2.6289 -1.6109 -1.0055
19632TIP3   OH280310   1.333   6.178   2.492  0.0362 -0.2981  0.2840
19632TIP3    H180311   1.362   6.268   2.477  0.1205 -0.4806 -0.6854
19632TIP3    H280312   1.395   6.124   2.443 -1.1108 -0.7636 -0.7093
19633TIP3   OH280313   4.366   0.909  12.823  0.1586  0.3358  0.0802
19633TIP3    H180314   4.351   0.816  12.843 -0.3702  0.2503 -0.6913
19633TIP3    H280315   4.449   0.909  12.775  1.4448  0.5437  2.1873
19634TIP3   OH280316   1.713   1.359   2.281  0.0949 -0.1486 -0.2861
19634TIP3    H180317   1.721   1.354   2.186 -0.8536 -1.0060 -0.3436
19634TIP3    H280318   1.742   1.274   2.313 -1.2263 -0.5041  0.0400
19635TIP3   OH280319   6.033   6.093  12.968 -0.6621  0.3504  0.0390
19635TIP3    H180320   6.084   6.015  12.988  0.5623  1.5086  1.6551
19635TIP3    H280321   6.040   6.103  12.873  0.0461 -0.8972 -0.0607
19636TIP3   OH280322   2.027   6.307   2.442 -0.1733 -0.0893  0.5616
19636TIP3    H180323   2.076   6.264   2.512  0.0918  1.4706  1.3698
19636TIP3    H280324   1.940   6.268   2.447  0.1505 -0.7784  1.0315
19637TIP3   OH280325   6.685   2.345  15.289 -0.0886 -0.1211 -0.0690
19637TIP3    H180326   6.759   2.402  15.313  0.3576 -1.1474  1.1220
19637TIP3    H280327   6.713   2.303  15.207  0.7547 -0.6421  0.4660
19638TIP3   OH280328   4.994   2.695   4.337  0.6437  0.0618 -0.4857
19638TIP3    H180329   5.028   2.605   4.333  1.9592  0.4055  1.3538
19638TIP3    H280330   5.072   2.750   4.345 -0.1891  1.2823 -0.3841
19639TIP3   OH280331   2.627   3.460  12.162 -0.1458 -0.2086 -0.4325
19639TIP3    H180332   2.586   3.544  12.183  1.2589  0.7089 -1.2211
19639TIP3    H280333   2.555   3.397  12.169 -1.1560  0.9800  0.5558
19640TIP3   OH280334   5.086   6.047   2.218 -0.1952 -0.2692 -0.1792
19640TIP3    H180335   5.059   5.992   2.145 -1.6212  0.0552  0.0649
19640TIP3    H280336   5.047   6.132   2.200  0.9963  0.3489  0.0384
19641TIP3   OH280337   3.157   4.326  17.014 -0.2556  0.3762 -0.7276
19641TIP3    H180338   3.233   4.311  16.958  0.1464 -2.1654  0.3631
19641TIP3    H280339   3.131   4.239  17.044 -2.3613  1.3549  0.5792
19642TIP3   OH280340   5.550   4.120  11.890 -0.3390  0.4059  0.0380
19642TIP3    H180341   5.581   4.155  11.975 -3.3081  0.1915  1.3222
19642TIP3    H280342   5.479   4.179  11.865 -0.6782 -0.5960 -1.4415
19643TIP3   OH280343   0.943   0.269  12.961 -0.0370 -0.0243 -0.0003
19643TIP3    H180344   0.911   0.181  12.941 -1.1768  0.5331 -0.7670
19643TIP3    H280345   1.026   0.255  13.005 -0.8255 -1.5350  1.0970
19644TIP3   OH280346   3.519   2.931   4.864  0.1363 -0.1164  0.1617
19644TIP3    H180347   3.466   2.992   4.914  0.7279  1.5477 -1.1528
19644TIP3    H280348   3.554   2.983   4.792  0.3008 -2.1154 -1.2882
19645TIP3   OH280349   1.178   1.509  12.916 -0.3425  0.0707  0.2129
19645TIP3    H180350   1.185   1.563  12.996  0.0347  1.7367 -0.8910
19645TIP3    H280351   1.104   1.451  12.933  0.0888 -0.0367  1.9984
19646TIP3   OH280352   0.786   5.133  12.261 -0.6885 -0.0074 -0.2103
19646TIP3    H180353   0.807   5.182  12.181 -0.2984  0.5520  0.2227
19646TIP3    H280354   0.871   5.110  12.298 -0.8708 -1.0816 -0.4374
19647TIP3   OH280355   2.304   1.558   6.709  0.7381 -0.1121  0.3063
19647TIP3    H180356   2.288   1.554   6.614  1.4562 -0.7172  0.2037
19647TIP3    H280357   2.269   1.644   6.735 -1.2859 -0.7402 -0.1426
19648TIP3   OH280358   4.782   5.569  13.874 -0.2625  0.4393 -1.2654
19648TIP3    H180359   4.704   5.558  13.929  1.1130  1.2177  1.0082
19648TIP3    H280360   4.755   5.542  13.787 -2.4220 -1.5065 -0.0832
19649TIP3   OH280361   5.638   4.134  15.799  0.3406  0.6208  0.1751
19649TIP3    H180362   5.580   4.061  15.778 -0.5275  1.1495  0.6598
19649TIP3    H280363   5.692   4.146  15.721 -0.6825  0.5576 -0.5526
19650TIP3   OH280364   6.072   2.268  14.814  1.1655  0.3222 -0.0792
19650TIP3    H180365   6.153   2.219  14.807  0.5153 -0.9585  0.9616
19650TIP3    H280366   6.018   2.235  14.742  0.4648 -1.0885  1.0332
19651TIP3   OH280367   1.957   5.053  12.402  0.1994 -0.4108  0.5509
19651TIP3    H180368   1.908   5.117  12.350  0.1116 -1.5724 -0.8438
19651TIP3    H280369   1.982   4.985  12.339  0.8705 -1.4211  1.8670
19652TIP3   OH280370   1.484   1.760   2.482  0.0448 -0.4976 -0.1214
19652TIP3    H180371   1.499   1.815   2.558  0.0509 -0.6328 -0.0234
19652TIP3    H280372   1.545   1.686   2.494  0.0056 -0.5475 -0.2278
19653TIP3   OH280373   4.068   1.997  11.916  0.1454  0.5647 -0.1096
19653TIP3    H180374   4.098   2.088  11.907 -0.6291  0.9198  0.7738
19653TIP3    H280375   3.978   1.999  11.882  0.3214 -0.0101 -0.6260
19654TIP3   OH280376   1.265   5.426   6.545  0.2172 -0.0956 -0.1642
19654TIP3    H180377   1.190   5.415   6.486 -1.0566 -1.0635  1.5578
19654TIP3    H280378   1.266   5.520   6.565  0.8930  0.3202 -1.9375
19655TIP3   OH280379   1.458   4.969   2.145  0.5031 -0.4537 -0.0171
19655TIP3    H180380   1.378   4.953   2.195  0.5705 -1.4827 -0.2190
19655TIP3    H280381   1.462   4.897   2.083  0.8246  0.3788 -0.9998
19656TIP3   OH280382   5.565   6.366   2.942  0.2998 -0.1263 -0.2693
19656TIP3    H180383   5.476   6.394   2.919  1.0761  1.6796 -1.2811
19656TIP3    H280384   5.612   6.448   2.957  1.3396 -1.0853  2.2105
19657TIP3   OH280385   0.578   5.694   3.799 -0.0369 -0.1252  0.4423
19657TIP3    H180386   0.586   5.735   3.885  1.0884  0.3360  0.1348
19657TIP3    H280387   0.485   5.696   3.780 -0.1875  0.6633  1.2209
19658TIP3   OH280388   5.850   3.455  10.851  0.1755  0.0048 -0.4726
19658TIP3    H180389   5.817   3.365  10.853  0.9272 -0.2821 -0.9468
19658TIP3    H280390   5.941   3.448  10.880 -0.5772  1.0095  2.5718
19659TIP3   OH280391   3.974   4.992  14.711 -0.1205  0.3846  0.1418
19659TIP3    H180392   3.967   4.959  14.800  1.5302  0.3240  0.2802
19659TIP3    H280393   3.982   5.087  14.721 -0.5537  0.4393  0.0088
19660TIP3   OH280394   3.653   3.589  16.436  0.3423  0.8788  0.2326
19660TIP3    H180395   3.711   3.513  16.429 -1.1433 -0.4155  1.2305
19660TIP3    H280396   3.710   3.660  16.465  1.1917 -0.7939  3.0459
19661TIP3   OH280397   3.764   1.280  15.399  0.0952 -0.1057 -0.3235
19661TIP3    H180398   3.807   1.360  15.369 -2.6682  1.2360 -1.0662
19661TIP3    H280399   3.705   1.256  15.328  1.5189 -3.4771 -0.5559
19662TIP3   OH280400   0.193   5.160  10.906  0.3166 -0.0151  0.0089
19662TIP3    H180401   0.155   5.247  10.906  0.8186  0.2037 -0.2430
19662TIP3    H280402   0.243   5.155  10.825  0.5187 -0.4364  0.1572
19663TIP3   OH280403   1.219   2.764  11.378  0.0631  0.3984 -0.1641
19663TIP3    H180404   1.298   2.727  11.417  0.4325  1.8354  0.5528
19663TIP3    H280405   1.222   2.857  11.404 -0.6560  0.9935 -2.0785
19664TIP3   OH280406   0.071   2.137  12.493 -0.0541 -0.1622  0.3816
19664TIP3    H180407   0.102   2.129  12.403  1.3737 -1.0158  0.9138
19664TIP3    H280408   0.061   2.231  12.507 -3.2064 -0.0998 -1.5514
19665TIP3   OH280409   2.799   5.557  12.361  0.1396 -0.0533  0.4166
19665TIP3    H180410   2.724   5.604  12.324 -0.0326  0.7916  1.7738
19665TIP3    H280411   2.833   5.615  12.428  1.3553 -0.9075  0.5676
19666TIP3   OH280412   5.291   0.895   5.611 -0.1445 -0.0636 -0.1953
19666TIP3    H180413   5.335   0.818   5.575  1.2066  0.6709 -0.1749
19666TIP3    H280414   5.355   0.935   5.669 -0.9024  0.9586 -0.0268
19667TIP3   OH280415   3.891   1.049  12.717 -0.6458  0.3102  0.7388
19667TIP3    H180416   3.974   1.012  12.688 -1.1357 -0.4813  0.3245
19667TIP3    H280417   3.845   0.976  12.759 -2.0186  0.1662 -0.9173
19668TIP3   OH280418   1.569   1.934   5.665  0.0870  0.6712  0.2501
19668TIP3    H180419   1.557   1.839   5.668 -2.4211  0.8793 -0.6895
19668TIP3    H280420   1.645   1.947   5.608  0.5559 -0.7450  0.5067
19669TIP3   OH280421   2.787   6.774   4.537 -0.3129 -0.7790  0.3316
19669TIP3    H180422   2.694   6.761   4.555 -0.9309 -0.0867 -2.0111
19669TIP3    H280423   2.792   6.861   4.497  1.1752 -1.2465 -0.5792
19670TIP3   OH280424   1.529   0.965   2.673 -0.4860 -0.1569  0.2284
19670TIP3    H180425   1.570   0.896   2.621 -1.0560  0.7317 -1.4526
19670TIP3    H280426   1.553   0.943   2.764  1.4293 -1.1642 -0.4592
19671TIP3   OH280427   0.423   0.420   4.751  0.8729 -0.3440  0.3247
19671TIP3    H180428   0.367   0.451   4.821 -1.4181 -0.0423 -1.5105
19671TIP3    H280429   0.511   0.417   4.789  0.2607  2.7123  2.2792
19672TIP3   OH280430   6.463   1.062   4.543  0.1631 -0.0014  0.3574
19672TIP3    H180431   6.556   1.042   4.537  0.2138 -0.0980  1.3000
19672TIP3    H280432   6.457   1.131   4.609 -0.4620 -0.2558  0.5795
19673TIP3   OH280433   2.637   5.531   3.630  0.6429 -0.3001  0.0737
19673TIP3    H180434   2.666   5.565   3.715  2.5303  0.1930 -0.7049
19673TIP3    H280435   2.647   5.436   3.638 -0.6302 -0.3891  0.8707
19674TIP3   OH280436   1.907   3.029   2.355 -0.3336 -0.0250 -0.2434
19674TIP3    H180437   1.914   3.023   2.260  0.8189 -1.7908 -0.0997
19674TIP3    H280438   1.936   2.943   2.386 -1.4775  0.2285  1.6777
19675TIP3   OH280439   1.720   1.911  13.440 -0.0223  0.1443  0.1531
19675TIP3    H180440   1.651   1.977  13.450 -0.2928 -0.3278  1.7481
19675TIP3    H280441   1.677   1.838  13.397  0.6511  1.4830 -3.0913
19676TIP3   OH280442   2.301   0.546  14.483  0.2047 -0.2047 -0.3297
19676TIP3    H180443   2.274   0.620  14.429  1.5190  0.6459  0.1375
19676TIP3    H280444   2.397   0.546  14.479  0.2488 -1.4723  0.2167
19677TIP3   OH280445   1.938   1.728   4.013 -0.0955 -0.1421 -0.1872
19677TIP3    H180446   1.864   1.745   3.955  0.0520  0.7933 -0.1142
19677TIP3    H280447   2.001   1.796   3.992  1.5619 -1.9631 -1.5370
19678TIP3   OH280448   2.757   1.204  13.087  0.0901 -0.1456  0.2011
19678TIP3    H180449   2.739   1.230  13.178 -0.8476 -1.3533  0.4028
19678TIP3    H280450   2.852   1.204  13.080  0.2352 -1.3462  1.6241
19679TIP3   OH280451   0.308   1.400  13.940  0.4939  0.0366  0.2585
19679TIP3    H180452   0.251   1.462  13.986  1.4537  0.5366  0.7930
19679TIP3    H280453   0.291   1.316  13.983 -0.4943 -0.0136 -0.1893
19680TIP3   OH280454   0.721   6.746  11.400 -0.1017 -0.5341  0.0052
19680TIP3    H180455   0.747   6.731  11.309 -0.1228  0.8091 -0.2482
19680TIP3    H280456   0.643   6.692  11.412 -0.7649  0.1210 -1.1345
19681TIP3   OH280457   5.021   1.451  17.015 -0.2661  0.0806  0.3956
19681TIP3    H180458   4.972   1.486  17.090 -1.9329 -0.5105 -0.3748
19681TIP3    H280459   5.038   1.527  16.960  0.0263  0.3482  0.8461
19682TIP3   OH280460   5.927   1.582  11.752  0.3425  0.5963 -0.8404
19682TIP3    H180461   5.921   1.663  11.700  1.3815  0.6741 -0.8545
19682TIP3    H280462   6.008   1.541  11.723 -0.5750 -0.8817 -1.4046
19683TIP3   OH280463   0.886   4.319  12.739  0.0991 -0.4789  0.2705
19683TIP3    H180464   0.901   4.296  12.647 -0.0551  2.7742 -0.6683
19683TIP3    H280465   0.811   4.377  12.738  0.4514  0.1145  2.4041
19684TIP3   OH280466   3.534   4.208   1.595  0.4293  0.0852 -0.1149
19684TIP3    H180467   3.490   4.292   1.607 -1.5629 -0.9574  0.3625
19684TIP3    H280468   3.566   4.185   1.683 -1.0492 -0.6812  0.2476
19685TIP3   OH280469   6.423   5.981  14.149 -0.2428  0.3184  0.3518
19685TIP3    H180470   6.440   5.887  14.149  1.2974  0.5177  2.4201
19685TIP3    H280471   6.432   6.007  14.058  1.0341 -1.2649 -0.0300
19686TIP3   OH280472   5.833   0.322  15.872 -0.2715 -0.2816 -0.5963
19686TIP3    H180473   5.842   0.410  15.908  0.1166 -0.4558 -0.2587
19686TIP3    H280474   5.754   0.286  15.913 -0.7323  0.0963 -1.1365
19687TIP3   OH280475   2.948   0.731  13.815  0.3216  0.4832  0.1696
19687TIP3    H180476   2.977   0.789  13.884  0.6701 -0.6430  1.0001
19687TIP3    H280477   3.027   0.681  13.791 -0.1953 -0.3741  0.2154
19688TIP3   OH280478   0.052   1.395  11.639 -0.5191 -0.7081 -0.3660
19688TIP3    H180479   0.003   1.344  11.574 -1.5025 -0.6451  0.2956
19688TIP3    H280480   0.125   1.339  11.663  0.5600 -0.2451 -2.3794
19689TIP3   OH280481   0.972   0.562  13.315  0.1760 -0.1614 -0.0547
19689TIP3    H180482   1.047   0.619  13.298  1.1460 -0.6315  2.2495
19689TIP3    H280483   0.912   0.616  13.366  0.1099 -0.5439  0.2774
19690TIP3   OH280484   5.503   4.637  15.728 -0.6211  0.8418 -0.2691
19690TIP3    H180485   5.433   4.624  15.663 -2.2099  0.7046  1.3853
19690TIP3    H280486   5.511   4.732  15.735  0.4005  0.8668 -1.4932
19691TIP3   OH280487   1.694   2.975   1.781 -0.2098 -0.0250 -0.2245
19691TIP3    H180488   1.706   2.999   1.690  1.0844 -0.1281 -0.0966
19691TIP3    H280489   1.772   2.924   1.804 -1.5056 -1.8783  0.3349
19692TIP3   OH280490   0.797   2.821  14.625  0.0277 -0.1560 -0.2376
19692TIP3    H180491   0.777   2.728  14.626  0.1664 -0.1855 -0.2667
19692TIP3    H280492   0.820   2.842  14.715 -0.6077 -0.0204 -0.0979
19693TIP3   OH280493   0.217   3.876   5.948 -0.5129  0.8636 -0.2726
19693TIP3    H180494   0.136   3.911   5.986 -0.0314 -0.9221  2.7497
19693TIP3    H280495   0.285   3.903   6.010  0.5343 -1.2485 -0.4218
19694TIP3   OH280496   4.891   2.278  13.676  0.0259 -0.6664 -0.6902
19694TIP3    H180497   4.874   2.192  13.638 -1.1127 -1.0439  0.5778
19694TIP3    H280498   4.958   2.317  13.620 -0.0700 -2.0256 -1.7933
19695TIP3   OH280499   0.051   2.775  16.132 -0.7670  0.5175 -0.2365
19695TIP3    H180500  -0.002   2.696  16.129  0.0971 -0.0794 -0.2537
19695TIP3    H280501   0.097   2.776  16.048  0.7845 -0.0863  0.5668
19696TIP3   OH280502   0.891   4.925  15.256  0.0997  0.5291 -0.2135
19696TIP3    H180503   0.985   4.921  15.238 -0.2867 -0.1850 -2.3875
19696TIP3    H280504   0.883   4.905  15.349  2.0027 -0.9933 -0.3257
19697TIP3   OH280505   4.541   6.165   1.141  0.0897 -0.0609  0.1737
19697TIP3    H180506   4.552   6.166   1.236  0.6476 -2.0068  0.1809
19697TIP3    H280507   4.539   6.072   1.118 -0.8127  0.3491 -1.6484
19698TIP3   OH280508   4.606   1.502   0.720  0.7870  0.0000  0.5097
19698TIP3    H180509   4.655   1.584   0.733  0.6968  0.8892 -3.3523
19698TIP3    H280510   4.658   1.454   0.655 -1.4268 -0.8975 -0.6904
19699TIP3   OH280511   4.939   3.003  15.243  0.1066  0.4370  0.4862
19699TIP3    H180512   4.916   2.970  15.331  0.2397 -0.5308  0.1663
19699TIP3    H280513   4.935   2.926  15.187 -1.9195  1.3716 -0.7605
19700TIP3   OH280514   4.550   2.270   1.980 -0.1903  0.1185 -0.7200
19700TIP3    H180515   4.538   2.182   2.015 -1.9912  0.7473  0.4090
19700TIP3    H280516   4.512   2.266   1.892  1.3764 -0.6395 -1.4033
19701TIP3   OH280517   2.146   0.477   3.375  0.2434 -0.2650 -0.2356
19701TIP3    H180518   2.155   0.511   3.286  0.0136  2.5607  0.7227
19701TIP3    H280519   2.230   0.496   3.416 -0.8174  1.8569  1.1337
19702TIP3   OH280520   0.802   2.024   3.132  0.1867  0.1599  0.4257
19702TIP3    H180521   0.880   2.018   3.077  0.2277  0.9454  0.3751
19702TIP3    H280522   0.807   2.112   3.170  0.1038 -0.3235  1.6056
19703TIP3   OH280523   2.352   4.257   3.284 -0.0328  0.1595  0.3067
19703TIP3    H180524   2.384   4.327   3.227  1.0046 -0.7363 -0.2649
19703TIP3    H280525   2.259   4.251   3.265  0.2481  0.0347 -1.1442
19704TIP3   OH280526   5.196   1.490   5.758  0.3391 -0.1263 -0.3805
19704TIP3    H180527   5.199   1.568   5.814 -0.0640 -0.1718 -0.2916
19704TIP3    H280528   5.200   1.416   5.819 -0.3513 -0.1778 -0.3888
19705TIP3   OH280529   5.956   2.924  16.083 -0.7970  0.2849 -0.4841
19705TIP3    H180530   5.939   2.849  16.140 -0.0193  1.1886  0.9958
19705TIP3    H280531   5.922   2.898  15.997 -1.3792 -1.3808  0.2255
19706TIP3   OH280532   1.780   4.904  11.995 -1.0180 -0.1081  0.5791
19706TIP3    H180533   1.730   4.886  12.075 -0.1392 -1.2374  0.9001
19706TIP3    H280534   1.821   4.820  11.973  0.5858  0.7411  0.2225
19707TIP3   OH280535   2.348   5.052  15.345  0.2239 -0.1052  0.3201
19707TIP3    H180536   2.429   5.100  15.327 -0.4551  1.0356  0.2478
19707TIP3    H280537   2.377   4.962  15.359  1.5643  0.3877  0.8669
19708TIP3   OH280538   1.514   4.978  13.740  0.0279 -0.6311  0.0189
19708TIP3    H180539   1.527   4.914  13.670  0.3611 -2.2976  1.5234
19708TIP3    H280540   1.601   5.013  13.758 -0.0724 -0.1320 -0.4486
19709TIP3   OH280541   1.818   5.558   0.467 -0.4509  0.0948  0.2717
19709TIP3    H180542   1.911   5.553   0.443 -0.6189  2.0257 -1.0343
19709TIP3    H280543   1.772   5.524   0.390 -0.8383  0.1776  0.4660
19710TIP3   OH280544   4.013   3.095   4.021  0.0163  0.5283 -0.2112
19710TIP3    H180545   4.091   3.042   4.010  0.0845  0.3812  0.9008
19710TIP3    H280546   3.972   3.095   3.934  0.3867 -0.7350 -0.4029
19711TIP3   OH280547   1.999   2.783   4.802 -0.4908 -0.2334  0.0609
19711TIP3    H180548   1.945   2.844   4.854  0.9337  0.8607  0.3350
19711TIP3    H280549   2.033   2.721   4.867  1.1514  1.0322  0.4902
19712TIP3   OH280550   5.686   4.795  12.940  0.0943  0.4375  0.1294
19712TIP3    H180551   5.622   4.783  12.870 -2.3120  1.2475  2.0836
19712TIP3    H280552   5.746   4.862  12.906 -0.5935  0.3051 -1.4201
19713TIP3   OH280553   0.081   3.849   5.519  0.2553  0.5759 -0.2471
19713TIP3    H180554   0.075   3.766   5.566  0.0214  0.5900 -0.2540
19713TIP3    H280555   0.090   3.915   5.588  0.2216  0.5671 -0.2346
19714TIP3   OH280556   3.744   4.711   6.227  0.0755 -0.1596  0.5374
19714TIP3    H180557   3.657   4.678   6.248  0.3508 -3.5761 -2.6544
19714TIP3    H280558   3.801   4.674   6.294 -0.6478  0.9899  1.8545
19715TIP3   OH280559   3.734   2.278   3.799 -0.4197  0.8178 -0.3677
19715TIP3    H180560   3.717   2.239   3.884 -3.1077 -0.2972 -1.3003
19715TIP3    H280561   3.766   2.206   3.745  2.2633  1.7223 -0.1614
19716TIP3   OH280562   3.580   6.119  16.920  0.1996 -0.1740  0.6558
19716TIP3    H180563   3.515   6.082  16.860 -0.2369  2.4901 -0.6966
19716TIP3    H280564   3.662   6.115  16.871 -0.2262  2.3579 -0.4229
19717TIP3   OH280565   5.867   5.717  13.982  0.2155  0.3804  1.0655
19717TIP3    H180566   5.791   5.773  13.964 -1.1788 -1.3545  1.3322
19717TIP3    H280567   5.831   5.638  14.020  2.1540 -0.6565  0.8938
19718TIP3   OH280568   5.817   6.748  11.855  0.0683 -0.3381  0.7548
19718TIP3    H180569   5.864   6.831  11.847 -0.7939  0.0063 -1.7047
19718TIP3    H280570   5.833   6.719  11.945  1.7638  1.6449  1.1568
19719TIP3   OH280571   3.279   3.540  11.754 -0.5291 -0.1754 -0.3403
19719TIP3    H180572   3.241   3.549  11.667 -1.6302 -1.4323 -0.0153
19719TIP3    H280573   3.269   3.448  11.776 -1.2083  0.2858  1.5243
19720TIP3   OH280574   4.829   2.409   2.029 -0.3313  0.3528 -0.0085
19720TIP3    H180575   4.744   2.370   2.049  0.1121 -0.8604 -0.4411
19720TIP3    H280576   4.890   2.367   2.090  0.1844  0.2494 -0.5855
19721TIP3   OH280577   0.818   1.806   2.056 -0.5775 -0.4036 -0.3061
19721TIP3    H180578   0.884   1.805   2.126 -0.4828 -1.5597 -0.3887
19721TIP3    H280579   0.750   1.866   2.088 -0.2032 -0.3746  0.4668
19722TIP3   OH280580   5.158   5.172   4.833  0.1113  0.1979  0.0055
19722TIP3    H180581   5.236   5.139   4.877  0.0179  0.8297  0.6613
19722TIP3    H280582   5.188   5.251   4.788  0.3369 -0.7469 -1.5552
19723TIP3   OH280583   2.672   6.558  16.782 -0.0202 -0.2611 -0.0588
19723TIP3    H180584   2.720   6.639  16.768  0.7199 -0.3238  1.8152
19723TIP3    H280585   2.582   6.587  16.800 -0.9667 -0.1644 -3.9708
19724TIP3   OH280586   0.017   6.164   0.185  0.3212  0.0800 -0.1342
19724TIP3    H180587  -0.077   6.170   0.172  0.3161  0.3104 -0.0060
19724TIP3    H280588   0.055   6.184   0.099  0.2227 -1.8242 -0.6503
19725TIP3   OH280589   4.327   5.714  16.466 -0.0027 -0.1386 -0.2211
19725TIP3    H180590   4.419   5.720  16.492 -0.3426  0.8374  0.8126
19725TIP3    H280591   4.295   5.804  16.469 -1.0009 -0.4746 -0.5379
19726TIP3   OH280592   0.880   1.824  13.987 -0.7319 -0.1523 -0.3384
19726TIP3    H180593   0.847   1.847  13.901 -1.4976 -1.2084 -0.3530
19726TIP3    H280594   0.819   1.864  14.049  0.0479  0.9519 -0.2527
19727TIP3   OH280595   6.158   3.007   3.017  0.3831  0.3832 -0.3280
19727TIP3    H180596   6.253   3.011   3.021  0.5656 -1.1281 -1.9919
19727TIP3    H280597   6.133   2.954   3.093  0.9125  0.1898 -0.2859
19728TIP3   OH280598   5.327   0.395  16.802 -0.0475  0.4193  0.7511
19728TIP3    H180599   5.326   0.417  16.709 -0.3987  1.2950  0.9473
19728TIP3    H280600   5.269   0.459  16.842 -0.6821 -0.5623  1.4482
19729TIP3   OH280601   0.411   2.638  14.591 -0.1273  0.0019 -0.2025
19729TIP3    H180602   0.331   2.628  14.539  0.4430  1.8404 -1.5251
19729TIP3    H280603   0.469   2.691  14.537  2.6047 -2.4277  0.0885
19730TIP3   OH280604   2.592   1.132   0.238 -0.3228 -0.2385 -0.4232
19730TIP3    H180605   2.572   1.184   0.315 -0.2739 -2.1306  0.9354
19730TIP3    H280606   2.686   1.114   0.244 -0.1923  0.0776 -1.2679
19731TIP3   OH280607   0.139   3.819  12.147  0.1725  0.0683  0.1356
19731TIP3    H180608   0.118   3.753  12.081 -1.5791  2.5728 -2.0048
19731TIP3    H280609   0.057   3.832  12.195  1.1432 -0.9420  2.2054
19732TIP3   OH280610   3.939   6.039   5.819 -0.4281 -0.0382 -0.2111
19732TIP3    H180611   3.875   5.988   5.870 -0.8156  1.3321  0.7451
19732TIP3    H280612   3.929   6.128   5.852  2.4376  0.1426  0.4494
19733TIP3   OH280613   2.165   1.691   0.724 -0.0220 -0.8273  0.1136
19733TIP3    H180614   2.074   1.682   0.695 -0.5137 -1.5009  1.7426
19733TIP3    H280615   2.207   1.610   0.694  0.0665 -0.5179 -0.6352
19734TIP3   OH280616   6.409   4.792   0.928  0.2525  0.0545  0.3294
19734TIP3    H180617   6.395   4.884   0.950  0.7349  0.4162 -0.8033
19734TIP3    H280618   6.491   4.769   0.972  0.6072  0.4319 -0.1298
19735TIP3   OH280619   2.853   5.730   1.126  0.7024 -0.3877  0.2282
19735TIP3    H180620   2.919   5.695   1.067  1.6175  0.0855  0.9461
19735TIP3    H280621   2.901   5.754   1.205 -0.4862 -0.9215  1.1385
19736TIP3   OH280622   6.234   0.710  14.758 -0.0594  0.1878  0.5183
19736TIP3    H180623   6.193   0.657  14.826  1.0447 -2.1670 -0.5501
19736TIP3    H280624   6.291   0.650  14.711  0.6020  2.1443 -1.3705
19737TIP3   OH280625   2.260   0.392   4.569 -0.3586  0.1921 -0.1284
19737TIP3    H180626   2.197   0.320   4.581  0.9135 -0.9100  0.2161
19737TIP3    H280627   2.215   0.469   4.605 -1.1441 -0.7453  0.9992
19738TIP3   OH280628   3.716   0.040  16.400  0.3126 -0.1933 -0.4708
19738TIP3    H180629   3.681   0.128  16.406  1.2920  0.1292  0.8126
19738TIP3    H280630   3.748   0.020  16.488 -1.4550 -2.5154 -0.2545
19739TIP3   OH280631   4.724   2.343   6.045 -0.4892  0.1500 -0.1079
19739TIP3    H180632   4.743   2.356   5.952  1.4397 -0.4532  0.1632
19739TIP3    H280633   4.809   2.334   6.087 -1.3416 -1.7077  1.4234
19740TIP3   OH280634   5.095   0.368  14.089 -0.1213  0.3538 -0.3007
19740TIP3    H180635   5.028   0.375  14.156 -1.0669 -0.7529 -1.0973
19740TIP3    H280636   5.156   0.301  14.122  0.5202  1.2458  0.3492
19741TIP3   OH280637   4.809   6.579  17.108  0.1062  0.1420 -0.3213
19741TIP3    H180638   4.768   6.618  17.185  1.7666  1.5695 -0.0706
19741TIP3    H280639   4.901   6.569  17.133  0.3416 -1.0025 -1.5315
19742TIP3   OH280640   4.679   2.691   3.208 -0.5667  0.0205 -0.3069
19742TIP3    H180641   4.766   2.651   3.211 -1.2704 -1.5391  0.5066
19742TIP3    H280642   4.679   2.754   3.279 -0.2953 -0.4214  0.0916
19743TIP3   OH280643   3.636   2.306  10.705 -0.0048  0.0028  0.5120
19743TIP3    H180644   3.657   2.384  10.653 -0.8586 -0.6789 -0.9180
19743TIP3    H280645   3.554   2.327  10.748 -0.5586 -0.3146 -0.3671
19744TIP3   OH280646   6.609   1.410   2.960  0.5180  0.2237  0.3362
19744TIP3    H180647   6.607   1.475   3.030 -1.9339  1.9883 -1.1730
19744TIP3    H280648   6.691   1.426   2.914  0.6446  1.2601  0.8899
19745TIP3   OH280649   3.165   0.509  12.826 -0.2782  0.7094 -0.0604
19745TIP3    H180650   3.132   0.428  12.787  0.6505  0.9637 -1.4599
19745TIP3    H280651   3.194   0.483  12.914  1.3082 -0.8316 -0.9652
19746TIP3   OH280652   3.751   0.944   3.558  0.0547  0.3534 -0.2936
19746TIP3    H180653   3.782   0.997   3.485  0.7469  1.0389  0.4742
19746TIP3    H280654   3.829   0.897   3.589 -0.3862 -0.5104 -0.4611
19747TIP3   OH280655   0.918   0.066   3.342 -0.2555  0.3271  0.4848
19747TIP3    H180656   0.891   0.119   3.268 -2.1947 -0.9464  0.2309
19747TIP3    H280657   0.950   0.129   3.406 -0.4655  1.6052 -0.6299
19748TIP3   OH280658   3.054   0.856   5.852  0.4137  0.2763 -0.7431
19748TIP3    H180659   2.970   0.817   5.879  0.5005 -0.0808 -0.9717
19748TIP3    H280660   3.032   0.946   5.828 -0.0852 -0.0882 -1.7049
19749TIP3   OH280661   1.933   1.127  16.846  0.3221  0.6150  0.0599
19749TIP3    H180662   1.910   1.045  16.802 -0.7658 -0.0087  1.6629
19749TIP3    H280663   2.026   1.120  16.865  0.5286  0.3626 -1.0394
19750TIP3   OH280664   4.875   2.739   5.974 -0.1618 -0.0260  0.0394
19750TIP3    H180665   4.804   2.705   6.028 -1.0296  0.9396 -0.4692
19750TIP3    H280666   4.921   2.801   6.031 -0.3981  0.1631  0.0245
19751TIP3   OH280667   3.996   3.146  14.569  0.1613 -0.4449  0.3623
19751TIP3    H180668   3.949   3.217  14.612 -0.8211 -2.3357  2.6112
19751TIP3    H280669   3.928   3.085  14.541  1.1031 -1.7716  0.8782
19752TIP3   OH280670   6.690   2.833   0.237 -0.0300 -0.0253  0.2510
19752TIP3    H180671   6.686   2.890   0.160 -0.8654 -0.6419 -0.1762
19752TIP3    H280672   6.762   2.868   0.288  1.6251 -0.5502 -1.5794
19753TIP3   OH280673   0.600   2.448   5.628  0.4221 -0.0388 -0.1549
19753TIP3    H180674   0.565   2.537   5.623 -1.5105 -0.6402  1.4434
19753TIP3    H280675   0.637   2.432   5.542 -0.6084  1.7525 -0.9870
19754TIP3   OH280676   3.704   2.817   4.219  0.2430 -0.4771 -0.3236
19754TIP3    H180677   3.611   2.809   4.198  0.3874  1.4879 -2.0325
19754TIP3    H280678   3.710   2.795   4.312 -2.2957  1.3677  0.3880
19755TIP3   OH280679   6.130   4.544   4.444 -0.4503 -0.4816  0.2642
19755TIP3    H180680   6.199   4.563   4.507 -0.4387  0.9718 -0.1398
19755TIP3    H280681   6.157   4.463   4.401  0.9183 -0.0144  0.2265
19756TIP3   OH280682   2.700   2.494   3.573  0.3631 -0.1777  0.2790
19756TIP3    H180683   2.642   2.542   3.513 -0.8531 -0.5225  1.1275
19756TIP3    H280684   2.646   2.423   3.606  1.7211 -1.3346  0.0832
19757TIP3   OH280685   3.028   1.913   3.884  0.3478  0.2414 -0.1779
19757TIP3    H180686   3.120   1.888   3.876 -0.1084 -1.2386 -1.3703
19757TIP3    H280687   3.021   1.992   3.830  0.9180  0.3553 -0.0982
19758TIP3   OH280688   4.845   3.665  12.835  0.1439  1.0809 -0.4766
19758TIP3    H180689   4.807   3.590  12.790 -0.3008  1.6441 -1.0521
19758TIP3    H280690   4.770   3.711  12.872  0.4871  0.7179  0.7203
19759TIP3   OH280691   5.831   1.536   2.036  0.8172  0.1148  0.2617
19759TIP3    H180692   5.873   1.542   2.122  2.0649  2.2317 -0.4167
19759TIP3    H280693   5.886   1.475   1.986  1.2592  0.4302  0.3584
19760TIP3   OH280694   2.487   6.081  12.229  0.2422 -0.7446  0.6027
19760TIP3    H180695   2.578   6.072  12.200 -0.3075  0.6362 -1.8556
19760TIP3    H280696   2.440   6.011  12.183 -0.3409  0.2859 -0.4316
19761TIP3   OH280697   1.937   1.049  15.355 -0.5912  0.5021  0.4888
19761TIP3    H180698   2.027   1.051  15.388 -0.1480 -0.5207 -0.5980
19761TIP3    H280699   1.889   1.108  15.414  0.6806  0.7057  1.3706
19762TIP3   OH280700   3.240   4.909  14.380 -0.3264  0.0340  0.2840
19762TIP3    H180701   3.227   5.003  14.392  0.4719 -0.0924  2.4912
19762TIP3    H280702   3.324   4.902  14.333 -0.9004  0.4126 -0.8416
19763TIP3   OH280703   4.973   6.707   4.930  0.2466  0.0696 -0.1260
19763TIP3    H180704   4.930   6.657   5.000 -0.4641 -0.6785 -1.0694
19763TIP3    H280705   4.904   6.723   4.866  0.8105  1.0459 -0.5111
19764TIP3   OH280706   6.510   0.976  13.352 -0.2640  0.8754  0.1702
19764TIP3    H180707   6.440   1.031  13.386  1.0874  2.1397  1.0919
19764TIP3    H280708   6.476   0.887  13.355 -1.4535  1.3403  1.5756
19765TIP3   OH280709   6.383   3.152   2.252 -0.3094  0.2751 -0.5344
19765TIP3    H180710   6.456   3.099   2.285  0.5548  1.6024 -0.2178
19765TIP3    H280711   6.426   3.227   2.210 -1.4926  1.6335  0.5765
19766TIP3   OH280712   4.416   2.427  15.580  0.3798 -0.3913  0.2371
19766TIP3    H180713   4.461   2.493  15.633 -1.2576  1.1533 -0.1933
19766TIP3    H280714   4.459   2.432  15.494 -0.0580  0.4865  0.0619
19767TIP3   OH280715   0.420   2.018   4.663  0.7173 -0.1043  0.8078
19767TIP3    H180716   0.513   1.998   4.651  0.9549  1.0557  0.5818
19767TIP3    H280717   0.374   1.941   4.631  1.6059 -0.7416  1.0361
19768TIP3   OH280718   4.429   0.042  12.677 -0.2963 -0.2083  0.6322
19768TIP3    H180719   4.350   0.094  12.695 -1.0110 -0.5552 -1.3096
19768TIP3    H280720   4.467   0.025  12.763 -1.2782  1.6081  1.4752
19769TIP3   OH280721   4.512   5.722  12.460 -0.4343  0.1614 -0.2524
19769TIP3    H180722   4.431   5.680  12.487 -0.1475 -0.8249 -0.8806
19769TIP3    H280723   4.580   5.656  12.476  0.1299  0.6653 -0.5297
19770TIP3   OH280724   3.764   1.537   0.846  0.3021 -0.2421  0.0122
19770TIP3    H180725   3.813   1.577   0.774 -0.1340  0.5729  0.1444
19770TIP3    H280726   3.746   1.448   0.817  0.6133 -0.0980 -0.6459
19771TIP3   OH280727   6.130   6.233   2.110  0.1000  0.9663 -0.2023
19771TIP3    H180728   6.196   6.198   2.049  1.0139 -0.4746  1.5285
19771TIP3    H280729   6.063   6.165   2.113  0.5857  0.5266  1.1782
19772TIP3   OH280730   3.277   2.818  14.825  0.1108  0.3012 -0.2296
19772TIP3    H180731   3.253   2.806  14.734  2.3161 -2.8522 -0.5772
19772TIP3    H280732   3.238   2.742  14.870  0.6609  0.7656  1.0706
19773TIP3   OH280733   1.985   5.050   2.065  0.1381  0.3725  0.0577
19773TIP3    H180734   1.903   5.038   2.112  0.5702 -0.9671  0.5401
19773TIP3    H280735   2.002   5.144   2.068 -0.6649  0.4985  1.1837
19774TIP3   OH280736   0.631   4.353  13.049  0.7093  0.4019 -0.0579
19774TIP3    H180737   0.585   4.275  13.018 -1.1419  2.4791 -3.0813
19774TIP3    H280738   0.619   4.351  13.144 -2.3250 -1.2101 -0.3332
19775TIP3   OH280739   1.979   5.486   1.108  0.2349 -0.0369  0.2802
19775TIP3    H180740   1.897   5.515   1.068 -1.0120 -1.6832  1.5136
19775TIP3    H280741   1.967   5.500   1.202  0.7700 -1.6143  0.6239
19776TIP3   OH280742   6.742   5.090  15.452  0.3455  0.6692 -0.3106
19776TIP3    H180743   6.733   5.040  15.534  0.9217  0.5418 -0.3208
19776TIP3    H280744   6.764   5.179  15.480  2.0579  0.2904 -0.3417
19777TIP3   OH280745   3.556   4.880  14.900  0.4227 -0.2450 -0.3667
19777TIP3    H180746   3.540   4.786  14.907 -1.4441  0.0570 -0.1357
19777TIP3    H280747   3.523   4.904  14.814 -2.1807  0.6887  0.7740
19778TIP3   OH280748   0.516   0.340  14.738 -0.1338  0.3430 -0.5990
19778TIP3    H180749   0.443   0.394  14.768 -0.3317  1.0449 -2.2630
19778TIP3    H280750   0.475   0.261  14.704  0.1776 -1.2122  2.2811
19779TIP3   OH280751   5.931   2.430  13.532 -0.1010  0.2498  0.9970
19779TIP3    H180752   5.920   2.525  13.528 -1.0582  0.1092 -0.2722
19779TIP3    H280753   5.847   2.398  13.563  0.5181 -0.1606  2.3522
19780TIP3   OH280754   6.116   2.714  14.260 -0.0019 -0.3135 -0.1871
19780TIP3    H180755   6.132   2.768  14.337  2.3941 -1.4530  0.2197
19780TIP3    H280756   6.094   2.628  14.294  1.5875 -0.9659 -0.7117
19781TIP3   OH280757   0.679   4.173  11.467 -0.0457 -0.1019 -0.1683
19781TIP3    H180758   0.646   4.226  11.539 -1.8388 -0.2691 -0.8151
19781TIP3    H280759   0.768   4.205  11.453  0.0177  0.5550  1.4978
19782TIP3   OH280760   0.522   1.598  15.510  0.2207 -0.4038  0.4082
19782TIP3    H180761   0.505   1.505  15.523 -0.6822 -0.2268  0.5644
19782TIP3    H280762   0.564   1.627  15.591  0.6518 -0.7006  0.2958
19783TIP3   OH280763   1.356   3.078  12.012  0.3090 -0.1251  0.1080
19783TIP3    H180764   1.358   3.111  11.922 -0.6274 -1.5527 -0.4658
19783TIP3    H280765   1.360   3.157  12.066  1.2709  0.7396 -1.1633
19784TIP3   OH280766   6.519   4.902  12.666  0.3000  0.1444 -0.3556
19784TIP3    H180767   6.536   4.970  12.732  1.2449 -0.5935  0.1803
19784TIP3    H280768   6.501   4.823  12.717  0.1263 -0.2281 -0.9842
19785TIP3   OH280769   4.440   5.977   4.754  0.0758 -0.2234 -0.3715
19785TIP3    H180770   4.394   6.052   4.791  1.9413  0.4772  0.6689
19785TIP3    H280771   4.407   5.970   4.665 -0.4645  1.5516 -0.3424
19786TIP3   OH280772   4.589   6.205   1.396 -0.1367  0.1512 -0.0303
19786TIP3    H180773   4.605   6.167   1.482 -0.3024  0.6246  0.2124
19786TIP3    H280774   4.552   6.291   1.414 -2.0199 -0.4887 -0.5697
19787TIP3   OH280775   3.024   4.204   4.258 -0.3249  0.1189 -0.2054
19787TIP3    H180776   2.932   4.225   4.275 -0.0235  1.1849  0.1997
19787TIP3    H280777   3.072   4.261   4.318  0.6299  0.2529 -1.0891
19788TIP3   OH280778   3.501   4.369   4.374  0.2887  0.4025  0.3804
19788TIP3    H180779   3.438   4.408   4.313 -0.1581  0.6707  1.0021
19788TIP3    H280780   3.503   4.429   4.449 -0.3104 -0.6660  1.2935
19789TIP3   OH280781   1.803   0.433   0.103  1.3730  0.6066 -0.3326
19789TIP3    H180782   1.858   0.363   0.139  0.5154 -0.1045 -0.3470
19789TIP3    H280783   1.816   0.427   0.008  1.4596  0.5957 -0.3201
19790TIP3   OH280784   5.831   1.591   3.666  0.0195  0.5954  0.2637
19790TIP3    H180785   5.873   1.595   3.580 -2.7960 -0.1550 -1.2822
19790TIP3    H280786   5.846   1.678   3.704  1.2330  0.9899 -1.0340
19791TIP3   OH280787   5.848   3.519  15.176 -0.3606 -0.5461  0.3077
19791TIP3    H180788   5.848   3.493  15.268 -0.5283  0.3190  0.5599
19791TIP3    H280789   5.940   3.511  15.149 -0.4508 -1.6631  0.2863
19792TIP3   OH280790   0.897   6.163   1.995 -0.1589  0.4953 -0.1292
19792TIP3    H180791   0.805   6.181   2.016 -0.5806 -0.9021 -0.6633
19792TIP3    H280792   0.934   6.133   2.078  0.2253  2.4100  0.4480
19793TIP3   OH280793   2.440   2.653  16.705 -0.2804 -0.1471 -0.2672
19793TIP3    H180794   2.499   2.677  16.633  0.0930 -0.6888 -0.1478
19793TIP3    H280795   2.445   2.727  16.766 -0.2508  0.1123 -0.5806
19794TIP3   OH280796   3.657   4.696   2.518 -0.1638  0.0283  0.2525
19794TIP3    H180797   3.685   4.775   2.472 -0.2157  0.5952  1.1810
19794TIP3    H280798   3.724   4.631   2.496  1.5808  1.1761  1.8901
19795TIP3   OH280799   1.045   5.862   5.152  0.6416  0.0995  0.2974
19795TIP3    H180800   0.959   5.899   5.130  1.3672  0.8657 -1.4361
19795TIP3    H280801   1.044   5.854   5.247 -0.9138  1.2018  0.4139
19796TIP3   OH280802   6.164   3.722   4.134  0.3376  0.0858 -0.0563
19796TIP3    H180803   6.238   3.783   4.137  1.5218 -1.3303  0.8341
19796TIP3    H280804   6.093   3.767   4.180  0.2280  1.9362 -1.9065
19797TIP3   OH280805   2.801   5.907   0.415  0.5481  0.1066  0.1250
19797TIP3    H180806   2.812   5.991   0.370 -0.0856 -0.5908 -1.3961
19797TIP3    H280807   2.810   5.841   0.347 -2.4830 -0.9202  0.5482
19798TIP3   OH280808   6.721   3.700  12.706 -0.2012  0.1101  0.1374
19798TIP3    H180809   6.665   3.771  12.737 -1.2427 -1.0938  1.1147
19798TIP3    H280810   6.784   3.686  12.776 -1.0763 -1.0342  0.7361
19799TIP3   OH280811   3.338   2.417  14.933 -0.2257 -0.3738  0.4956
19799TIP3    H180812   3.359   2.339  14.985 -3.3827 -1.3324  0.5481
19799TIP3    H280813   3.397   2.484  14.966  1.9197 -2.4574  1.1622
19800TIP3   OH280814   3.068   5.258  12.248 -0.0805  0.1516 -0.0168
19800TIP3    H180815   3.089   5.174  12.208 -0.2649 -0.4908  1.2118
19800TIP3    H280816   2.973   5.265  12.243 -0.4909 -1.4706  3.1722
19801TIP3   OH280817   1.442   1.032  14.869 -0.5017 -0.0447  0.2206
19801TIP3    H180818   1.468   1.109  14.920  0.0621 -0.8119  1.1150
19801TIP3    H280819   1.394   0.978  14.931  1.1147 -1.5025  0.2590
19802TIP3   OH280820   3.451   1.053   2.598 -1.1832 -0.1155 -0.1100
19802TIP3    H180821   3.538   1.013   2.606 -0.6292  1.1307  0.3707
19802TIP3    H280822   3.397   1.009   2.664 -0.4081  0.3681  0.8703
19803TIP3   OH280823   3.043   0.404   5.094  0.0684  0.5484 -0.0534
19803TIP3    H180824   3.115   0.458   5.127 -0.7855  1.9767 -0.4562
19803TIP3    H280825   2.975   0.466   5.069 -0.7489 -0.6884 -1.0636
19804TIP3   OH280826   3.000   6.685  12.160  0.2770  0.7266 -0.1300
19804TIP3    H180827   2.938   6.693  12.087  1.4436 -1.6931 -1.4875
19804TIP3    H280828   2.960   6.620  12.218 -0.3911  2.2557  1.2059
19805TIP3   OH280829   2.796   6.460  15.133 -0.2815  0.0038 -0.1317
19805TIP3    H180830   2.733   6.532  15.142 -0.4556 -0.1188 -0.3535
19805TIP3    H280831   2.818   6.437  15.223 -0.6654 -0.0450 -0.0455
19806TIP3   OH280832   0.064   4.497   1.246 -0.3400 -0.1502 -0.3199
19806TIP3    H180833   0.001   4.522   1.177 -1.1202  0.9334  0.7400
19806TIP3    H280834   0.138   4.459   1.198 -1.0859  0.0780 -1.7193
19807TIP3   OH280835   6.353   1.046  10.910  0.2745 -0.7668  0.2223
19807TIP3    H180836   6.296   1.123  10.912 -0.4311 -1.2032 -1.5145
19807TIP3    H280837   6.411   1.061  10.836 -0.0509 -2.0177 -0.3074
19808TIP3   OH280838   3.821   4.464  14.985  0.2215  0.4998  0.3675
19808TIP3    H180839   3.863   4.546  15.014 -1.0103  0.9624  0.9249
19808TIP3    H280840   3.727   4.484  14.985 -0.1849 -1.1963  1.4644
19809TIP3   OH280841   5.799   4.511  13.316  0.6997 -0.0065 -0.1985
19809TIP3    H180842   5.823   4.603  13.303  0.9376 -0.3220 -2.3457
19809TIP3    H280843   5.819   4.469  13.233 -0.3368 -1.8225  0.4146
19810TIP3   OH280844   5.842   4.220  14.652 -0.1667  0.6482 -0.0746
19810TIP3    H180845   5.830   4.139  14.702  0.2489  0.1040 -0.8400
19810TIP3    H280846   5.936   4.224  14.634 -0.4068  0.3770 -1.5421
19811TIP3   OH280847   1.331   3.615   1.461 -0.2718 -0.2585  0.0845
19811TIP3    H180848   1.335   3.554   1.386  2.3747 -0.7255  0.5179
19811TIP3    H280849   1.282   3.567   1.527 -0.4918 -0.8483 -0.4860
19812TIP3   OH280850   1.813   3.303  13.606  0.1312 -0.2145  0.0269
19812TIP3    H180851   1.824   3.233  13.541  0.9376  0.0980 -0.1926
19812TIP3    H280852   1.880   3.367  13.583  0.3001 -0.0039  1.0491
19813TIP3   OH280853   3.651   3.988  14.813 -0.6301 -0.8623  0.2149
19813TIP3    H180854   3.633   3.903  14.853  0.1644 -1.9895 -1.6844
19813TIP3    H280855   3.699   3.967  14.733 -1.4887  1.3105 -0.9510
19814TIP3   OH280856   5.000   5.043   5.015  0.1224  0.0148  0.2561
19814TIP3    H180857   5.044   5.077   4.937 -0.7836  0.0286 -0.2630
19814TIP3    H280858   5.018   4.949   5.013 -1.3545 -0.2859 -0.9709
19815TIP3   OH280859   3.000   0.146   2.549 -0.2901 -0.2591 -0.2049
19815TIP3    H180860   2.973   0.237   2.561 -0.1830 -0.0486 -1.4161
19815TIP3    H280861   3.094   0.146   2.572 -0.3463 -0.1238  0.0329
19816TIP3   OH280862   6.569   5.150  14.399 -0.0348  0.1684 -0.2592
19816TIP3    H180863   6.533   5.139  14.310  0.3113  2.8864 -0.8153
19816TIP3    H280864   6.655   5.188  14.385  0.4474 -0.3096  1.2577
19817TIP3   OH280865   1.907   5.056  16.522 -0.3925 -0.3758  0.0836
19817TIP3    H180866   1.865   5.138  16.496  0.9108 -0.4170 -2.3984
19817TIP3    H280867   1.848   4.987  16.491  0.1522 -0.3878 -0.9812
19818TIP3   OH280868   4.772   3.099  13.050  0.4986 -0.6543 -0.0340
19818TIP3    H180869   4.684   3.080  13.081 -0.1339  1.2001 -0.5818
19818TIP3    H280870   4.792   3.185  13.087  1.6373 -0.5568 -0.8425
19819TIP3   OH280871   2.282   0.157  13.049 -0.0766 -0.2645 -0.4848
19819TIP3    H180872   2.263   0.065  13.065 -0.8585 -0.0759 -0.3092
19819TIP3    H280873   2.321   0.187  13.132  0.7103 -0.5688 -0.7353
19820TIP3   OH280874   6.632   4.122  10.918 -0.0669 -0.0923 -0.3640
19820TIP3    H180875   6.673   4.208  10.912 -1.1460  0.4338 -0.4554
19820TIP3    H280876   6.597   4.106  10.831 -2.7946  0.9257  0.4140
19821TIP3   OH280877   0.189   3.336   5.508 -0.1332 -0.2593  0.0167
19821TIP3    H180878   0.211   3.426   5.485 -1.2946  0.4708  1.5731
19821TIP3    H280879   0.251   3.314   5.577 -1.1831  0.1341  1.1181
19822TIP3   OH280880   3.307   1.545   1.212 -0.2333  0.2213 -0.0939
19822TIP3    H180881   3.376   1.606   1.236 -0.1828 -0.3193  1.2297
19822TIP3    H280882   3.344   1.493   1.141 -0.2530  1.6380 -1.2040
19823TIP3   OH280883   2.821   5.834   0.810 -0.7136  0.0893  0.3102
19823TIP3    H180884   2.857   5.794   0.731 -1.2666 -1.2363  0.7043
19823TIP3    H280885   2.889   5.895   0.838  0.6609 -1.3389  0.2740
19824TIP3   OH280886   1.473   4.535  10.890 -0.0468 -0.3535 -0.0268
19824TIP3    H180887   1.465   4.625  10.921 -1.4149 -0.9760  1.6204
19824TIP3    H280888   1.567   4.517  10.892  0.4873  1.6254 -2.3788
19825TIP3   OH280889   4.623   4.786   5.237 -0.1252 -0.1964 -0.2562
19825TIP3    H180890   4.680   4.862   5.231 -2.4418  1.6508 -0.1066
19825TIP3    H280891   4.622   4.750   5.148  0.9196 -0.0251 -0.3476
19826TIP3   OH280892   6.409   5.113   0.665 -0.0365 -0.4994  0.1445
19826TIP3    H180893   6.491   5.091   0.709  1.0386  1.5014 -0.7247
19826TIP3    H280894   6.414   5.067   0.581  1.1594  1.1105 -0.7244
19827TIP3   OH280895   3.368   2.020  17.117 -0.0470 -0.1513  0.1913
19827TIP3    H180896   3.452   2.048  17.153 -0.4659 -0.1825  1.2008
19827TIP3    H280897   3.367   2.057  17.029  0.9504 -0.0118  0.2222
19828TIP3   OH280898   4.536   5.146   3.568  0.8955 -0.3256 -1.0155
19828TIP3    H180899   4.545   5.054   3.593 -0.5601 -0.3939 -0.7077
19828TIP3    H280900   4.531   5.143   3.472 -0.1394 -0.6775 -0.9657
19829TIP3   OH280901   0.761   1.171   2.511 -0.3972 -0.3198 -0.4190
19829TIP3    H180902   0.683   1.117   2.522  1.5513 -3.2711 -0.0217
19829TIP3    H280903   0.800   1.176   2.598  0.8404 -0.5281 -0.9383
19830TIP3   OH280904   0.969   3.989   4.926 -0.0566 -0.0942  0.2220
19830TIP3    H180905   0.963   3.894   4.933 -0.4226 -0.2003 -1.2247
19830TIP3    H280906   1.021   4.016   5.002  0.3869 -1.4811  0.4270
19831TIP3   OH280907   3.341   0.349  16.642  0.4377  0.1253 -0.1081
19831TIP3    H180908   3.258   0.309  16.618  0.8706 -0.3196 -0.8743
19831TIP3    H280909   3.348   0.336  16.737 -0.0830 -0.3614 -0.1368
19832TIP3   OH280910   6.063   6.226  11.681  0.0190  1.1431  0.2025
19832TIP3    H180911   6.112   6.217  11.762 -0.7320  1.0532  0.6572
19832TIP3    H280912   6.127   6.212  11.612  0.7436  1.6029  0.7751
19833TIP3   OH280913   0.150   3.953   6.318 -0.4120 -0.2178  0.0919
19833TIP3    H180914   0.122   4.044   6.325 -1.4365 -0.4819 -0.4643
19833TIP3    H280915   0.111   3.910   6.394  1.2788  0.0682  1.1955
19834TIP3   OH280916   0.412   2.734  15.747  0.2114 -0.2863 -0.2497
19834TIP3    H180917   0.489   2.776  15.787 -0.1440  0.4852 -0.3564
19834TIP3    H280918   0.411   2.768  15.658 -0.9083  0.6240  0.0927
19835TIP3   OH280919   0.594   3.312   3.656  0.0954 -0.7475 -0.6744
19835TIP3    H180920   0.545   3.299   3.737  0.8124 -0.9822 -0.2672
19835TIP3    H280921   0.678   3.348   3.684  0.4442 -1.0649 -1.2862
19836TIP3   OH280922   3.518   0.101  15.513 -0.2008  0.6066 -0.3306
19836TIP3    H180923   3.600   0.064  15.545  0.3560  1.4231 -0.7789
19836TIP3    H280924   3.456   0.028  15.515  0.5082  0.0059  0.1061
19837TIP3   OH280925   0.961   3.275  15.760  0.2645 -0.5571  0.2757
19837TIP3    H180926   1.055   3.295  15.756  0.2852 -0.7633 -0.7197
19837TIP3    H280927   0.958   3.183  15.788  0.4621 -1.0961 -1.3355
19838TIP3   OH280928   2.289   1.716   2.469 -0.7082 -0.4665  0.0508
19838TIP3    H180929   2.227   1.789   2.476 -0.8411 -0.6230  0.5589
19838TIP3    H280930   2.368   1.748   2.513 -0.4874 -0.3327 -0.4399
19839TIP3   OH280931   6.801   2.799   2.370  0.4965 -0.1193  0.7427
19839TIP3    H180932   6.804   2.752   2.287 -0.1910  0.6364  0.2760
19839TIP3    H280933   6.885   2.843   2.375  0.2008  0.5528  0.0025
19840TIP3   OH280934   5.599   3.559   2.736  0.7266 -0.6601  0.0155
19840TIP3    H180935   5.587   3.539   2.643  0.2233 -0.3649  0.0167
19840TIP3    H280936   5.606   3.473   2.777  1.1655 -0.7913 -0.3179
19841TIP3   OH280937   0.576   6.005  15.567 -0.2164  0.1035 -0.6567
19841TIP3    H180938   0.656   6.018  15.619 -0.7645  1.9628 -0.2026
19841TIP3    H280939   0.507   5.994  15.632 -0.8438  2.0161 -0.9636
19842TIP3   OH280940   4.420   2.155  12.943  0.4669  1.0058  0.2404
19842TIP3    H180941   4.462   2.240  12.955  1.0268  0.8119 -0.2917
19842TIP3    H280942   4.407   2.148  12.848  3.2009 -0.7831 -0.1100
19843TIP3   OH280943   4.150   1.813  12.558  0.0576  0.4698 -0.1464
19843TIP3    H180944   4.234   1.817  12.511  0.2323 -0.2217  0.0868
19843TIP3    H280945   4.174   1.779  12.645 -0.5952 -0.7663 -0.4323
19844TIP3   OH280946   0.140   4.702   1.563 -0.3271  0.4554  0.3450
19844TIP3    H180947   0.133   4.615   1.524  2.4518  0.3879 -0.2452
19844TIP3    H280948   0.180   4.687   1.648 -2.6904  0.9650  1.6226
19845TIP3   OH280949   2.911   6.581  11.385 -0.0402 -0.3049  0.1524
19845TIP3    H180950   2.837   6.547  11.434  0.2413 -2.0591 -0.5604
19845TIP3    H280951   2.929   6.515  11.318  3.2626 -0.8567  1.3794
19846TIP3   OH280952   3.710   4.262  12.644 -0.3209 -0.1266 -0.6153
19846TIP3    H180953   3.772   4.323  12.685 -0.0874 -0.7266 -0.0627
19846TIP3    H280954   3.624   4.294  12.671 -0.1968 -0.0899 -0.2521
19847TIP3   OH280955   3.437   5.735  16.875  0.0527  0.0398 -0.4461
19847TIP3    H180956   3.414   5.702  16.962  1.1619 -0.9054 -0.4777
19847TIP3    H280957   3.379   5.810  16.861 -1.1018 -0.6355  0.5203
19848TIP3   OH280958   3.664   2.958  14.187  0.2006  0.2267 -0.2269
19848TIP3    H180959   3.682   3.015  14.262 -1.0390 -0.5488  0.7082
19848TIP3    H280960   3.747   2.953  14.141  0.4430  2.5359 -0.1912
19849TIP3   OH280961   0.663   2.609   4.595  0.1258  0.5956  0.1661
19849TIP3    H180962   0.605   2.579   4.525 -0.0939  2.5093 -0.5340
19849TIP3    H280963   0.748   2.570   4.575 -0.1437  0.4423 -0.6879
19850TIP3   OH280964   5.635   0.273  11.614 -0.2112  0.4028 -0.6959
19850TIP3    H180965   5.618   0.178  11.616 -1.7342  0.6345 -1.0146
19850TIP3    H280966   5.681   0.287  11.531  1.5453 -0.2498  0.1169
19851TIP3   OH280967   4.713   4.326   5.670 -0.5937 -0.4435 -0.1065
19851TIP3    H180968   4.802   4.358   5.656 -0.5792 -0.4324  0.0048
19851TIP3    H280969   4.673   4.325   5.583 -0.9853  1.0194  0.0334
19852TIP3   OH280970   1.745   0.388  16.355 -0.0113 -0.0521 -0.1154
19852TIP3    H180971   1.658   0.354  16.377  0.2920 -1.2200 -0.6245
19852TIP3    H280972   1.730   0.445  16.280 -0.5181  0.9067  0.6897
19853TIP3   OH280973   2.151   3.527  11.105 -0.2773 -0.8754 -0.2976
19853TIP3    H180974   2.107   3.573  11.034  2.0370  0.1719 -1.1605
19853TIP3    H280975   2.169   3.594  11.170  1.8710 -0.7579 -0.9362
19854TIP3   OH280976   2.651   2.918   2.257 -0.1478  0.3832 -0.2134
19854TIP3    H180977   2.746   2.926   2.256 -0.1408  0.4015  0.1983
19854TIP3    H280978   2.626   2.937   2.348 -0.3491 -1.5956  0.1968
19855TIP3   OH280979   2.559   2.693  16.975  0.9475  0.0477  0.1887
19855TIP3    H180980   2.546   2.776  17.021  0.8130 -0.1036  0.4262
19855TIP3    H280981   2.648   2.699  16.940  0.4735  0.8468 -0.9434
19856TIP3   OH280982   6.068   0.407   5.260  0.2034  0.2186 -0.1688
19856TIP3    H180983   6.138   0.418   5.195 -1.6913  1.7119 -2.1226
19856TIP3    H280984   6.074   0.315   5.286  1.5398 -0.2492 -1.8933
19857TIP3   OH280985   3.265   3.181   5.184 -0.0727  0.3644  0.4009
19857TIP3    H180986   3.191   3.122   5.195  0.4716 -0.8524 -1.8969
19857TIP3    H280987   3.251   3.249   5.250 -3.4563  0.4273 -0.2206
19858TIP3   OH280988   1.438   1.828  15.974 -0.0248  0.3124  0.3173
19858TIP3    H180989   1.366   1.890  15.977  0.0579  0.4194  0.1286
19858TIP3    H280990   1.460   1.812  16.066 -0.7911 -0.3143  0.3965
19859TIP3   OH280991   3.177   1.250  17.106 -0.0570  0.0965  0.1146
19859TIP3    H180992   3.199   1.224  17.016  1.1217  0.0013  0.4134
19859TIP3    H280993   3.094   1.296  17.097 -0.3485 -0.5677 -0.9241
19860TIP3   OH280994   2.927   5.369  11.151  0.0960  0.1115  0.5685
19860TIP3    H180995   2.847   5.402  11.191 -0.8117 -1.8355  0.4397
19860TIP3    H280996   2.939   5.425  11.074 -0.9302  0.6534  0.7789
19861TIP3   OH280997   3.734   3.472   3.724 -0.1391  0.3563  0.0677
19861TIP3    H180998   3.641   3.456   3.706 -0.1543  2.4101 -2.1781
19861TIP3    H280999   3.779   3.449   3.643  1.1822  0.6539  0.6857
19862TIP3   OH281000   5.135   6.799  14.556 -0.8616 -0.5054 -0.0633
19862TIP3    H181001   5.057   6.777  14.505 -1.2695 -0.3757  0.4883
19862TIP3    H281002   5.143   6.894  14.546 -1.6726 -0.2931  1.1020
19863TIP3   OH281003   3.022   5.409   3.430  0.2837  1.0380 -0.3739
19863TIP3    H181004   2.927   5.406   3.424  0.2437  0.9603  0.1916
19863TIP3    H281005   3.046   5.332   3.481  0.9299 -0.7706 -3.1876
19864TIP3   OH281006   1.006   3.559   2.219  0.5371  0.1369 -0.4807
19864TIP3    H181007   0.911   3.571   2.229  0.6253  0.8607 -0.4903
19864TIP3    H281008   1.019   3.464   2.228 -0.2602 -0.0431 -1.0770
19865TIP3   OH281009   6.408   5.474  12.120  0.3766 -0.1287 -0.4459
19865TIP3    H181010   6.418   5.497  12.212  0.0871  0.0634 -0.4583
19865TIP3    H281011   6.421   5.379  12.117 -0.2678 -0.2339 -0.1057
19866TIP3   OH281012   0.010   1.064  15.853  0.2470  0.6317  0.5104
19866TIP3    H181013  -0.006   1.027  15.766 -0.6598 -0.0287  0.9386
19866TIP3    H281014   0.094   1.109  15.845  1.1644 -1.1066 -0.1836
19867TIP3   OH281015   1.448   5.384  10.755 -0.9813 -0.2229 -0.0547
19867TIP3    H181016   1.377   5.345  10.807 -1.3177 -0.5099 -0.7177
19867TIP3    H281017   1.520   5.394  10.817 -2.2332  1.9946  1.1962
19868TIP3   OH281018   5.645   5.511  10.269  0.1018 -0.1940  0.0634
19868TIP3    H181019   5.718   5.468  10.224 -1.3038 -2.8724  0.1076
19868TIP3    H281020   5.579   5.523  10.201 -0.1290  0.5027  0.4013
19869TIP3   OH281021   6.296   0.585   2.813 -0.3981 -0.1605 -0.3256
19869TIP3    H181022   6.252   0.568   2.730 -0.4548 -1.4358 -0.0717
19869TIP3    H281023   6.345   0.504   2.831  1.0340  0.7616  0.0245
19870TIP3   OH281024   2.585   1.346   1.544 -0.2484 -0.0472 -0.4203
19870TIP3    H181025   2.590   1.255   1.573  4.3021 -0.1975 -0.9949
19870TIP3    H281026   2.545   1.341   1.457  0.8818 -1.6821 -0.8960
19871TIP3   OH281027   2.397   0.905  16.332  0.1672  0.1477  0.1057
19871TIP3    H181028   2.409   0.997  16.354  2.6812  0.1151 -0.8448
19871TIP3    H281029   2.473   0.883  16.279 -1.2715 -2.0385 -1.1924
19872TIP3   OH281030   0.179   0.867  16.121 -0.2037  0.0414  0.3719
19872TIP3    H181031   0.113   0.846  16.056 -0.7279  1.7890  0.2980
19872TIP3    H281032   0.204   0.958  16.102  1.1437 -0.0941  1.3189
19873TIP3   OH281033   3.383   4.371   3.226 -0.0369  0.3537 -0.2200
19873TIP3    H181034   3.383   4.287   3.273  1.7942  1.1331  1.2709
19873TIP3    H281035   3.381   4.437   3.295  1.0889  1.5499 -1.2924
19874TIP3   OH281036   1.886   5.813  11.375 -0.7385 -0.3894 -0.2562
19874TIP3    H181037   1.837   5.757  11.315 -0.6524 -2.6731  1.6509
19874TIP3    H281038   1.859   5.784  11.462  1.8144  0.2902  0.8438
19875TIP3   OH281039   6.587   1.455   4.553  0.0294 -0.0542 -0.3484
19875TIP3    H181040   6.678   1.451   4.525 -0.1251  0.5595 -0.9760
19875TIP3    H281041   6.591   1.477   4.646  0.5186  1.6834 -0.7390
19876TIP3   OH281042   2.404   0.635   5.924 -0.6057  0.2271  0.3280
19876TIP3    H181043   2.316   0.605   5.900 -1.1884 -0.3319  2.8370
19876TIP3    H281044   2.389   0.719   5.967  0.1202  0.2613  0.5154
19877TIP3   OH281045   1.634   3.091  14.458 -0.5179 -0.3246 -0.5182
19877TIP3    H181046   1.578   3.111  14.532 -1.8203 -1.1311 -1.2361
19877TIP3    H281047   1.674   3.175  14.434 -0.0156 -0.0678  1.1003
19878TIP3   OH281048   6.026   2.468  16.118  0.1258 -0.2249  0.0311
19878TIP3    H181049   6.098   2.409  16.096  0.1996 -0.3466  0.5802
19878TIP3    H281050   6.052   2.508  16.200 -0.0134  0.4353 -0.2398
19879TIP3   OH281051   3.743   6.175  11.573 -0.4005 -0.5430 -0.2369
19879TIP3    H181052   3.756   6.176  11.667  1.6268 -0.7050 -0.4623
19879TIP3    H281053   3.776   6.259  11.542  0.6509 -1.1720 -0.9390
19880TIP3   OH281054   5.148   6.283  13.146  0.0419 -0.2429 -0.4356
19880TIP3    H181055   5.168   6.233  13.226 -0.0474 -1.3330 -1.0766
19880TIP3    H281056   5.196   6.237  13.077  2.0115  2.0015 -0.7146
19881TIP3   OH281057   3.915   6.369  12.437  0.3789 -0.1034 -0.2909
19881TIP3    H181058   3.970   6.437  12.399  0.5479 -0.1836 -0.1861
19881TIP3    H281059   3.968   6.329  12.506 -0.0878  0.3384  0.3391
19882TIP3   OH281060   1.784   0.142  16.082 -0.1846 -0.0080 -0.3090
19882TIP3    H181061   1.855   0.079  16.067  0.2656  0.7049 -1.2850
19882TIP3    H281062   1.751   0.162  15.995 -0.1372  1.3161 -0.0358
19883TIP3   OH281063   0.603   3.294  15.359 -0.9687 -0.0381  0.1448
19883TIP3    H181064   0.510   3.315  15.362 -0.5971  1.7004  0.4727
19883TIP3    H281065   0.647   3.377  15.375  0.6659 -0.4866 -1.6042
19884TIP3   OH281066   0.496   5.689  12.119 -0.4048  0.4963  0.0052
19884TIP3    H181067   0.502   5.685  12.214 -0.2553 -2.1540 -0.0382
19884TIP3    H281068   0.572   5.741  12.092  0.1738  0.3305  1.2658
19885TIP3   OH281069   0.099   4.857  16.302  0.6404 -0.6402 -0.3053
19885TIP3    H181070   0.083   4.951  16.307  0.7303 -0.6670  1.1015
19885TIP3    H281071   0.068   4.831  16.216  0.9913  0.7405 -0.8632
19886TIP3   OH281072   1.628   1.589  10.559  0.1616 -0.7298 -0.9144
19886TIP3    H181073   1.546   1.625  10.526  0.5490  0.2777 -0.7950
19886TIP3    H281074   1.665   1.659  10.613  0.9096 -1.3207 -0.6456
19887TIP3   OH281075   1.611   1.601  15.945 -0.2960 -0.8776  0.0103
19887TIP3    H181076   1.632   1.598  16.038 -0.1492  0.2928  0.0241
19887TIP3    H281077   1.555   1.678  15.935 -0.3437 -1.0093 -0.8691
19888TIP3   OH281078   3.502   1.824  12.204  0.2456 -0.1239 -0.4524
19888TIP3    H181079   3.407   1.839  12.206  0.1527 -0.7197 -0.3541
19888TIP3    H281080   3.523   1.816  12.111  0.6979  3.0526 -0.7268
19889TIP3   OH281081   0.929   3.948   2.283 -0.2749 -0.1544  0.3016
19889TIP3    H181082   0.848   3.998   2.281 -0.2296  0.0320  1.9319
19889TIP3    H281083   0.907   3.866   2.327  0.1696 -0.6082 -0.2963
19890TIP3   OH281084   0.240   2.356   1.312  0.1880 -0.0800  0.3236
19890TIP3    H181085   0.304   2.389   1.375  1.1739  0.4807 -0.9418
19890TIP3    H281086   0.286   2.286   1.266 -0.2345  0.0676 -0.3305
19891TIP3   OH281087   5.549   3.279  13.012  0.2602  0.3124  0.0010
19891TIP3    H181088   5.605   3.355  12.995  0.3374  0.5178  1.1010
19891TIP3    H281089   5.504   3.300  13.094 -1.8833  0.3950 -1.1341
19892TIP3   OH281090   3.743   0.725   3.191 -0.1052 -0.2475 -0.1623
19892TIP3    H181091   3.771   0.746   3.281  0.5019  0.5946 -0.5328
19892TIP3    H281092   3.720   0.810   3.153  0.0972 -0.5454 -0.9552
19893TIP3   OH281093   0.368   5.014  15.972  0.1900  0.1627 -0.1510
19893TIP3    H181094   0.282   5.041  15.940 -0.2165 -0.1343  0.6524
19893TIP3    H281095   0.355   5.001  16.066  0.2554 -2.9939 -0.4518
19894TIP3   OH281096   3.156   0.070   2.783  0.2662  0.0625  0.1841
19894TIP3    H181097   3.174  -0.020   2.810 -0.5702 -0.2245 -0.1841
19894TIP3    H281098   3.089   0.100   2.844  0.4837  0.4123  0.2521
19895TIP3   OH281099   0.058   0.018   3.092 -0.2472 -0.1754  0.2860
19895TIP3    H181100   0.143  -0.010   3.059 -0.5130  0.3670 -0.8986
19895TIP3    H281101   0.018  -0.063   3.125  0.3956 -0.5771  0.1054
19896TIP3   OH281102   1.579   6.474   3.721  0.4031  0.8152  0.3405
19896TIP3    H181103   1.579   6.561   3.681 -2.7622  0.5132 -0.5808
19896TIP3    H281104   1.581   6.492   3.815 -0.6350  1.9362  0.1784
19897TIP3   OH281105   3.549   1.499   1.052  0.7087  0.2519 -0.5736
19897TIP3    H181106   3.595   1.523   0.971  0.5780  2.4303 -0.0615
19897TIP3    H281107   3.583   1.559   1.117 -0.0816 -0.6741  0.7376
19898TIP3   OH281108   1.777   1.580   2.929  0.2010 -0.0044 -0.2688
19898TIP3    H181109   1.868   1.565   2.953  0.6582 -0.8656 -2.3323
19898TIP3    H281110   1.775   1.570   2.833 -2.0257  0.1406 -0.2973
19899TIP3   OH281111   2.917   6.168   5.496  0.7372  0.1398 -0.0372
19899TIP3    H181112   2.912   6.263   5.489  0.2453  0.0618 -0.8813
19899TIP3    H281113   2.969   6.141   5.420 -2.4749 -0.5409 -2.1752
19900TIP3   OH281114   3.216   3.936  16.049  0.3436  0.3652 -0.3919
19900TIP3    H181115   3.137   3.943  15.997  0.8375  0.6279 -1.1212
19900TIP3    H281116   3.225   3.843  16.068  0.9996  0.0336 -2.1362
19901TIP3   OH281117   3.405   1.144  15.040 -0.0959 -0.0570  0.4441
19901TIP3    H181118   3.367   1.158  14.953 -1.4334 -0.7210  0.8936
19901TIP3    H281119   3.447   1.058  15.034  0.0378  0.0121  0.3822
19902TIP3   OH281120   5.707   0.909  10.622 -0.3627  0.1509 -0.0751
19902TIP3    H181121   5.614   0.931  10.628 -0.7660 -0.7647 -1.9476
19902TIP3    H281122   5.721   0.890  10.529  1.5520 -0.3776  0.2666
19903TIP3   OH281123   4.148   5.547  14.134 -0.1456  0.3304 -0.4178
19903TIP3    H181124   4.136   5.482  14.064  1.3334  0.8982 -1.2341
19903TIP3    H281125   4.232   5.587  14.115 -0.4464  1.6058  0.8172
19904TIP3   OH281126   2.411   2.236  13.058 -0.6983 -0.2919 -0.8550
19904TIP3    H181127   2.352   2.249  12.984 -0.4279  0.1823 -0.9946
19904TIP3    H281128   2.368   2.170  13.112 -0.7284 -0.9038 -1.6112
19905TIP3   OH281129   3.417   5.378  10.932  0.0852  0.1759  0.4276
19905TIP3    H181130   3.377   5.333  11.006 -0.2194 -0.4947 -0.1257
19905TIP3    H281131   3.344   5.396  10.873  0.3553  0.4973  0.1844
19906TIP3   OH281132   6.416   3.379   5.465  0.3477  1.0707  0.1360
19906TIP3    H181133   6.351   3.449   5.477  0.5940  1.1050  1.4052
19906TIP3    H281134   6.495   3.425   5.437  0.6686  1.4017  1.4875
19907TIP3   OH281135   6.355   4.264  14.520 -0.2430 -0.0580  0.0563
19907TIP3    H181136   6.413   4.214  14.577 -1.3159 -2.5999 -0.8995
19907TIP3    H281137   6.342   4.207  14.444 -2.4076  1.2480 -0.6441
19908TIP3   OH281138   4.968   5.865  13.683  0.0616 -0.1419  0.1258
19908TIP3    H181139   4.881   5.845  13.718  0.3203  0.0387  0.8895
19908TIP3    H281140   4.965   5.958  13.663  0.0977 -0.1247  0.2013
19909TIP3   OH281141   4.076   5.699   4.041 -0.3041  0.1456  0.1220
19909TIP3    H181142   4.151   5.660   3.997 -0.4958  1.7353 -1.7752
19909TIP3    H281143   4.063   5.645   4.119  1.8172 -1.1074 -0.3017
19910TIP3   OH281144   6.065   2.558   5.379  0.0912 -0.9439  0.2188
19910TIP3    H181145   6.087   2.629   5.318  2.5936 -1.6830  0.1738
19910TIP3    H281146   6.046   2.483   5.323  2.0847 -1.5379  0.2685
19911TIP3   OH281147   2.358   1.080   2.658  0.5075 -0.1527  0.5564
19911TIP3    H181148   2.361   1.041   2.570 -1.5494  0.9344 -0.0497
19911TIP3    H281149   2.426   1.147   2.655  0.1969  0.1446 -0.3619
19912TIP3   OH281150   6.035   5.632   0.968 -0.2545 -0.0460 -0.5801
19912TIP3    H181151   6.099   5.564   0.990  1.8278  2.6324  2.5781
19912TIP3    H281152   6.083   5.693   0.913 -0.6492  1.0096  0.2174
19913TIP3   OH281153   2.268   3.832  11.078  0.2139  0.5055  0.0548
19913TIP3    H181154   2.282   3.918  11.118  1.9917  0.2431  0.0855
19913TIP3    H281155   2.238   3.852  10.990 -0.5632  1.1295  0.4438
19914TIP3   OH281156   0.331   0.850   4.512 -0.3190  0.1492 -0.1807
19914TIP3    H181157   0.397   0.904   4.468 -1.0000 -0.6132 -2.3033
19914TIP3    H281158   0.319   0.891   4.598  1.2889  1.6002 -0.5884
19915TIP3   OH281159   5.324   0.993   2.549  0.2868 -0.6894  0.4688
19915TIP3    H181160   5.277   1.061   2.502 -0.2321 -0.6884  0.9727
19915TIP3    H281161   5.392   0.963   2.488  0.7535  0.5194  0.3686
19916TIP3   OH281162   3.805   1.216   5.724 -0.2515  0.7639  0.6996
19916TIP3    H181163   3.802   1.199   5.630  0.0513  2.2670  0.3859
19916TIP3    H281164   3.739   1.283   5.738 -2.7365 -1.7634  2.1698
19917TIP3   OH281165   0.461   3.383   4.497  0.3216  0.1016  0.1042
19917TIP3    H181166   0.473   3.376   4.592  0.6221 -0.0673  0.0547
19917TIP3    H281167   0.375   3.425   4.487  0.1051 -0.2559  0.4420
19918TIP3   OH281168   6.663   6.284   4.981 -0.1354 -0.2435  0.3988
19918TIP3    H181169   6.757   6.272   4.969 -0.2928 -0.7387 -0.4414
19918TIP3    H281170   6.646   6.256   5.071  1.0800  3.3759  1.9354
19919TIP3   OH281171   4.608   5.237   4.833 -0.0168 -0.6638  0.0136
19919TIP3    H181172   4.697   5.269   4.848 -0.3157 -0.4176  1.4532
19919TIP3    H281173   4.553   5.314   4.846 -0.4591 -0.8435 -0.7403
19920TIP3   OH281174   0.669   0.484   4.845  0.0006  0.3333  0.8249
19920TIP3    H181175   0.647   0.577   4.847  3.1772  1.2755 -0.6088
19920TIP3    H281176   0.744   0.477   4.905  2.5029 -0.2930 -2.1083
19921TIP3   OH281177   5.416   3.468  14.680 -0.5921  0.1160  0.3482
19921TIP3    H181178   5.423   3.529  14.754 -0.7321 -1.2173  1.5054
19921TIP3    H281179   5.487   3.405  14.695  0.0985  0.4577 -1.2988
19922TIP3   OH281180   2.660   6.497   1.606  0.2476 -0.4546 -0.3085
19922TIP3    H181181   2.743   6.493   1.654 -0.1995 -0.4520  0.4666
19922TIP3    H281182   2.671   6.432   1.536  0.6277 -0.9892  0.2325
19923TIP3   OH281183   0.059   5.418  10.891 -0.5614 -0.0948 -0.0419
19923TIP3    H181184  -0.027   5.377  10.904 -0.3920 -0.4243  0.0480
19923TIP3    H281185   0.064   5.485  10.959 -0.4788 -0.5114  0.3618
19924TIP3   OH281186   2.105   3.364  14.835  0.4981 -0.1349  0.3302
19924TIP3    H181187   2.063   3.409  14.908  1.5556 -0.4147  1.1339
19924TIP3    H281188   2.198   3.382  14.846  0.6328  0.3612 -1.3323
19925TIP3   OH281189   3.415   1.678  16.092 -0.0219  0.9217 -0.0046
19925TIP3    H181190   3.488   1.700  16.033 -0.2483 -0.4003 -0.8294
19925TIP3    H281191   3.446   1.603  16.142 -1.6346 -1.3806 -2.1906
19926TIP3   OH281192   5.352   0.915   3.961 -0.0073 -0.1625  0.9703
19926TIP3    H181193   5.288   0.975   3.998  0.0563 -0.5393  1.7022
19926TIP3    H281194   5.301   0.839   3.934  0.1335 -0.4542  1.5344
19927TIP3   OH281195   4.046   2.346  12.238 -0.1625  0.1273  0.3319
19927TIP3    H181196   4.013   2.359  12.149 -1.2100 -2.1396  0.3430
19927TIP3    H281197   4.128   2.299  12.226 -0.4296 -0.4021  0.5672
19928TIP3   OH281198   1.608   4.850  16.158 -0.4363 -0.6315 -0.5598
19928TIP3    H181199   1.692   4.814  16.187 -0.4598  0.6221  1.1878
19928TIP3    H281200   1.543   4.803  16.211 -0.5953  0.5019  0.2999
19929TIP3   OH281201   1.235   3.969   0.156  0.2208 -0.3710  0.5089
19929TIP3    H181202   1.226   4.025   0.078  0.4557  1.4416  1.7343
19929TIP3    H281203   1.170   4.002   0.217  1.0290 -0.8163  1.6436
19930TIP3   OH281204   5.663   5.598   2.342 -0.1295 -0.1745  0.1972
19930TIP3    H181205   5.591   5.656   2.368 -0.0909 -1.4939  3.8606
19930TIP3    H281206   5.697   5.637   2.261 -3.8087  1.4519 -0.7746
19931TIP3   OH281207   5.273   6.214   1.549  0.4622  0.3654 -0.0369
19931TIP3    H181208   5.322   6.296   1.556  2.4358 -0.7991  0.4439
19931TIP3    H281209   5.335   6.146   1.575 -1.5585 -1.1705  1.1205
19932TIP3   OH281210   1.005   5.445   1.948  0.5345 -0.0019  0.1115
19932TIP3    H181211   1.012   5.368   1.891 -2.4422 -1.7673  1.8311
19932TIP3    H281212   0.982   5.516   1.889  2.1522 -0.6528 -1.3897
19933TIP3   OH281213   4.409   6.407  14.657 -0.1218  0.0297  0.3857
19933TIP3    H181214   4.499   6.430  14.680  0.7492  0.0751 -2.6783
19933TIP3    H281215   4.416   6.319  14.618 -1.2909  0.2673 -0.4280
19934TIP3   OH281216   3.574   1.853  13.227 -0.4894 -0.6819  0.6548
19934TIP3    H181217   3.512   1.816  13.290 -0.3209 -1.6373  0.2877
19934TIP3    H281218   3.658   1.813  13.250 -0.4541 -1.1625 -0.2482
19935TIP3   OH281219   5.354   2.388  12.086  0.6188  0.1214 -0.2832
19935TIP3    H181220   5.380   2.334  12.012  0.0203 -0.0196 -0.3942
19935TIP3    H281221   5.390   2.475  12.067 -0.5877  0.4048 -1.3504
19936TIP3   OH281222   6.451   2.375  16.178 -0.5328 -0.6417 -0.1519
19936TIP3    H181223   6.535   2.332  16.160 -1.1650 -1.4032 -1.3865
19936TIP3    H281224   6.411   2.385  16.092 -1.2414  0.7152  0.3144
19937TIP3   OH281225   5.890   1.947  16.393 -0.2009 -0.0984 -0.1959
19937TIP3    H181226   5.850   1.890  16.458  1.1997 -0.6256  0.2435
19937TIP3    H281227   5.975   1.906  16.374  0.2817  1.1372 -0.8377
19938TIP3   OH281228   2.544   6.070  14.011 -0.0728 -0.6275 -0.3416
19938TIP3    H181229   2.586   6.062  14.097  0.2343 -0.5863 -0.4884
19938TIP3    H281230   2.463   6.021  14.020 -0.1485 -0.4383  0.0425
19939TIP3   OH281231   5.153   5.069   0.378 -0.0180  0.3631 -0.2060
19939TIP3    H181232   5.209   5.017   0.437  0.1290  1.9522  1.1328
19939TIP3    H281233   5.183   5.159   0.391  0.1490  0.7744 -2.9158
19940TIP3   OH281234   1.973   5.100   5.729  0.6295  0.3833  0.3186
19940TIP3    H181235   1.963   5.149   5.810  1.1778  1.5376 -0.2940
19940TIP3    H281236   1.897   5.125   5.676  0.8143  0.4253  0.0729
19941TIP3   OH281237   1.951   2.042  14.426 -0.7267 -0.2787  0.7576
19941TIP3    H181238   2.040   2.072  14.445 -0.0413 -0.4438 -1.8165
19941TIP3    H281239   1.896   2.092  14.486  0.9949  0.6348  1.6585
19942TIP3   OH281240   5.524   1.561  16.836  0.0278  0.3397 -0.3186
19942TIP3    H181241   5.586   1.634  16.826 -0.8141  1.2734  1.1326
19942TIP3    H281242   5.565   1.490  16.786  1.1600  1.6030 -1.2855
19943TIP3   OH281243   4.606   3.702   2.178 -0.2625  0.0568 -0.2331
19943TIP3    H181244   4.682   3.676   2.230  0.0785 -0.5523 -1.0193
19943TIP3    H281245   4.614   3.651   2.098 -1.9193 -0.5837 -0.0233
19944TIP3   OH281246   4.878   3.054   5.855  0.1143  0.1445 -0.0800
19944TIP3    H181247   4.936   3.021   5.922  1.3611  0.1104 -1.1358
19944TIP3    H281248   4.797   3.004   5.866  0.9742 -1.2576  0.1621
19945TIP3   OH281249   4.229   6.505   3.789 -0.3308 -0.4392 -0.0330
19945TIP3    H181250   4.288   6.448   3.741  0.4220  1.0848 -1.0177
19945TIP3    H281251   4.278   6.529   3.868 -0.6478 -1.1153  0.3813
19946TIP3   OH281252   2.796   4.470   2.277 -0.1762  0.0251  0.3224
19946TIP3    H181253   2.711   4.494   2.314  0.0547  0.3342  0.6586
19946TIP3    H281254   2.805   4.524   2.199 -0.0517  0.3905  0.5867
19947TIP3   OH281255   1.442   6.387  12.607 -0.3516 -0.1207 -0.1631
19947TIP3    H181256   1.500   6.377  12.532 -0.1992 -0.4491 -0.0022
19947TIP3    H281257   1.500   6.409  12.679 -0.4616 -0.1416 -0.0685
19948TIP3   OH281258   2.869   4.016  15.217 -0.1546 -0.0813 -0.2458
19948TIP3    H181259   2.960   4.037  15.193  0.4213 -2.1394 -0.0735
19948TIP3    H281260   2.857   4.057  15.302 -0.3941  2.6444 -1.4716
19949TIP3   OH281261   2.525   4.770  16.912 -1.0650 -0.6380 -0.4782
19949TIP3    H181262   2.599   4.713  16.893 -1.2748 -1.0064 -0.2088
19949TIP3    H281263   2.489   4.792  16.827  0.1205  0.5910 -0.6927
19950TIP3   OH281264   4.834   5.754  14.464  0.0410  0.1495 -0.1794
19950TIP3    H181265   4.902   5.715  14.519  1.0311 -0.2547 -1.6391
19950TIP3    H281266   4.754   5.705  14.486  0.8132 -1.2792 -0.4390
19951TIP3   OH281267   4.145   1.535   3.440 -0.0209  0.1364 -0.1871
19951TIP3    H181268   4.211   1.525   3.508 -0.5231 -0.1589  0.2643
19951TIP3    H281269   4.166   1.619   3.398 -0.0615  0.6069  0.7210
19952TIP3   OH281270   1.135   2.634  13.846  0.1335 -0.1872  0.4924
19952TIP3    H181271   1.217   2.613  13.891  0.0300  0.1697  0.8569
19952TIP3    H281272   1.155   2.623  13.753  0.0162 -2.0744  0.6641
19953TIP3   OH281273   2.830   0.371   5.406 -0.1452 -0.4075 -0.5685
19953TIP3    H181274   2.863   0.448   5.452  1.5804 -0.2063 -2.0189
19953TIP3    H281275   2.855   0.297   5.461 -0.2736 -0.0516 -0.0201
19954TIP3   OH281276   3.811   6.767   1.402  0.0464  0.1789 -0.0609
19954TIP3    H181277   3.862   6.698   1.361 -0.0579  0.1637 -0.1681
19954TIP3    H281278   3.775   6.817   1.328 -1.0619 -0.5239 -0.0182
19955TIP3   OH281279   2.274   3.007   2.569  0.0073 -0.1365  0.4527
19955TIP3    H181280   2.216   2.941   2.532 -0.3319  0.1669  0.4291
19955TIP3    H281281   2.317   3.047   2.493  1.2563 -1.2543  0.5406
19956TIP3   OH281282   3.410   6.094  10.997 -0.6216  0.1663  0.2279
19956TIP3    H181283   3.443   6.184  10.998 -1.0753  0.3307  0.5728
19956TIP3    H281284   3.381   6.080  10.907  0.2408  0.0670 -0.0487
19957TIP3   OH281285   1.434   0.680   4.013 -0.3289 -0.7170  0.0150
19957TIP3    H181286   1.400   0.653   4.099 -1.3149 -0.3831 -0.2548
19957TIP3    H281287   1.360   0.726   3.972  0.8352  1.1792 -0.0923
19958TIP3   OH281288   1.178   4.379   2.672  0.0199 -0.2652 -0.0495
19958TIP3    H181289   1.120   4.451   2.698  0.7708  0.2779  0.1778
19958TIP3    H281290   1.169   4.374   2.577 -1.8572 -1.4852  0.1435
19959TIP3   OH281291   0.078   0.212   5.497  0.3831  0.8880 -0.6904
19959TIP3    H181292   0.031   0.292   5.522 -1.4574 -0.5090  0.6126
19959TIP3    H281293   0.010   0.152   5.467  1.3210 -1.0743  0.8547
19960TIP3   OH281294   3.063   3.786  15.223  0.0231  0.2950 -0.6997
19960TIP3    H181295   2.977   3.826  15.236  0.3758  0.9246 -0.2443
19960TIP3    H281296   3.047   3.711  15.166 -1.2745 -1.1698  1.4302
19961TIP3   OH281297   4.943   4.286  15.863  0.3308 -0.3661  0.5128
19961TIP3    H181298   4.918   4.195  15.882 -0.3633 -0.2141  0.3606
19961TIP3    H281299   4.862   4.327  15.834  1.2242 -0.5231 -2.5684
19962TIP3   OH281300   0.363   2.365  17.054 -0.2448  0.7103  0.2081
19962TIP3    H181301   0.274   2.375  17.021 -0.4404 -0.3203  0.3793
19962TIP3    H281302   0.357   2.382  17.148 -0.1366  1.2564  0.1202
19963TIP3   OH281303   0.496   2.523  16.465 -0.4993 -0.0916  0.3423
19963TIP3    H181304   0.410   2.525  16.425 -0.3553 -1.9242 -0.1719
19963TIP3    H281305   0.500   2.601  16.519 -2.3611  0.1690  0.1510
19964TIP3   OH281306   0.601   6.604  10.918  0.2572 -0.1400 -0.4091
19964TIP3    H181307   0.588   6.546  10.843  1.9467  0.6477 -1.3585
19964TIP3    H281308   0.692   6.631  10.912  0.2957  0.3463  1.6711
19965TIP3   OH281309   4.843   5.484  11.241 -0.1068 -0.6684  0.1579
19965TIP3    H181310   4.782   5.512  11.174  1.1534 -2.5155 -1.9077
19965TIP3    H281311   4.875   5.399  11.211  1.9720 -0.7026  2.1291
19966TIP3   OH281312   4.599   3.529  16.536 -0.2751 -0.5304  0.5697
19966TIP3    H181313   4.618   3.593  16.605 -0.4934  0.1857 -0.0161
19966TIP3    H281314   4.554   3.458  16.580  1.7458 -1.2470  1.6065
19967TIP3   OH281315   2.705   0.098  14.625  0.2964  0.2074  0.5773
19967TIP3    H181316   2.611   0.097  14.643  0.0512 -0.8045 -0.6430
19967TIP3    H281317   2.729   0.190  14.628 -0.7094  0.4710  0.9814
19968TIP3   OH281318   0.978   2.159   4.466  0.1352 -0.6087 -0.4549
19968TIP3    H181319   0.969   2.108   4.546 -0.7086  1.5423  0.9227
19968TIP3    H281320   1.031   2.105   4.408 -2.1574 -3.7798  0.1746
19969TIP3   OH281321   1.719   2.193   5.632 -0.1332  0.1861 -0.1453
19969TIP3    H181322   1.690   2.218   5.544  0.1414  2.6899  0.3852
19969TIP3    H281323   1.798   2.142   5.618 -1.2093 -1.2269 -1.3916
19970TIP3   OH281324   3.242   5.222  15.509  0.0982  0.0738  0.0694
19970TIP3    H181325   3.233   5.306  15.464  1.7002  0.6765  0.8036
19970TIP3    H281326   3.159   5.178  15.494 -0.1709  1.1047 -1.7081
19971TIP3   OH281327   3.907   6.056  17.013  0.0499  0.5435  0.0645
19971TIP3    H181328   3.882   6.140  17.051  0.6557  0.8422 -0.1664
19971TIP3    H281329   3.894   6.068  16.919 -2.3695 -0.5081  0.1978
19972TIP3   OH281330   6.697   3.137  14.185  0.0173  0.0943 -0.1059
19972TIP3    H181331   6.685   3.082  14.263 -0.8734  0.2869 -0.1060
19972TIP3    H281332   6.691   3.077  14.111 -0.1101  0.0665 -0.0717
19973TIP3   OH281333   3.608   1.933  11.328  0.3070  0.2736 -1.0471
19973TIP3    H181334   3.692   1.950  11.286  1.8812 -1.6665  1.0371
19973TIP3    H281335   3.588   1.842  11.306  0.7723 -0.5288  1.5351
19974TIP3   OH281336   6.014   1.072   6.009  0.4370 -0.8656 -0.0120
19974TIP3    H181337   6.069   1.007   5.963  0.7172 -1.9704  1.7826
19974TIP3    H281338   6.070   1.106   6.078  0.1990  1.1852 -0.7566
19975TIP3   OH281339   1.024   0.921  15.866  0.1038  0.0301  0.2522
19975TIP3    H181340   1.035   0.919  15.771  1.5705 -0.1252  0.3916
19975TIP3    H281341   1.084   0.853  15.898 -1.3830 -0.8571  1.2229
19976TIP3   OH281342   1.228   3.189   4.789 -0.0615 -0.2960  0.3948
19976TIP3    H181343   1.137   3.207   4.813  0.1202  3.4675 -1.0434
19976TIP3    H281344   1.225   3.175   4.695  0.9039  1.2045  0.0976
19977TIP3   OH281345   5.129   3.090  15.717 -0.6389 -0.0401  0.1305
19977TIP3    H181346   5.132   2.999  15.688  1.2338 -0.8258  2.4753
19977TIP3    H281347   5.154   3.141  15.640  3.1009 -1.9061 -0.1157
19978TIP3   OH281348   1.588   4.562   0.513 -0.6046  0.1710 -0.0258
19978TIP3    H181349   1.575   4.652   0.487  0.4399  0.1231 -0.7969
19978TIP3    H281350   1.570   4.561   0.607 -2.2974  0.7990 -0.3134
19979LIG     O181351   1.660   1.308  16.186 -0.0774  0.6787 -0.0246
19979LIG     O281352   2.062   1.470  16.321 -0.1753  0.0159 -0.4918
19979LIG     N181353   1.883   1.535  16.444  0.1439 -0.3569  0.3780
19979LIG     N281354   1.529   1.476  16.407 -0.0588  0.6219  0.0349
19979LIG     N381355   1.862   1.385  16.271  0.9692 -0.3467 -0.1974
19979LIG     N481356   1.655   1.604  16.533 -0.7590  0.0980 -0.6828
19979LIG     C181357   1.663   1.452  16.371  0.1367  0.0627 -0.2939
19979LIG     C281358   1.745   1.532  16.452  0.2096 -0.1488 -0.6062
19979LIG     C381359   1.716   1.370  16.267 -0.4601 -0.1207 -0.5993
19979LIG     C481360   1.944   1.462  16.347  0.0141  0.4165  0.4213
19979LIG     C581361   1.530   1.577  16.499 -0.0889  0.5689  0.2718
19979LIG     C681362   1.959   1.621  16.537 -0.6930 -0.1183 -0.5717
19979LIG     C781363   1.412   1.412  16.349  0.0098  0.2973 -0.2480
19979LIG     C881364   1.932   1.327  16.158 -0.0675 -0.5954  0.3471
19979LIG     H181365   1.440   1.613  16.549  0.9892  2.9400  0.6901
19979LIG     H281366   2.025   1.552  16.595  0.6223  0.3305 -1.4709
19979LIG     H381367   1.894   1.675  16.609 -0.2291 -0.3952  0.0657
19979LIG     H481368   2.037   1.687  16.492  0.4462 -1.5921 -0.8324
19979LIG     H581369   1.378   1.443  16.248 -0.2528  3.6217  0.7758
19979LIG     H681370   1.327   1.427  16.418  0.3001 -2.2967  0.7910
19979LIG     H781371   1.419   1.301  16.356 -1.0356  0.2856  0.9555
19979LIG     H881372   1.892   1.232  16.117  4.0198 -2.1048 -0.5170
19979LIG     H981373   2.034   1.294  16.184 -0.4714 -0.2370  2.5956
19979LIG    H1081374   1.933   1.400  16.074  0.4302  0.1927  1.0231
   6.81638   6.81638  17.12447
